
                                 *****************
                                 * O   R   C   A *
                                 *****************

           --- An Ab Initio, DFT and Semiempirical electronic structure package ---

                  #######################################################
                  #                        -***-                        #
                  #          Department of theory and spectroscopy      #
                  #               Directorship: Frank Neese             #
                  #        Max Planck Institute fuer Kohlenforschung    #
                  #                Kaiser Wilhelm Platz 1               #
                  #                 D-45470 Muelheim/Ruhr               #
                  #                      Germany                        #
                  #                                                     #
                  #                  All rights reserved                #
                  #                        -***-                        #
                  #######################################################


                         Program Version 4.1.2  - RELEASE  -


 With contributions from (in alphabetic order):
   Daniel Aravena         : Magnetic Properties
   Michael Atanasov       : Ab Initio Ligand Field Theory
   Alexander A. Auer      : GIAO ZORA
   Ute Becker             : Parallelization
   Giovanni Bistoni       : ED, Open-shell LED
   Martin Brehm           : Molecular dynamics
   Dmytro Bykov           : SCF Hessian
   Vijay G. Chilkuri      : MRCI spin determinant printing
   Dipayan Datta          : RHF DLPNO-CCSD density
   Achintya Kumar Dutta   : EOM-CC, STEOM-CC
   Dmitry Ganyushin       : Spin-Orbit,Spin-Spin,Magnetic field MRCI
   Miquel Garcia          : C-PCM Hessian
   Yang Guo               : DLPNO-NEVPT2, CIM, IAO-localization
   Andreas Hansen         : Spin unrestricted coupled pair/coupled cluster methods
   Benjamin Helmich-Paris : CASSCF linear response (MC-RPA)
   Lee Huntington         : MR-EOM, pCC
   Robert Izsak           : Overlap fitted RIJCOSX, COSX-SCS-MP3, EOM
   Christian Kollmar      : KDIIS, OOCD, Brueckner-CCSD(T), CCSD density
   Simone Kossmann        : Meta GGA functionals, TD-DFT gradient, OOMP2, MP2 Hessian
   Martin Krupicka        : AUTO-CI
   Lucas Lang             : DCDCAS
   Dagmar Lenk            : GEPOL surface, SMD
   Dimitrios Liakos       : Extrapolation schemes; parallel MDCI
   Dimitrios Manganas     : ROCIS; embedding schemes
   Dimitrios Pantazis     : SARC Basis sets
   Taras Petrenko         : DFT Hessian,TD-DFT gradient, ASA, ECA, R-Raman, ABS, FL, XAS/XES, NRVS
   Peter Pinski           : DLPNO-MP2, DLPNO-MP2 Gradient
   Christoph Reimann      : Effective Core Potentials
   Marius Retegan         : Local ZFS, SOC
   Christoph Riplinger    : Optimizer, TS searches, QM/MM, DLPNO-CCSD(T), (RO)-DLPNO pert. Triples
   Tobias Risthaus        : Range-separated hybrids, TD-DFT gradient, RPA, STAB
   Michael Roemelt        : Restricted open shell CIS
   Masaaki Saitow         : Open-shell DLPNO
   Barbara Sandhoefer     : DKH picture change effects
   Avijit Sen             : IP-ROCIS
   Kantharuban Sivalingam : CASSCF convergence, NEVPT2, FIC-MRCI
   Bernardo de Souza      : ESD, SOC TD-DFT
   Georgi Stoychev        : AutoAux, RI-MP2 NMR
   Willem Van den Heuvel  : Paramagnetic NMR
   Boris Wezisla          : Elementary symmetry handling
   Frank Wennmohs         : Technical directorship


 We gratefully acknowledge several colleagues who have allowed us to
 interface, adapt or use parts of their codes:
   Stefan Grimme, W. Hujo, H. Kruse,             : VdW corrections, initial TS optimization,
                  C. Bannwarth                     DFT functionals, gCP, sTDA/sTD-DF
   Ed Valeev                                     : LibInt (2-el integral package), F12 methods
   Garnet Chan, S. Sharma, J. Yang, R. Olivares  : DMRG
   Ulf Ekstrom                                   : XCFun DFT Library
   Mihaly Kallay                                 : mrcc  (arbitrary order and MRCC methods)
   Andreas Klamt, Michael Diedenhofen            : otool_cosmo (COSMO solvation model)
   Jiri Pittner, Ondrej Demel                    : Mk-CCSD
   Frank Weinhold                                : gennbo (NPA and NBO analysis)
   Christopher J. Cramer and Donald G. Truhlar   : smd solvation model
   Lars Goerigk                                  : TD-DFT with DH, B97 family of functionals
   V. Asgeirsson, H. Jonsson                     : NEB implementation
   FAccTs GmbH                                   : IRC, NEB, NEB-TS, Multilevel


 Your calculation uses the libint2 library for the computation of 2-el integrals
 For citations please refer to: http://libint.valeyev.net

 This ORCA versions uses:
   CBLAS   interface :  Fast vector & matrix operations
   LAPACKE interface :  Fast linear algebra routines
   SCALAPACK package :  Parallel linear algebra routines


Your calculation utilizes the atom-pairwise dispersion correction
with the zero-damping scheme (D30)
Cite in your paper:
S.Grimme, J.Antony, S.Ehrlich and H.Krieg, J.Chem.Phys., 132, (2010), 154104 
   

XCFun DFT library Copyright 2009-2010 Ulf Ekstrom and contributors.
See http://admol.org/xcfun for more information. This is free soft-
ware; see the source code for copying conditions. There is ABSOLUTELY
NO WARRANTY; not even for MERCHANTABILITY or FITNESS FOR A PARTICULAR
PURPOSE. For details see the documentation. Scientific users of this 
library should cite U. Ekstrom, L. Visscher, R. Bast, A. J. Thorvald-
sen and K. Ruud; J.Chem.Theor.Comp. 2010, DOI: 10.1021/ct100117s
XCFun Version 0.99 
----- Orbital basis set information -----
Your calculation utilizes the basis: def2-TZVP
   F. Weigend and R. Ahlrichs, Phys. Chem. Chem. Phys. 7, 3297 (2005).

================================================================================
                                        WARNINGS
                       Please study these warnings very carefully!
================================================================================


WARNING: Geometry Optimization
  ===> : Switching off AutoStart
         For restart on a previous wavefunction, please use MOREAD

INFO   : the flag for use of LIBINT has been found!

================================================================================
                                       INPUT FILE
================================================================================
NAME = bonds_angles_[1[6[8][1][1]]]-[6[8[1]][1][1][1]]-[8[6[1][1][1]][1]]_0.in
|  1> #Run DFT geometry optimization
|  2> ! wB97X-D3 def2-TZVP TIGHTSCF Grid5 FinalGrid6 Opt CHELPG PAL4
|  3> 
|  4> %base "0_geo_opt"
|  5> %geom MaxIter 500
|  6> end
|  7> 
|  8> %geom
|  9>   Constraints
| 10>     { A 5 0 1 C }
| 11>   end
| 12> end
| 13> 
| 14> 
| 15> * xyz 0 1
| 16>   C                    3.011308             -1.180897            0.598492            
| 17>   O                    4.395389             -1.133586            0.871706            
| 18>   H                    4.772196             -0.379022            0.412493            
| 19>   H                    2.806434             -1.318965            -0.469350           
| 20>   H                    2.611632             -2.040265            1.135898            
| 21>   H                    2.480638             -0.286291            0.944027            
| 22> *
| 23> 
| 24>                          ****END OF INPUT****
================================================================================

                       *****************************
                       * Geometry Optimization Run *
                       *****************************

Geometry optimization settings:
Update method            Update   .... BFGS
Choice of coordinates    CoordSys .... Z-matrix Internals
Initial Hessian          InHess   .... Almoef's Model

Convergence Tolerances:
Energy Change            TolE     ....  5.0000e-06 Eh
Max. Gradient            TolMAXG  ....  3.0000e-04 Eh/bohr
RMS Gradient             TolRMSG  ....  1.0000e-04 Eh/bohr
Max. Displacement        TolMAXD  ....  4.0000e-03 bohr
RMS Displacement         TolRMSD  ....  2.0000e-03 bohr

------------------------------------------------------------------------------
                        ORCA OPTIMIZATION COORDINATE SETUP
------------------------------------------------------------------------------

The optimization will be done in new redundant internal coordinates
Making redundant internal coordinates   ...  (new redundants) done
Evaluating the initial hessian          ...  (Almloef) done
Evaluating the coordinates              ...  done
Calculating the B-matrix                .... done
Calculating the G-matrix                .... done
Diagonalizing the G-matrix              .... done
Imposing constraints:
 Iter   0:  RMS(Cart)=    0.0000000000 RMS(Int)=    0.0000000000
CONVERGED
The first mode is                       ....    3
The number of degrees of freedom        ....   12
Storing new coordinates                 .... done

    -----------------------------------------------------------------
                    Redundant Internal Coordinates


    -----------------------------------------------------------------
         Definition                    Initial Value    Approx d2E/dq
    -----------------------------------------------------------------
      1. B(O   1,C   0)                  1.4116         0.516943   
      2. B(H   2,O   1)                  0.9603         0.519333   
      3. B(H   3,C   0)                  1.0960         0.352187   
      4. B(H   4,C   0)                  1.0895         0.360732   
      5. B(H   5,C   0)                  1.0960         0.352185   
      6. A(O   1,C   0,H   4)          106.8972         0.340286   
      7. A(O   1,C   0,H   3)          112.0905         0.338926   
      8. A(O   1,C   0,H   5)          112.7281         0.338926 C 
      9. A(H   3,C   0,H   5)          108.6302         0.288819   
     10. A(H   4,C   0,H   5)          108.1003         0.289906   
     11. A(H   3,C   0,H   4)          108.2176         0.289907   
     12. A(C   0,O   1,H   2)          108.5729         0.358711   
     13. D(H   2,O   1,C   0,H   5)    -61.0160         0.021177   
     14. D(H   2,O   1,C   0,H   3)     61.9270         0.021177   
     15. D(H   2,O   1,C   0,H   4)   -179.6544         0.021177   
    -----------------------------------------------------------------

Number of atoms                         .... 6
Number of degrees of freedom            .... 15

         *************************************************************
         *                GEOMETRY OPTIMIZATION CYCLE   1            *
         *************************************************************
---------------------------------
CARTESIAN COORDINATES (ANGSTROEM)
---------------------------------
  C      3.011308   -1.180897    0.598492
  O      4.395389   -1.133586    0.871706
  H      4.772196   -0.379022    0.412493
  H      2.806434   -1.318965   -0.469350
  H      2.611632   -2.040265    1.135898
  H      2.480638   -0.286291    0.944027

----------------------------
CARTESIAN COORDINATES (A.U.)
----------------------------
  NO LB      ZA    FRAG     MASS         X           Y           Z
   0 C     6.0000    0    12.011    5.690547   -2.231572    1.130986
   1 O     8.0000    0    15.999    8.306081   -2.142167    1.647286
   2 H     1.0000    0     1.008    9.018143   -0.716248    0.779499
   3 H     1.0000    0     1.008    5.303392   -2.492483   -0.886943
   4 H     1.0000    0     1.008    4.935269   -3.855542    2.146536
   5 H     1.0000    0     1.008    4.687726   -0.541012    1.783952

--------------------------------
INTERNAL COORDINATES (ANGSTROEM)
--------------------------------
 C      0   0   0     0.000000000000     0.00000000     0.00000000
 O      1   0   0     1.411582245240     0.00000000     0.00000000
 H      2   1   0     0.960326467777   108.57290442     0.00000000
 H      1   2   3     1.096048660172   112.09054895    61.92700669
 H      1   2   3     1.089522589594   106.89723632   180.34555053
 H      1   2   3     1.096049716190   112.72812259   298.98401191

---------------------------
INTERNAL COORDINATES (A.U.)
---------------------------
 C      0   0   0     0.000000000000     0.00000000     0.00000000
 O      1   0   0     2.667503859010     0.00000000     0.00000000
 H      2   1   0     1.814754023255   108.57290442     0.00000000
 H      1   2   3     2.071231797176   112.09054895    61.92700669
 H      1   2   3     2.058899311054   106.89723632   180.34555053
 H      1   2   3     2.071233792762   112.72812259   298.98401191

---------------------
BASIS SET INFORMATION
---------------------
There are 3 groups of distinct atoms

 Group   1 Type C   : 11s6p2d1f contracted to 5s3p2d1f pattern {62111/411/11/1}
 Group   2 Type O   : 11s6p2d1f contracted to 5s3p2d1f pattern {62111/411/11/1}
 Group   3 Type H   : 5s1p contracted to 3s1p pattern {311/1}

Atom   0C    basis set group =>   1
Atom   1O    basis set group =>   2
Atom   2H    basis set group =>   3
Atom   3H    basis set group =>   3
Atom   4H    basis set group =>   3
Atom   5H    basis set group =>   3


           ************************************************************
           *        Program running with 4 parallel MPI-processes     *
           *              working on a common directory               *
           ************************************************************
------------------------------------------------------------------------------
                           ORCA GTO INTEGRAL CALCULATION
------------------------------------------------------------------------------

                         BASIS SET STATISTICS AND STARTUP INFO

 # of primitive gaussian shells          ...   64
 # of primitive gaussian functions       ...  124
 # of contracted shells                  ...   38
 # of contracted basis functions         ...   86
 Highest angular momentum                ...    3
 Maximum contraction depth               ...    6
 Integral package used                   ... LIBINT
 Integral threshhold            Thresh   ...  2.500e-11
 Primitive cut-off              TCut     ...  2.500e-12


------------------------------ INTEGRAL EVALUATION ----------------------------


 * One electron integrals 
 Pre-screening matrix                    ... done
 Shell pair data                         ... done (   0.000 sec)



           ************************************************************
           *        Program running with 4 parallel MPI-processes     *
           *              working on a common directory               *
           ************************************************************
-------------------------------------------------------------------------------
                                 ORCA SCF
-------------------------------------------------------------------------------

------------
SCF SETTINGS
------------
Hamiltonian:
 Density Functional     Method          .... DFT(GTOs)
 Exchange Functional    Exchange        .... WB97X-D3
 Correlation Functional Correlation     .... WB97X-D3
 Gradients option       PostSCFGGA      .... off
 Hybrid DFT is turned on
   Fraction HF Exchange ScalHFX         ....  0.195728
   Scaling of DF-GGA-X  ScalDFX         ....  0.000000
   Scaling of DF-GGA-C  ScalDFC         ....  1.000000
   Scaling of DF-LDA-C  ScalLDAC        ....  1.000000
   Perturbative correction              ....  0.000000
   Density functional embedding theory  .... OFF
 Long-range corrected/Screened/Range-Separated Hybrid DFT is turned on
   Amount of maximum screened exact exchange              ....  0.804272
   Range separation parameter mu (erf(mu*r12)/r12)        ....  0.250000


General Settings:
 Integral files         IntName         .... 0_geo_opt
 Hartree-Fock type      HFTyp           .... RHF
 Total Charge           Charge          ....    0
 Multiplicity           Mult            ....    1
 Number of Electrons    NEL             ....   18
 Basis Dimension        Dim             ....   86
 Nuclear Repulsion      ENuc            ....     40.4227870250 Eh

Convergence Acceleration:
 DIIS                   CNVDIIS         .... on
   Start iteration      DIISMaxIt       ....    12
   Startup error        DIISStart       ....  0.200000
   # of expansion vecs  DIISMaxEq       ....     5
   Bias factor          DIISBfac        ....   1.050
   Max. coefficient     DIISMaxC        ....  10.000
 Newton-Raphson         CNVNR           .... off
 SOSCF                  CNVSOSCF        .... on
   Start iteration      SOSCFMaxIt      ....   150
   Startup grad/error   SOSCFStart      ....  0.003300
 Level Shifting         CNVShift        .... on
   Level shift para.    LevelShift      ....    0.2500
   Turn off err/grad.   ShiftErr        ....    0.0010
 Zerner damping         CNVZerner       .... off
 Static damping         CNVDamp         .... on
   Fraction old density DampFac         ....    0.7000
   Max. Damping (<1)    DampMax         ....    0.9800
   Min. Damping (>=0)   DampMin         ....    0.0000
   Turn off err/grad.   DampErr         ....    0.1000
 Fernandez-Rico         CNVRico         .... off

SCF Procedure:
 Maximum # iterations   MaxIter         ....   125
 SCF integral mode      SCFMode         .... Direct
   Integral package                     .... LIBINT
 Reset frequency        DirectResetFreq ....    20
 Integral Threshold     Thresh          ....  2.500e-11 Eh
 Primitive CutOff       TCut            ....  2.500e-12 Eh

Convergence Tolerance:
 Convergence Check Mode ConvCheckMode   .... Total+1el-Energy
 Convergence forced     ConvForced      .... 0
 Energy Change          TolE            ....  1.000e-08 Eh
 1-El. energy change                    ....  1.000e-05 Eh
 Orbital Gradient       TolG            ....  1.000e-05
 Orbital Rotation angle TolX            ....  1.000e-05
 DIIS Error             TolErr          ....  5.000e-07


Diagonalization of the overlap matrix:
Smallest eigenvalue                        ... 1.650e-03
Time for diagonalization                   ...    0.017 sec
Threshold for overlap eigenvalues          ... 1.000e-08
Number of eigenvalues below threshold      ... 0
Time for construction of square roots      ...    0.004 sec
Total time needed                          ...    0.022 sec

-------------------
DFT GRID GENERATION
-------------------

General Integration Accuracy     IntAcc      ...  5.010
Radial Grid Type                 RadialGrid  ... Gauss-Chebyshev
Angular Grid (max. acc.)         AngularGrid ... Lebedev-434
Angular grid pruning method      GridPruning ... 3 (G Style)
Weight generation scheme         WeightScheme... Becke
Basis function cutoff            BFCut       ...    1.0000e-11
Integration weight cutoff        WCut        ...    1.0000e-14
Grids for H and He will be reduced by one unit

# of grid points (after initial pruning)     ...  48308 (   0.0 sec)
# of grid points (after weights+screening)   ...  46677 (   0.0 sec)
nearest neighbour list constructed           ...    0.0 sec
Grid point re-assignment to atoms done       ...    0.0 sec
Grid point division into batches done        ...    0.3 sec
Reduced shell lists constructed in    0.3 sec

Total number of grid points                  ...    46677
Total number of batches                      ...      732
Average number of points per batch           ...       63
Average number of grid points per atom       ...     7780
Average number of shells per batch           ...    33.10 (87.11%)
Average number of basis functions per batch  ...    76.79 (89.29%)
Average number of large shells per batch     ...    30.59 (92.42%)
Average number of large basis fcns per batch ...    72.23 (94.07%)
Maximum spatial batch extension              ...  15.76, 14.99, 16.58 au
Average spatial batch extension              ...   0.40,  0.42,  0.42 au

Time for grid setup =    0.403 sec

------------------------------
INITIAL GUESS: MODEL POTENTIAL
------------------------------
Loading Hartree-Fock densities                     ... done
Calculating cut-offs                               ... done
Setting up the integral package                    ... done
Initializing the effective Hamiltonian             ... done
Starting the Coulomb interaction                   ... done (   0.0 sec)
Reading the grid                                   ... done
Mapping shells                                     ... done
Starting the XC term evaluation                    ... done (   0.1 sec)
  promolecular density results
     # of electrons  =     17.998045114
     EX              =    -14.429680226
     EC              =     -0.575070034
     EX+EC           =    -15.004750260
Transforming the Hamiltonian                       ... done (   0.0 sec)
Diagonalizing the Hamiltonian                      ... done (   0.0 sec)
Back transforming the eigenvectors                 ... done (   0.0 sec)
Now organizing SCF variables                       ... done
                      ------------------
                      INITIAL GUESS DONE (   0.6 sec)
                      ------------------
--------------
SCF ITERATIONS
--------------
ITER       Energy         Delta-E        Max-DP      RMS-DP      [F,P]     Damp
               ***  Starting incremental Fock matrix formation  ***
  0   -115.6513373826   0.000000000000 0.03688591  0.00147324  0.2520405 0.7000
  1   -115.6883414527  -0.037004070175 0.02201117  0.00103998  0.1260695 0.7000
                               ***Turning on DIIS***
  2   -115.7053763867  -0.017034933988 0.03156238  0.00187991  0.0490105 0.0000
  3   -115.7330655351  -0.027689148360 0.01772767  0.00068000  0.0610159 0.0000
  4   -115.7375832345  -0.004517699435 0.00406009  0.00013183  0.0065981 0.0000
                      *** Initiating the SOSCF procedure ***
                           *** Shutting down DIIS ***
                      *** Re-Reading the Fockian *** 
                      *** Removing any level shift *** 
ITER      Energy       Delta-E        Grad      Rot      Max-DP    RMS-DP
  5   -115.73767756  -0.0000943300  0.000486  0.000486  0.000681  0.000043
               *** Restarting incremental Fock matrix formation ***
  6   -115.73768573  -0.0000081648  0.000153  0.000202  0.000488  0.000026
  7   -115.73768645  -0.0000007226  0.000056  0.000109  0.000208  0.000011
  8   -115.73768651  -0.0000000572  0.000020  0.000018  0.000030  0.000001
  9   -115.73768651  -0.0000000058  0.000011  0.000008  0.000015  0.000001
 10   -115.73768652  -0.0000000015  0.000003  0.000003  0.000003  0.000000
                  ***Gradient check signals convergence***
              ***Rediagonalizing the Fockian in SOSCF/NRSCF***

               *****************************************************
               *                     SUCCESS                       *
               *           SCF CONVERGED AFTER  11 CYCLES          *
               *****************************************************

Setting up the final grid:

General Integration Accuracy     IntAcc      ...  5.340
Radial Grid Type                 RadialGrid  ... Gauss-Chebyshev
Angular Grid (max. acc.)         AngularGrid ... Lebedev-590
Angular grid pruning method      GridPruning ... 3 (G Style)
Weight generation scheme         WeightScheme... Becke
Basis function cutoff            BFCut       ...    1.0000e-11
Integration weight cutoff        WCut        ...    1.0000e-14
Grids for H and He will be reduced by one unit

# of grid points (after initial pruning)     ...  77324 (   0.0 sec)
# of grid points (after weights+screening)   ...  74513 (   0.0 sec)
nearest neighbour list constructed           ...    0.0 sec
Grid point re-assignment to atoms done       ...    0.0 sec
Grid point division into batches done        ...    0.8 sec
Reduced shell lists constructed in    0.8 sec

Total number of grid points                  ...    74513
Total number of batches                      ...     1168
Average number of points per batch           ...       63
Average number of grid points per atom       ...    12419
Average number of shells per batch           ...    32.92 (86.63%)
Average number of basis functions per batch  ...    76.36 (88.79%)
Average number of large shells per batch     ...    30.33 (92.14%)
Average number of large basis fcns per batch ...    71.61 (93.79%)
Maximum spatial batch extension              ...  13.18, 15.65, 15.48 au
Average spatial batch extension              ...   0.34,  0.36,  0.36 au

Final grid set up in    0.9 sec
Final integration                            ... done (   0.2 sec)
Change in XC energy                          ...    -0.000107457
Integrated number of electrons               ...    18.000000741
Previous integrated no of electrons          ...    18.000002276

----------------
TOTAL SCF ENERGY
----------------

Total Energy       :         -115.73779397 Eh           -3149.38549 eV

Components:
Nuclear Repulsion  :           40.42278702 Eh            1099.95996 eV
Electronic Energy  :         -156.16058100 Eh           -4249.34544 eV
One Electron Energy:         -237.26651662 Eh           -6456.35015 eV
Two Electron Energy:           81.10593563 Eh            2207.00471 eV

Virial components:
Potential Energy   :         -230.98336806 Eh           -6285.37699 eV
Kinetic Energy     :          115.24557409 Eh            3135.99150 eV
Virial Ratio       :            2.00427105


DFT components:
N(Alpha)           :        9.000000370603 electrons
N(Beta)            :        9.000000370603 electrons
N(Total)           :       18.000000741206 electrons
E(XC)              :      -10.654525478101 Eh       
DFET-embed. en.    :        0.000000000000 Eh       

---------------
SCF CONVERGENCE
---------------

  Last Energy change         ...   -1.0428e-10  Tolerance :   1.0000e-08
  Last MAX-Density change    ...    1.8714e-06  Tolerance :   1.0000e-07
  Last RMS-Density change    ...    7.8793e-08  Tolerance :   5.0000e-09
  Last Orbital Gradient      ...    1.3479e-06  Tolerance :   1.0000e-05
  Last Orbital Rotation      ...    7.8024e-07  Tolerance :   1.0000e-05

             **** THE GBW FILE WAS UPDATED (0_geo_opt.gbw) ****
             **** DENSITY FILE WAS UPDATED (0_geo_opt.scfp.tmp) ****
             **** ENERGY FILE WAS UPDATED (0_geo_opt.en.tmp) ****
----------------
ORBITAL ENERGIES
----------------

  NO   OCC          E(Eh)            E(eV) 
   0   2.0000     -19.228586      -523.2364 
   1   2.0000     -10.315059      -280.6870 
   2   2.0000      -1.136457       -30.9246 
   3   2.0000      -0.795073       -21.6350 
   4   2.0000      -0.611472       -16.6390 
   5   2.0000      -0.541551       -14.7363 
   6   2.0000      -0.526026       -14.3139 
   7   2.0000      -0.434050       -11.8111 
   8   2.0000      -0.373659       -10.1678 
   9   0.0000       0.116344         3.1659 
  10   0.0000       0.156472         4.2578 
  11   0.0000       0.202408         5.5078 
  12   0.0000       0.205218         5.5843 
  13   0.0000       0.226486         6.1630 
  14   0.0000       0.304278         8.2798 
  15   0.0000       0.313550         8.5321 
  16   0.0000       0.404259        11.0004 
  17   0.0000       0.452717        12.3190 
  18   0.0000       0.484563        13.1856 
  19   0.0000       0.535674        14.5764 
  20   0.0000       0.543475        14.7887 
  21   0.0000       0.567111        15.4319 
  22   0.0000       0.598649        16.2901 
  23   0.0000       0.603435        16.4203 
  24   0.0000       0.670953        18.2575 
  25   0.0000       0.778451        21.1827 
  26   0.0000       0.831890        22.6369 
  27   0.0000       0.860869        23.4254 
  28   0.0000       0.989788        26.9335 
  29   0.0000       1.014373        27.6025 
  30   0.0000       1.109553        30.1925 
  31   0.0000       1.382032        37.6070 
  32   0.0000       1.512678        41.1621 
  33   0.0000       1.553678        42.2777 
  34   0.0000       1.602455        43.6050 
  35   0.0000       1.613218        43.8979 
  36   0.0000       1.624676        44.2097 
  37   0.0000       1.661503        45.2118 
  38   0.0000       1.686984        45.9052 
  39   0.0000       1.776174        48.3322 
  40   0.0000       1.951397        53.1002 
  41   0.0000       2.031085        55.2686 
  42   0.0000       2.055669        55.9376 
  43   0.0000       2.093554        56.9685 
  44   0.0000       2.114073        57.5268 
  45   0.0000       2.266502        61.6747 
  46   0.0000       2.333707        63.5034 
  47   0.0000       2.345732        63.8306 
  48   0.0000       2.380208        64.7688 
  49   0.0000       2.430846        66.1467 
  50   0.0000       2.497252        67.9537 
  51   0.0000       2.596048        70.6420 
  52   0.0000       2.639509        71.8247 
  53   0.0000       2.705049        73.6081 
  54   0.0000       2.839871        77.2768 
  55   0.0000       2.869171        78.0741 
  56   0.0000       2.889170        78.6183 
  57   0.0000       2.992722        81.4361 
  58   0.0000       3.095798        84.2410 
  59   0.0000       3.171679        86.3058 
  60   0.0000       3.299507        89.7841 
  61   0.0000       3.406982        92.7087 
  62   0.0000       3.438919        93.5777 
  63   0.0000       3.489923        94.9656 
  64   0.0000       3.611552        98.2753 
  65   0.0000       3.645425        99.1971 
  66   0.0000       3.667167        99.7887 
  67   0.0000       4.002120       108.9032 
  68   0.0000       4.225113       114.9712 
  69   0.0000       4.273385       116.2847 
  70   0.0000       4.454699       121.2185 
  71   0.0000       4.563521       124.1797 
  72   0.0000       5.346498       145.4856 
  73   0.0000       5.425897       147.6462 
  74   0.0000       5.551590       151.0664 
  75   0.0000       5.826027       158.5342 
  76   0.0000       5.831983       158.6963 
  77   0.0000       5.985231       162.8664 
  78   0.0000       6.370684       173.3551 
  79   0.0000       6.530310       177.6988 
  80   0.0000       6.744554       183.5287 
  81   0.0000       6.803144       185.1230 
  82   0.0000       7.038912       191.5385 
  83   0.0000       7.212648       196.2661 
  84   0.0000      22.406101       609.7010 
  85   0.0000      43.664359      1188.1676 

                    ********************************
                    * MULLIKEN POPULATION ANALYSIS *
                    ********************************

-----------------------
MULLIKEN ATOMIC CHARGES
-----------------------
   0 C :   -0.151350
   1 O :   -0.477360
   2 H :    0.313281
   3 H :    0.098608
   4 H :    0.118166
   5 H :    0.098656
Sum of atomic charges:    0.0000000

--------------------------------
MULLIKEN REDUCED ORBITAL CHARGES
--------------------------------
  0 C s       :     3.222884  s :     3.222884
      pz      :     1.047624  p :     2.826762
      px      :     0.702168
      py      :     1.076970
      dz2     :     0.011152  d :     0.094287
      dxz     :     0.032595
      dyz     :     0.002610
      dx2y2   :     0.012637
      dxy     :     0.035294
      f0      :     0.001358  f :     0.007416
      f+1     :     0.000952
      f-1     :     0.000176
      f+2     :     0.001469
      f-2     :     0.000114
      f+3     :     0.001361
      f-3     :     0.001985
  1 O s       :     3.793885  s :     3.793885
      pz      :     1.762153  p :     4.651164
      px      :     1.312686
      py      :     1.576326
      dz2     :     0.003147  d :     0.030633
      dxz     :     0.006431
      dyz     :     0.005803
      dx2y2   :     0.009019
      dxy     :     0.006234
      f0      :     0.000271  f :     0.001678
      f+1     :     0.000235
      f-1     :     0.000086
      f+2     :     0.000288
      f-2     :     0.000229
      f+3     :     0.000366
      f-3     :     0.000203
  2 H s       :     0.639383  s :     0.639383
      pz      :     0.016900  p :     0.047336
      px      :     0.012594
      py      :     0.017843
  3 H s       :     0.882014  s :     0.882014
      pz      :     0.012072  p :     0.019378
      px      :     0.003014
      py      :     0.004293
  4 H s       :     0.861603  s :     0.861603
      pz      :     0.006300  p :     0.020232
      px      :     0.004199
      py      :     0.009733
  5 H s       :     0.881988  s :     0.881988
      pz      :     0.004927  p :     0.019356
      px      :     0.005001
      py      :     0.009428


                     *******************************
                     * LOEWDIN POPULATION ANALYSIS *
                     *******************************

----------------------
LOEWDIN ATOMIC CHARGES
----------------------
   0 C :   -0.385861
   1 O :   -0.077123
   2 H :    0.167622
   3 H :    0.093393
   4 H :    0.108706
   5 H :    0.093263

-------------------------------
LOEWDIN REDUCED ORBITAL CHARGES
-------------------------------
  0 C s       :     2.862806  s :     2.862806
      pz      :     1.096754  p :     3.052755
      px      :     0.846171
      py      :     1.109829
      dz2     :     0.072542  d :     0.413321
      dxz     :     0.114259
      dyz     :     0.020546
      dx2y2   :     0.082056
      dxy     :     0.123917
      f0      :     0.007851  f :     0.056979
      f+1     :     0.007172
      f-1     :     0.000863
      f+2     :     0.012529
      f-2     :     0.004778
      f+3     :     0.011710
      f-3     :     0.012077
  1 O s       :     3.368177  s :     3.368177
      pz      :     1.701008  p :     4.632762
      px      :     1.380948
      py      :     1.550806
      dz2     :     0.006154  d :     0.071547
      dxz     :     0.017790
      dyz     :     0.007990
      dx2y2   :     0.019429
      dxy     :     0.020185
      f0      :     0.000485  f :     0.004637
      f+1     :     0.000622
      f-1     :     0.000069
      f+2     :     0.001051
      f-2     :     0.000546
      f+3     :     0.000894
      f-3     :     0.000970
  2 H s       :     0.674630  s :     0.674630
      pz      :     0.055115  p :     0.157749
      px      :     0.033468
      py      :     0.069165
  3 H s       :     0.846783  s :     0.846783
      pz      :     0.036164  p :     0.059824
      px      :     0.009718
      py      :     0.013942
  4 H s       :     0.831699  s :     0.831699
      pz      :     0.019205  p :     0.059596
      px      :     0.011611
      py      :     0.028779
  5 H s       :     0.846878  s :     0.846878
      pz      :     0.015602  p :     0.059858
      px      :     0.015300
      py      :     0.028956


                      *****************************
                      * MAYER POPULATION ANALYSIS *
                      *****************************

  NA   - Mulliken gross atomic population
  ZA   - Total nuclear charge
  QA   - Mulliken gross atomic charge
  VA   - Mayer's total valence
  BVA  - Mayer's bonded valence
  FA   - Mayer's free valence

  ATOM       NA         ZA         QA         VA         BVA        FA
  0 C      6.1513     6.0000    -0.1513     3.9351     3.9351    -0.0000
  1 O      8.4774     8.0000    -0.4774     1.8885     1.8885     0.0000
  2 H      0.6867     1.0000     0.3133     0.9132     0.9132    -0.0000
  3 H      0.9014     1.0000     0.0986     0.9596     0.9596     0.0000
  4 H      0.8818     1.0000     0.1182     0.9599     0.9599    -0.0000
  5 H      0.9013     1.0000     0.0987     0.9592     0.9592    -0.0000

  Mayer bond orders larger than 0.1
B(  0-C ,  1-O ) :   0.9992 B(  0-C ,  3-H ) :   0.9758 B(  0-C ,  4-H ) :   0.9751 
B(  0-C ,  5-H ) :   0.9748 B(  1-O ,  2-H ) :   0.8998 

-------
TIMINGS
-------

Total SCF time: 0 days 0 hours 0 min 8 sec 

Total time                  ....       8.709 sec
Sum of individual times     ....       8.339 sec  ( 95.7%)

Fock matrix formation       ....       6.770 sec  ( 77.7%)
  XC integration            ....       1.934 sec  ( 28.6% of F)
    Basis function eval.    ....       0.412 sec  ( 21.3% of XC)
    Density eval.           ....       0.271 sec  ( 14.0% of XC)
    XC-Functional eval.     ....       0.665 sec  ( 34.4% of XC)
    XC-Potential eval.      ....       0.275 sec  ( 14.2% of XC)
Diagonalization             ....       0.023 sec  (  0.3%)
Density matrix formation    ....       0.002 sec  (  0.0%)
Population analysis         ....       0.011 sec  (  0.1%)
Initial guess               ....       0.163 sec  (  1.9%)
Orbital Transformation      ....       0.000 sec  (  0.0%)
Orbital Orthonormalization  ....       0.000 sec  (  0.0%)
DIIS solution               ....       0.051 sec  (  0.6%)
SOSCF solution              ....       0.017 sec  (  0.2%)
Grid generation             ....       1.302 sec  ( 14.9%)


-------------------------------------------------------------------------------
                          DFT DISPERSION CORRECTION                            
                                                                               
                              DFTD3 V3.1  Rev 1                                
                              USING zero damping                               
-------------------------------------------------------------------------------
The omegaB97X-D3 functional is recognized. Fit by Chai et al.
Active option DFTDOPT                   ...         3   

molecular C6(AA) [au] = 208.717573 


            DFT-D V3
 parameters
 s6 scaling factor         :     1.0000 
 rs6 scaling factor        :     1.2810 
 s8 scaling factor         :     1.0000 
 rs8 scaling factor        :     1.0940 
 Damping factor alpha6     :    14.0000 
 Damping factor alpha8     :    16.0000 
 ad hoc parameters k1-k3   :    16.0000     1.3333    -4.0000 

 Edisp/kcal,au: -0.150565945942  -0.000239942082 
 E6   /kcal   :  -0.029679066 
 E8   /kcal   :  -0.120886880 
 % E8         :  80.288327485 

-------------------------   ----------------
Dispersion correction           -0.000239942
-------------------------   ----------------


-------------------------   --------------------
FINAL SINGLE POINT ENERGY      -115.738033915554
-------------------------   --------------------



           ************************************************************
           *        Program running with 4 parallel MPI-processes     *
           *              working on a common directory               *
           ************************************************************
------------------------------------------------------------------------------
                         ORCA SCF GRADIENT CALCULATION
------------------------------------------------------------------------------

Gradient of the Kohn-Sham DFT energy:
Kohn-Sham wavefunction type      ... RKS
Hartree-Fock exchange scaling    ...    0.196
Number of operators              ...    1
Number of atoms                  ...    6
Basis set dimensions             ...   86
Integral neglect threshold       ... 2.5e-11
Integral primitive cutoff        ... 2.5e-12

Nuclear repulsion gradient       ... done
One Electron Gradient            ... done
Pre-screening matrix             ... done
Starting the two electron gradient:
Two electron gradient done
Exchange-correlation gradient    ... done
Dispersion correction            ... done

------------------
CARTESIAN GRADIENT
------------------

   1   C   :    0.000279364    0.001152242    0.000380840
   2   O   :   -0.000652649   -0.003205706    0.001248354
   3   H   :    0.000821129    0.002277873   -0.001431789
   4   H   :    0.000147930    0.000081315    0.000023296
   5   H   :    0.000198804    0.000049893    0.000102736
   6   H   :   -0.000794579   -0.000355617   -0.000323438

Difference to translation invariance:
           :    0.0000000000   -0.0000000000   -0.0000000000

Norm of the cartesian gradient     ...    0.0047611603
RMS gradient                       ...    0.0011222162
MAX gradient                       ...    0.0032057059

-------
TIMINGS
-------

Total SCF gradient time            ...        1.874 sec

One electron gradient       ....       0.006 sec  (  0.3%)
Prescreening matrices       ....       0.024 sec  (  1.3%)
Two electron gradient       ....       0.835 sec  ( 44.6%)
XC gradient                 ....       0.683 sec  ( 36.4%)
------------------------------------------------------------------------------
                         ORCA GEOMETRY RELAXATION STEP
------------------------------------------------------------------------------

Reading the OPT-File                    .... done
Getting information on internals        .... done
Copying old internal coords+grads       .... done
Making the new internal coordinates     .... (new redundants).... done
Validating the new internal coordinates .... (new redundants).... done
Calculating the B-matrix                .... done
Calculating the G,G- and P matrices     .... done
Transforming gradient to internals      .... done
Projecting the internal gradient        .... done
Number of atoms                         ....   6
Number of internal coordinates          ....  15
Current Energy                          ....  -115.738033916 Eh
Current gradient norm                   ....     0.004761160 Eh/bohr
Maximum allowed component of the step   ....  0.300
Current trust radius                    ....  0.300
Evaluating the initial hessian          ....  (Almloef) done
Projecting the Hessian                  .... done
Forming the augmented Hessian           .... done
Diagonalizing the augmented Hessian     .... done
Last element of RFO vector              ....  0.999983056
Lowest eigenvalues of augmented Hessian:
 -0.000016446  0.021176558  0.182719670  0.198146338  0.317827312
Length of the computed step             ....  0.005821440
The final length of the internal step   ....  0.005821440
Converting the step to cartesian space:
 Initial RMS(Int)=    0.0015030894
Transforming coordinates:
 Iter   0:  RMS(Cart)=    0.0009949558 RMS(Int)=    0.0015032136
 Iter   1:  RMS(Cart)=    0.0000010892 RMS(Int)=    0.0000010621
 Iter   2:  RMS(Cart)=    0.0000000025 RMS(Int)=    0.0000000031
Imposing constraints:
 Iter   0:  RMS(Cart)=    0.0000000150 RMS(Int)=    0.0000000121
CONVERGED
done
Storing new coordinates                 .... done

                                .--------------------.
          ----------------------|Geometry convergence|-------------------------
          Item                value                   Tolerance       Converged
          ---------------------------------------------------------------------
          RMS gradient        0.0007434400            0.0001000000      NO
          MAX gradient        0.0027959542            0.0003000000      NO
          RMS step            0.0015030894            0.0020000000      YES
          MAX step            0.0053835707            0.0040000000      NO
          ........................................................
          Max(Bonds)      0.0028      Max(Angles)    0.09
          Max(Dihed)        0.04      Max(Improp)    0.00
          ---------------------------------------------------------------------

The optimization has not yet converged - more geometry cycles are needed


    ---------------------------------------------------------------------------
                         Redundant Internal Coordinates
                            (Angstroem and degrees)

        Definition                    Value    dE/dq     Step     New-Value
    ----------------------------------------------------------------------------
     1. B(O   1,C   0)                1.4116  0.000099 -0.0001    1.4115   
     2. B(H   2,O   1)                0.9603  0.002796 -0.0028    0.9575   
     3. B(H   3,C   0)                1.0960 -0.000060  0.0001    1.0961   
     4. B(H   4,C   0)                1.0895 -0.000062  0.0001    1.0896   
     5. B(H   5,C   0)                1.0960 -0.000008  0.0000    1.0961   
     6. A(O   1,C   0,H   4)          106.90 -0.000530    0.05    106.94   
     7. A(O   1,C   0,H   3)          112.09 -0.000470    0.02    112.12   
     8. A(O   1,C   0,H   5)          112.73  0.001553    0.00    112.73 C 
     9. A(H   3,C   0,H   5)          108.63 -0.000398   -0.01    108.62   
    10. A(H   4,C   0,H   5)          108.10 -0.000313   -0.01    108.09   
    11. A(H   3,C   0,H   4)          108.22  0.000117   -0.05    108.17   
    12. A(C   0,O   1,H   2)          108.57 -0.000547    0.09    108.66   
    13. D(H   2,O   1,C   0,H   5)    -61.02 -0.000029   -0.03    -61.04   
    14. D(H   2,O   1,C   0,H   3)     61.93  0.000259   -0.02     61.90   
    15. D(H   2,O   1,C   0,H   4)   -179.65 -0.000196   -0.04   -179.69   
    ----------------------------------------------------------------------------

         *************************************************************
         *                GEOMETRY OPTIMIZATION CYCLE   2            *
         *************************************************************
---------------------------------
CARTESIAN COORDINATES (ANGSTROEM)
---------------------------------
  C      3.011601   -1.180652    0.598445
  O      4.395639   -1.132304    0.871168
  H      4.772029   -0.380370    0.413249
  H      2.805982   -1.319099   -0.469298
  H      2.611947   -2.040243    1.135694
  H      2.480399   -0.286359    0.944008

----------------------------
CARTESIAN COORDINATES (A.U.)
----------------------------
  NO LB      ZA    FRAG     MASS         X           Y           Z
   0 C     6.0000    0    12.011    5.691101   -2.231109    1.130897
   1 O     8.0000    0    15.999    8.306555   -2.139744    1.646268
   2 H     1.0000    0     1.008    9.017828   -0.718795    0.780928
   3 H     1.0000    0     1.008    5.302538   -2.492735   -0.886844
   4 H     1.0000    0     1.008    4.935864   -3.855501    2.146150
   5 H     1.0000    0     1.008    4.687274   -0.541139    1.783916

--------------------------------
INTERNAL COORDINATES (ANGSTROEM)
--------------------------------
 C      0   0   0     0.000000000000     0.00000000     0.00000000
 O      1   0   0     1.411480896714     0.00000000     0.00000000
 H      2   1   0     0.957477604863   108.66025977     0.00000000
 H      1   2   3     1.096139267229   112.11552710    61.90216466
 H      1   2   3     1.089613232729   106.94228762   180.30566711
 H      1   2   3     1.096061032123   112.72812197   298.95670054

---------------------------
INTERNAL COORDINATES (A.U.)
---------------------------
 C      0   0   0     0.000000000000     0.00000000     0.00000000
 O      1   0   0     2.667312338052     0.00000000     0.00000000
 H      2   1   0     1.809370452553   108.66025977     0.00000000
 H      1   2   3     2.071403019700   112.11552710    61.90216466
 H      1   2   3     2.059070601754   106.94228762   180.30566711
 H      1   2   3     2.071255176776   112.72812197   298.95670054



           ************************************************************
           *        Program running with 4 parallel MPI-processes     *
           *              working on a common directory               *
           ************************************************************


           ************************************************************
           *        Program running with 4 parallel MPI-processes     *
           *              working on a common directory               *
           ************************************************************

Diagonalization of the overlap matrix:
Smallest eigenvalue                        ... 1.650e-03
Time for diagonalization                   ...    0.002 sec
Threshold for overlap eigenvalues          ... 1.000e-08
Number of eigenvalues below threshold      ... 0
Time for construction of square roots      ...    0.004 sec
Total time needed                          ...    0.006 sec

-------------------
DFT GRID GENERATION
-------------------

General Integration Accuracy     IntAcc      ...  5.010
Radial Grid Type                 RadialGrid  ... Gauss-Chebyshev
Angular Grid (max. acc.)         AngularGrid ... Lebedev-434
Angular grid pruning method      GridPruning ... 3 (G Style)
Weight generation scheme         WeightScheme... Becke
Basis function cutoff            BFCut       ...    1.0000e-11
Integration weight cutoff        WCut        ...    1.0000e-14
Grids for H and He will be reduced by one unit

# of grid points (after initial pruning)     ...  48308 (   0.0 sec)
# of grid points (after weights+screening)   ...  46676 (   0.0 sec)
nearest neighbour list constructed           ...    0.0 sec
Grid point re-assignment to atoms done       ...    0.0 sec
Grid point division into batches done        ...    0.3 sec
Reduced shell lists constructed in    0.3 sec

Total number of grid points                  ...    46676
Total number of batches                      ...      733
Average number of points per batch           ...       63
Average number of grid points per atom       ...     7779
Average number of shells per batch           ...    33.12 (87.16%)
Average number of basis functions per batch  ...    76.83 (89.33%)
Average number of large shells per batch     ...    30.62 (92.46%)
Average number of large basis fcns per batch ...    72.30 (94.10%)
Maximum spatial batch extension              ...  15.76, 14.98, 16.58 au
Average spatial batch extension              ...   0.41,  0.42,  0.43 au

Time for grid setup =    0.387 sec

--------------
SCF ITERATIONS
--------------
ITER       Energy         Delta-E        Max-DP      RMS-DP      [F,P]     Damp
               ***  Starting incremental Fock matrix formation  ***
                      *** Initiating the SOSCF procedure ***
                      *** Re-Reading the Fockian *** 
                      *** Removing any level shift *** 
ITER      Energy       Delta-E        Grad      Rot      Max-DP    RMS-DP
  0   -115.73769210 -115.7376920952  0.000544  0.000544  0.000411  0.000017
               *** Restarting incremental Fock matrix formation ***
  1   -115.73769446  -0.0000023692  0.000155  0.000159  0.000234  0.000010
  2   -115.73769466  -0.0000001982  0.000132  0.000088  0.000131  0.000005
  3   -115.73769484  -0.0000001784  0.000010  0.000021  0.000026  0.000001
                 **** Energy Check signals convergence ****
              ***Rediagonalizing the Fockian in SOSCF/NRSCF***

               *****************************************************
               *                     SUCCESS                       *
               *           SCF CONVERGED AFTER   4 CYCLES          *
               *****************************************************

Setting up the final grid:

General Integration Accuracy     IntAcc      ...  5.340
Radial Grid Type                 RadialGrid  ... Gauss-Chebyshev
Angular Grid (max. acc.)         AngularGrid ... Lebedev-590
Angular grid pruning method      GridPruning ... 3 (G Style)
Weight generation scheme         WeightScheme... Becke
Basis function cutoff            BFCut       ...    1.0000e-11
Integration weight cutoff        WCut        ...    1.0000e-14
Grids for H and He will be reduced by one unit

# of grid points (after initial pruning)     ...  77324 (   0.0 sec)
# of grid points (after weights+screening)   ...  74515 (   0.0 sec)
nearest neighbour list constructed           ...    0.0 sec
Grid point re-assignment to atoms done       ...    0.0 sec
Grid point division into batches done        ...    0.8 sec
Reduced shell lists constructed in    0.8 sec

Total number of grid points                  ...    74515
Total number of batches                      ...     1168
Average number of points per batch           ...       63
Average number of grid points per atom       ...    12419
Average number of shells per batch           ...    32.93 (86.65%)
Average number of basis functions per batch  ...    76.37 (88.80%)
Average number of large shells per batch     ...    30.34 (92.14%)
Average number of large basis fcns per batch ...    71.65 (93.81%)
Maximum spatial batch extension              ...  13.18, 15.65, 15.48 au
Average spatial batch extension              ...   0.34,  0.36,  0.37 au

Final grid set up in    0.9 sec
Final integration                            ... done (   0.2 sec)
Change in XC energy                          ...    -0.000107488
Integrated number of electrons               ...    18.000000739
Previous integrated no of electrons          ...    18.000002259
Total Energy       :         -115.73780233 Eh           -3149.38571 eV
  Last Energy change         ...   -1.9971e-09  Tolerance :   1.0000e-08
  Last MAX-Density change    ...    1.1608e-05  Tolerance :   1.0000e-07
             **** THE GBW FILE WAS UPDATED (0_geo_opt.gbw) ****
             **** DENSITY FILE WAS UPDATED (0_geo_opt.scfp.tmp) ****
             **** ENERGY FILE WAS UPDATED (0_geo_opt.en.tmp) ****
Total SCF time: 0 days 0 hours 0 min 4 sec 


-------------------------------------------------------------------------------
                          DFT DISPERSION CORRECTION                            
                                                                               
                              DFTD3 V3.1  Rev 1                                
                              USING zero damping                               
-------------------------------------------------------------------------------
-------------------------   ----------------
Dispersion correction           -0.000239984
-------------------------   ----------------


-------------------------   --------------------
FINAL SINGLE POINT ENERGY      -115.738042315414
-------------------------   --------------------



           ************************************************************
           *        Program running with 4 parallel MPI-processes     *
           *              working on a common directory               *
           ************************************************************
------------------------------------------------------------------------------
                         ORCA SCF GRADIENT CALCULATION
------------------------------------------------------------------------------

Gradient of the Kohn-Sham DFT energy:
Kohn-Sham wavefunction type      ... RKS
Hartree-Fock exchange scaling    ...    0.196
Number of operators              ...    1
Number of atoms                  ...    6
Basis set dimensions             ...   86
Integral neglect threshold       ... 2.5e-11
Integral primitive cutoff        ... 2.5e-12

Nuclear repulsion gradient       ... done
One Electron Gradient            ... done
Pre-screening matrix             ... done
Starting the two electron gradient:
Two electron gradient done
Exchange-correlation gradient    ... done
Dispersion correction            ... done

------------------
CARTESIAN GRADIENT
------------------

   1   C   :    0.000390279    0.001141739    0.000455540
   2   O   :    0.000480785   -0.000804300   -0.000191776
   3   H   :   -0.000218716   -0.000018414   -0.000013172
   4   H   :    0.000070196    0.000042222   -0.000002488
   5   H   :    0.000088003    0.000000249    0.000075200
   6   H   :   -0.000810547   -0.000361497   -0.000323304

Difference to translation invariance:
           :   -0.0000000000   -0.0000000000    0.0000000000

Norm of the cartesian gradient     ...    0.0018811942
RMS gradient                       ...    0.0004434017
MAX gradient                       ...    0.0011417394

-------
TIMINGS
-------

Total SCF gradient time            ...        1.590 sec

One electron gradient       ....       0.008 sec  (  0.5%)
Prescreening matrices       ....       0.024 sec  (  1.5%)
Two electron gradient       ....       0.840 sec  ( 52.8%)
XC gradient                 ....       0.406 sec  ( 25.5%)
------------------------------------------------------------------------------
                         ORCA GEOMETRY RELAXATION STEP
------------------------------------------------------------------------------

Reading the OPT-File                    .... done
Getting information on internals        .... done
Copying old internal coords+grads       .... done
Making the new internal coordinates     .... (new redundants).... done
Validating the new internal coordinates .... (new redundants).... done
Calculating the B-matrix                .... done
Calculating the G,G- and P matrices     .... done
Transforming gradient to internals      .... done
Projecting the internal gradient        .... done
Number of atoms                         ....   6
Number of internal coordinates          ....  15
Current Energy                          ....  -115.738042315 Eh
Current gradient norm                   ....     0.001881194 Eh/bohr
Maximum allowed component of the step   ....  0.300
Current trust radius                    ....  0.300
Updating the Hessian (BFGS)             .... done
Forming the augmented Hessian           .... done
Diagonalizing the augmented Hessian     .... done
Last element of RFO vector              ....  0.999998697
Lowest eigenvalues of augmented Hessian:
 -0.000000617  0.021132264  0.182719580  0.197565963  0.297246643
Length of the computed step             ....  0.001614423
The final length of the internal step   ....  0.001614423
Converting the step to cartesian space:
 Initial RMS(Int)=    0.0004168422
Transforming coordinates:
 Iter   0:  RMS(Cart)=    0.0003820149 RMS(Int)=    0.0004169082
 Iter   1:  RMS(Cart)=    0.0000001894 RMS(Int)=    0.0000002483
 Iter   2:  RMS(Cart)=    0.0000000002 RMS(Int)=    0.0000000001
Imposing constraints:
 Iter   0:  RMS(Cart)=    0.0000000241 RMS(Int)=    0.0000000195
CONVERGED
done
Storing new coordinates                 .... done

                                .--------------------.
          ----------------------|Geometry convergence|-------------------------
          Item                value                   Tolerance       Converged
          ---------------------------------------------------------------------
          Energy change      -0.0000083999            0.0000050000      NO
          RMS gradient        0.0001195008            0.0001000000      NO
          MAX gradient        0.0003570950            0.0003000000      NO
          RMS step            0.0004168422            0.0020000000      YES
          MAX step            0.0010734503            0.0040000000      YES
          ........................................................
          Max(Bonds)      0.0002      Max(Angles)    0.06
          Max(Dihed)        0.04      Max(Improp)    0.00
          ---------------------------------------------------------------------

       The step convergence is overachieved with 
       reasonable convergence on the gradient
       Convergence will therefore be signaled now


                    ***********************HURRAY********************
                    ***        THE OPTIMIZATION HAS CONVERGED     ***
                    *************************************************


    ---------------------------------------------------------------------------
                         Redundant Internal Coordinates

                          --- Optimized Parameters ---  
                            (Angstroem and degrees)

        Definition                    OldVal   dE/dq     Step     FinalVal
    ----------------------------------------------------------------------------
     1. B(O   1,C   0)                1.4115  0.000189 -0.0002    1.4113   
     2. B(H   2,O   1)                0.9575 -0.000095 -0.0000    0.9575   
     3. B(H   3,C   0)                1.0961 -0.000016  0.0000    1.0962   
     4. B(H   4,C   0)                1.0896  0.000004 -0.0000    1.0896   
     5. B(H   5,C   0)                1.0961 -0.000004  0.0000    1.0961   
     6. A(O   1,C   0,H   4)          106.94 -0.000405    0.03    106.97   
     7. A(O   1,C   0,H   3)          112.12 -0.000396    0.01    112.13   
     8. A(O   1,C   0,H   5)          112.73  0.001542   -0.00    112.73 C 
     9. A(H   3,C   0,H   5)          108.62 -0.000435   -0.01    108.61   
    10. A(H   4,C   0,H   5)          108.09 -0.000363   -0.01    108.08   
    11. A(H   3,C   0,H   4)          108.17  0.000007   -0.03    108.14   
    12. A(C   0,O   1,H   2)          108.66 -0.000357    0.06    108.72   
    13. D(H   2,O   1,C   0,H   5)    -61.04 -0.000025   -0.03    -61.07   
    14. D(H   2,O   1,C   0,H   3)     61.90  0.000263   -0.03     61.88   
    15. D(H   2,O   1,C   0,H   4)   -179.69 -0.000207   -0.04   -179.73   
    ----------------------------------------------------------------------------
                 *******************************************************
                 *** FINAL ENERGY EVALUATION AT THE STATIONARY POINT ***
                 ***               (AFTER    2 CYCLES)               ***
                 *******************************************************
---------------------------------
CARTESIAN COORDINATES (ANGSTROEM)
---------------------------------
  C      3.011643   -1.180651    0.598516
  O      4.395482   -1.131951    0.871144
  H      4.772666   -0.380428    0.413220
  H      2.805767   -1.319216   -0.469191
  H      2.611811   -2.040310    1.135517
  H      2.480228   -0.286469    0.944059

----------------------------
CARTESIAN COORDINATES (A.U.)
----------------------------
  NO LB      ZA    FRAG     MASS         X           Y           Z
   0 C     6.0000    0    12.011    5.691181   -2.231108    1.131031
   1 O     8.0000    0    15.999    8.306257   -2.139078    1.646224
   2 H     1.0000    0     1.008    9.019031   -0.718904    0.780872
   3 H     1.0000    0     1.008    5.302132   -2.492957   -0.886642
   4 H     1.0000    0     1.008    4.935608   -3.855627    2.145817
   5 H     1.0000    0     1.008    4.686951   -0.541348    1.784014

--------------------------------
INTERNAL COORDINATES (ANGSTROEM)
--------------------------------
 C      0   0   0     0.000000000000     0.00000000     0.00000000
 O      1   0   0     1.411278976320     0.00000000     0.00000000
 H      2   1   0     0.957470635587   108.72176394     0.00000000
 H      1   2   3     1.096166902313   112.12865089    61.87654568
 H      1   2   3     1.089609896119   106.96781610   180.27011833
 H      1   2   3     1.096067765359   112.72812154   298.93008924

---------------------------
INTERNAL COORDINATES (A.U.)
---------------------------
 C      0   0   0     0.000000000000     0.00000000     0.00000000
 O      1   0   0     2.666930763806     0.00000000     0.00000000
 H      2   1   0     1.809357282532   108.72176394     0.00000000
 H      1   2   3     2.071455242441   112.12865089    61.87654568
 H      1   2   3     2.059064296475   106.96781610   180.27011833
 H      1   2   3     2.071267900748   112.72812154   298.93008924

---------------------
BASIS SET INFORMATION
---------------------
There are 3 groups of distinct atoms

 Group   1 Type C   : 11s6p2d1f contracted to 5s3p2d1f pattern {62111/411/11/1}
 Group   2 Type O   : 11s6p2d1f contracted to 5s3p2d1f pattern {62111/411/11/1}
 Group   3 Type H   : 5s1p contracted to 3s1p pattern {311/1}

Atom   0C    basis set group =>   1
Atom   1O    basis set group =>   2
Atom   2H    basis set group =>   3
Atom   3H    basis set group =>   3
Atom   4H    basis set group =>   3
Atom   5H    basis set group =>   3


           ************************************************************
           *        Program running with 4 parallel MPI-processes     *
           *              working on a common directory               *
           ************************************************************
------------------------------------------------------------------------------
                           ORCA GTO INTEGRAL CALCULATION
------------------------------------------------------------------------------

                         BASIS SET STATISTICS AND STARTUP INFO

 # of primitive gaussian shells          ...   64
 # of primitive gaussian functions       ...  124
 # of contracted shells                  ...   38
 # of contracted basis functions         ...   86
 Highest angular momentum                ...    3
 Maximum contraction depth               ...    6
 Integral package used                   ... LIBINT
 Integral threshhold            Thresh   ...  2.500e-11
 Primitive cut-off              TCut     ...  2.500e-12


------------------------------ INTEGRAL EVALUATION ----------------------------


 * One electron integrals 
 Pre-screening matrix                    ... done
 Shell pair data                         ... done (   0.000 sec)



           ************************************************************
           *        Program running with 4 parallel MPI-processes     *
           *              working on a common directory               *
           ************************************************************
-------------------------------------------------------------------------------
                                 ORCA SCF
-------------------------------------------------------------------------------

------------
SCF SETTINGS
------------
Hamiltonian:
 Density Functional     Method          .... DFT(GTOs)
 Exchange Functional    Exchange        .... WB97X-D3
 Correlation Functional Correlation     .... WB97X-D3
 Gradients option       PostSCFGGA      .... off
 Hybrid DFT is turned on
   Fraction HF Exchange ScalHFX         ....  0.195728
   Scaling of DF-GGA-X  ScalDFX         ....  0.000000
   Scaling of DF-GGA-C  ScalDFC         ....  1.000000
   Scaling of DF-LDA-C  ScalLDAC        ....  1.000000
   Perturbative correction              ....  0.000000
   Density functional embedding theory  .... OFF
 Long-range corrected/Screened/Range-Separated Hybrid DFT is turned on
   Amount of maximum screened exact exchange              ....  0.804272
   Range separation parameter mu (erf(mu*r12)/r12)        ....  0.250000


General Settings:
 Integral files         IntName         .... 0_geo_opt
 Hartree-Fock type      HFTyp           .... RHF
 Total Charge           Charge          ....    0
 Multiplicity           Mult            ....    1
 Number of Electrons    NEL             ....   18
 Basis Dimension        Dim             ....   86
 Nuclear Repulsion      ENuc            ....     40.4390429821 Eh

Convergence Acceleration:
 DIIS                   CNVDIIS         .... on
   Start iteration      DIISMaxIt       ....    12
   Startup error        DIISStart       ....  0.200000
   # of expansion vecs  DIISMaxEq       ....     5
   Bias factor          DIISBfac        ....   1.050
   Max. coefficient     DIISMaxC        ....  10.000
 Newton-Raphson         CNVNR           .... off
 SOSCF                  CNVSOSCF        .... on
   Start iteration      SOSCFMaxIt      ....   150
   Startup grad/error   SOSCFStart      ....  0.003300
 Level Shifting         CNVShift        .... on
   Level shift para.    LevelShift      ....    0.2500
   Turn off err/grad.   ShiftErr        ....    0.0010
 Zerner damping         CNVZerner       .... off
 Static damping         CNVDamp         .... on
   Fraction old density DampFac         ....    0.7000
   Max. Damping (<1)    DampMax         ....    0.9800
   Min. Damping (>=0)   DampMin         ....    0.0000
   Turn off err/grad.   DampErr         ....    0.1000
 Fernandez-Rico         CNVRico         .... off

SCF Procedure:
 Maximum # iterations   MaxIter         ....   125
 SCF integral mode      SCFMode         .... Direct
   Integral package                     .... LIBINT
 Reset frequency        DirectResetFreq ....    20
 Integral Threshold     Thresh          ....  2.500e-11 Eh
 Primitive CutOff       TCut            ....  2.500e-12 Eh

Convergence Tolerance:
 Convergence Check Mode ConvCheckMode   .... Total+1el-Energy
 Convergence forced     ConvForced      .... 0
 Energy Change          TolE            ....  1.000e-08 Eh
 1-El. energy change                    ....  1.000e-05 Eh
 Orbital Gradient       TolG            ....  1.000e-05
 Orbital Rotation angle TolX            ....  1.000e-05
 DIIS Error             TolErr          ....  5.000e-07


Diagonalization of the overlap matrix:
Smallest eigenvalue                        ... 1.650e-03
Time for diagonalization                   ...    0.002 sec
Threshold for overlap eigenvalues          ... 1.000e-08
Number of eigenvalues below threshold      ... 0
Time for construction of square roots      ...    0.003 sec
Total time needed                          ...    0.005 sec

---------------------
INITIAL GUESS: MOREAD
---------------------
Guess MOs are being read from file: 0_geo_opt.gbw
Input Geometry matches current geometry (good)
Input basis set matches current basis set (good)
MOs were renormalized
MOs were reorthogonalized (Cholesky)
                      ------------------
                      INITIAL GUESS DONE (   0.0 sec)
                      ------------------
-------------------
DFT GRID GENERATION
-------------------

General Integration Accuracy     IntAcc      ...  5.010
Radial Grid Type                 RadialGrid  ... Gauss-Chebyshev
Angular Grid (max. acc.)         AngularGrid ... Lebedev-434
Angular grid pruning method      GridPruning ... 3 (G Style)
Weight generation scheme         WeightScheme... Becke
Basis function cutoff            BFCut       ...    1.0000e-11
Integration weight cutoff        WCut        ...    1.0000e-14
Grids for H and He will be reduced by one unit

# of grid points (after initial pruning)     ...  48308 (   0.0 sec)
# of grid points (after weights+screening)   ...  46678 (   0.0 sec)
nearest neighbour list constructed           ...    0.0 sec
Grid point re-assignment to atoms done       ...    0.0 sec
Grid point division into batches done        ...    0.3 sec
Reduced shell lists constructed in    0.3 sec

Total number of grid points                  ...    46678
Total number of batches                      ...      733
Average number of points per batch           ...       63
Average number of grid points per atom       ...     7780
Average number of shells per batch           ...    33.14 (87.21%)
Average number of basis functions per batch  ...    76.85 (89.36%)
Average number of large shells per batch     ...    30.61 (92.37%)
Average number of large basis fcns per batch ...    72.28 (94.05%)
Maximum spatial batch extension              ...  15.76, 14.98, 16.58 au
Average spatial batch extension              ...   0.40,  0.42,  0.42 au

Time for grid setup =    0.376 sec

--------------
SCF ITERATIONS
--------------
ITER       Energy         Delta-E        Max-DP      RMS-DP      [F,P]     Damp
               ***  Starting incremental Fock matrix formation  ***
                      *** Initiating the SOSCF procedure ***
                      *** Re-Reading the Fockian *** 
                      *** Removing any level shift *** 
ITER      Energy       Delta-E        Grad      Rot      Max-DP    RMS-DP
  0   -115.73769495 -115.7376949491  0.000071  0.000071  0.000077  0.000004
               *** Restarting incremental Fock matrix formation ***
  1   -115.73769506  -0.0000001078  0.000028  0.000028  0.000037  0.000002
  2   -115.73769507  -0.0000000138  0.000010  0.000017  0.000027  0.000001
  3   -115.73769507  -0.0000000008  0.000009  0.000005  0.000008  0.000000
                 **** Energy Check signals convergence ****
              ***Rediagonalizing the Fockian in SOSCF/NRSCF***

               *****************************************************
               *                     SUCCESS                       *
               *           SCF CONVERGED AFTER   4 CYCLES          *
               *****************************************************

Setting up the final grid:

General Integration Accuracy     IntAcc      ...  5.340
Radial Grid Type                 RadialGrid  ... Gauss-Chebyshev
Angular Grid (max. acc.)         AngularGrid ... Lebedev-590
Angular grid pruning method      GridPruning ... 3 (G Style)
Weight generation scheme         WeightScheme... Becke
Basis function cutoff            BFCut       ...    1.0000e-11
Integration weight cutoff        WCut        ...    1.0000e-14
Grids for H and He will be reduced by one unit

# of grid points (after initial pruning)     ...  77324 (   0.0 sec)
# of grid points (after weights+screening)   ...  74515 (   0.0 sec)
nearest neighbour list constructed           ...    0.0 sec
Grid point re-assignment to atoms done       ...    0.0 sec
Grid point division into batches done        ...    0.8 sec
Reduced shell lists constructed in    0.8 sec

Total number of grid points                  ...    74515
Total number of batches                      ...     1168
Average number of points per batch           ...       63
Average number of grid points per atom       ...    12419
Average number of shells per batch           ...    32.94 (86.67%)
Average number of basis functions per batch  ...    76.37 (88.80%)
Average number of large shells per batch     ...    30.30 (92.01%)
Average number of large basis fcns per batch ...    71.53 (93.66%)
Maximum spatial batch extension              ...  13.18, 15.65, 15.48 au
Average spatial batch extension              ...   0.34,  0.37,  0.36 au

Final grid set up in    1.0 sec
Final integration                            ... done (   0.2 sec)
Change in XC energy                          ...    -0.000107556
Integrated number of electrons               ...    18.000000738
Previous integrated no of electrons          ...    18.000002250

----------------
TOTAL SCF ENERGY
----------------

Total Energy       :         -115.73780263 Eh           -3149.38572 eV

Components:
Nuclear Repulsion  :           40.43904298 Eh            1100.40230 eV
Electronic Energy  :         -156.17684561 Eh           -4249.78802 eV
One Electron Energy:         -237.29583443 Eh           -6457.14793 eV
Two Electron Energy:           81.11898882 Eh            2207.35991 eV

Virial components:
Potential Energy   :         -230.98827786 Eh           -6285.51059 eV
Kinetic Energy     :          115.25047523 Eh            3136.12487 eV
Virial Ratio       :            2.00422842


DFT components:
N(Alpha)           :        9.000000369117 electrons
N(Beta)            :        9.000000369117 electrons
N(Total)           :       18.000000738234 electrons
E(XC)              :      -10.655598151485 Eh       
DFET-embed. en.    :        0.000000000000 Eh       

---------------
SCF CONVERGENCE
---------------

  Last Energy change         ...   -8.1533e-10  Tolerance :   1.0000e-08
  Last MAX-Density change    ...    1.2973e-06  Tolerance :   1.0000e-07
  Last RMS-Density change    ...    5.3825e-08  Tolerance :   5.0000e-09
  Last Orbital Gradient      ...    4.1993e-07  Tolerance :   1.0000e-05
  Last Orbital Rotation      ...    7.8773e-07  Tolerance :   1.0000e-05

             **** THE GBW FILE WAS UPDATED (0_geo_opt.gbw) ****
             **** DENSITY FILE WAS UPDATED (0_geo_opt.scfp.tmp) ****
             **** ENERGY FILE WAS UPDATED (0_geo_opt.en.tmp) ****
----------------
ORBITAL ENERGIES
----------------

  NO   OCC          E(Eh)            E(eV) 
   0   2.0000     -19.228316      -523.2291 
   1   2.0000     -10.315098      -280.6881 
   2   2.0000      -1.137012       -30.9397 
   3   2.0000      -0.795410       -21.6442 
   4   2.0000      -0.611871       -16.6499 
   5   2.0000      -0.541557       -14.7365 
   6   2.0000      -0.526237       -14.3196 
   7   2.0000      -0.433941       -11.8081 
   8   2.0000      -0.373737       -10.1699 
   9   0.0000       0.116690         3.1753 
  10   0.0000       0.156528         4.2593 
  11   0.0000       0.202485         5.5099 
  12   0.0000       0.205242         5.5849 
  13   0.0000       0.226616         6.1665 
  14   0.0000       0.304295         8.2803 
  15   0.0000       0.313573         8.5327 
  16   0.0000       0.404480        11.0065 
  17   0.0000       0.452885        12.3236 
  18   0.0000       0.485148        13.2015 
  19   0.0000       0.535625        14.5751 
  20   0.0000       0.543689        14.7945 
  21   0.0000       0.567445        15.4410 
  22   0.0000       0.598692        16.2912 
  23   0.0000       0.603463        16.4211 
  24   0.0000       0.671341        18.2681 
  25   0.0000       0.778387        21.1810 
  26   0.0000       0.832305        22.6482 
  27   0.0000       0.860953        23.4277 
  28   0.0000       0.989907        26.9367 
  29   0.0000       1.014209        27.5980 
  30   0.0000       1.109628        30.1945 
  31   0.0000       1.382723        37.6258 
  32   0.0000       1.513375        41.1810 
  33   0.0000       1.553933        42.2847 
  34   0.0000       1.602430        43.6043 
  35   0.0000       1.613059        43.8936 
  36   0.0000       1.624887        44.2154 
  37   0.0000       1.660438        45.1828 
  38   0.0000       1.686985        45.9052 
  39   0.0000       1.775383        48.3106 
  40   0.0000       1.951575        53.1051 
  41   0.0000       2.031140        55.2701 
  42   0.0000       2.055783        55.9407 
  43   0.0000       2.093491        56.9668 
  44   0.0000       2.114387        57.5354 
  45   0.0000       2.267753        61.7087 
  46   0.0000       2.333644        63.5017 
  47   0.0000       2.345644        63.8282 
  48   0.0000       2.381012        64.7906 
  49   0.0000       2.431099        66.1536 
  50   0.0000       2.497504        67.9605 
  51   0.0000       2.596512        70.6547 
  52   0.0000       2.639774        71.8319 
  53   0.0000       2.707397        73.6720 
  54   0.0000       2.842084        77.3370 
  55   0.0000       2.869562        78.0848 
  56   0.0000       2.889616        78.6304 
  57   0.0000       2.992985        81.4433 
  58   0.0000       3.095788        84.2407 
  59   0.0000       3.172271        86.3219 
  60   0.0000       3.298626        89.7602 
  61   0.0000       3.406210        92.6877 
  62   0.0000       3.441330        93.6434 
  63   0.0000       3.490331        94.9767 
  64   0.0000       3.611389        98.2709 
  65   0.0000       3.645607        99.2020 
  66   0.0000       3.667802        99.8060 
  67   0.0000       4.005308       108.9900 
  68   0.0000       4.225007       114.9683 
  69   0.0000       4.273798       116.2960 
  70   0.0000       4.454049       121.2008 
  71   0.0000       4.564095       124.1953 
  72   0.0000       5.346242       145.4786 
  73   0.0000       5.425527       147.6361 
  74   0.0000       5.554190       151.1372 
  75   0.0000       5.826448       158.5457 
  76   0.0000       5.834428       158.7629 
  77   0.0000       5.986207       162.8930 
  78   0.0000       6.379509       173.5953 
  79   0.0000       6.530555       177.7054 
  80   0.0000       6.745088       183.5432 
  81   0.0000       6.803329       185.1280 
  82   0.0000       7.039214       191.5468 
  83   0.0000       7.215688       196.3489 
  84   0.0000      22.406630       609.7154 
  85   0.0000      43.663833      1188.1533 

                    ********************************
                    * MULLIKEN POPULATION ANALYSIS *
                    ********************************

-----------------------
MULLIKEN ATOMIC CHARGES
-----------------------
   0 C :   -0.151135
   1 O :   -0.477221
   2 H :    0.313026
   3 H :    0.098539
   4 H :    0.118179
   5 H :    0.098612
Sum of atomic charges:   -0.0000000

--------------------------------
MULLIKEN REDUCED ORBITAL CHARGES
--------------------------------
  0 C s       :     3.222713  s :     3.222713
      pz      :     1.047733  p :     2.826693
      px      :     0.702052
      py      :     1.076908
      dz2     :     0.011130  d :     0.094306
      dxz     :     0.032609
      dyz     :     0.002618
      dx2y2   :     0.012636
      dxy     :     0.035313
      f0      :     0.001358  f :     0.007423
      f+1     :     0.000952
      f-1     :     0.000176
      f+2     :     0.001470
      f-2     :     0.000115
      f+3     :     0.001364
      f-3     :     0.001988
  1 O s       :     3.792843  s :     3.792843
      pz      :     1.762134  p :     4.652094
      px      :     1.312678
      py      :     1.577281
      dz2     :     0.003146  d :     0.030600
      dxz     :     0.006436
      dyz     :     0.005795
      dx2y2   :     0.008988
      dxy     :     0.006235
      f0      :     0.000272  f :     0.001685
      f+1     :     0.000235
      f-1     :     0.000086
      f+2     :     0.000287
      f-2     :     0.000232
      f+3     :     0.000368
      f-3     :     0.000204
  2 H s       :     0.639277  s :     0.639277
      pz      :     0.017028  p :     0.047697
      px      :     0.012708
      py      :     0.017961
  3 H s       :     0.882083  s :     0.882083
      pz      :     0.012066  p :     0.019378
      px      :     0.003015
      py      :     0.004297
  4 H s       :     0.861592  s :     0.861592
      pz      :     0.006299  p :     0.020229
      px      :     0.004196
      py      :     0.009735
  5 H s       :     0.882028  s :     0.882028
      pz      :     0.004929  p :     0.019360
      px      :     0.005008
      py      :     0.009423


                     *******************************
                     * LOEWDIN POPULATION ANALYSIS *
                     *******************************

----------------------
LOEWDIN ATOMIC CHARGES
----------------------
   0 C :   -0.385747
   1 O :   -0.075534
   2 H :    0.165842
   3 H :    0.093419
   4 H :    0.108739
   5 H :    0.093281

-------------------------------
LOEWDIN REDUCED ORBITAL CHARGES
-------------------------------
  0 C s       :     2.862644  s :     2.862644
      pz      :     1.096818  p :     3.052693
      px      :     0.846115
      py      :     1.109760
      dz2     :     0.072431  d :     0.413397
      dxz     :     0.114348
      dyz     :     0.020560
      dx2y2   :     0.082052
      dxy     :     0.124006
      f0      :     0.007853  f :     0.057013
      f+1     :     0.007171
      f-1     :     0.000865
      f+2     :     0.012527
      f-2     :     0.004783
      f+3     :     0.011724
      f-3     :     0.012090
  1 O s       :     3.366187  s :     3.366187
      pz      :     1.700795  p :     4.633086
      px      :     1.380591
      py      :     1.551699
      dz2     :     0.006150  d :     0.071612
      dxz     :     0.017821
      dyz     :     0.007998
      dx2y2   :     0.019418
      dxy     :     0.020225
      f0      :     0.000487  f :     0.004649
      f+1     :     0.000622
      f-1     :     0.000069
      f+2     :     0.001052
      f-2     :     0.000553
      f+3     :     0.000897
      f-3     :     0.000969
  2 H s       :     0.675078  s :     0.675078
      pz      :     0.055628  p :     0.159079
      px      :     0.033860
      py      :     0.069591
  3 H s       :     0.846774  s :     0.846774
      pz      :     0.036146  p :     0.059808
      px      :     0.009718
      py      :     0.013944
  4 H s       :     0.831679  s :     0.831679
      pz      :     0.019198  p :     0.059583
      px      :     0.011602
      py      :     0.028783
  5 H s       :     0.846863  s :     0.846863
      pz      :     0.015605  p :     0.059856
      px      :     0.015312
      py      :     0.028939


                      *****************************
                      * MAYER POPULATION ANALYSIS *
                      *****************************

  NA   - Mulliken gross atomic population
  ZA   - Total nuclear charge
  QA   - Mulliken gross atomic charge
  VA   - Mayer's total valence
  BVA  - Mayer's bonded valence
  FA   - Mayer's free valence

  ATOM       NA         ZA         QA         VA         BVA        FA
  0 C      6.1511     6.0000    -0.1511     3.9351     3.9351    -0.0000
  1 O      8.4772     8.0000    -0.4772     1.8889     1.8889    -0.0000
  2 H      0.6870     1.0000     0.3130     0.9136     0.9136     0.0000
  3 H      0.9015     1.0000     0.0985     0.9596     0.9596     0.0000
  4 H      0.8818     1.0000     0.1182     0.9598     0.9598     0.0000
  5 H      0.9014     1.0000     0.0986     0.9592     0.9592     0.0000

  Mayer bond orders larger than 0.1
B(  0-C ,  1-O ) :   0.9991 B(  0-C ,  3-H ) :   0.9758 B(  0-C ,  4-H ) :   0.9751 
B(  0-C ,  5-H ) :   0.9748 B(  1-O ,  2-H ) :   0.9002 

-------
TIMINGS
-------

Total SCF time: 0 days 0 hours 0 min 4 sec 

Total time                  ....       4.902 sec
Sum of individual times     ....       4.577 sec  ( 93.4%)

Fock matrix formation       ....       3.215 sec  ( 65.6%)
  XC integration            ....       0.920 sec  ( 28.6% of F)
    Basis function eval.    ....       0.212 sec  ( 23.1% of XC)
    Density eval.           ....       0.130 sec  ( 14.2% of XC)
    XC-Functional eval.     ....       0.332 sec  ( 36.0% of XC)
    XC-Potential eval.      ....       0.130 sec  ( 14.1% of XC)
Diagonalization             ....       0.004 sec  (  0.1%)
Density matrix formation    ....       0.002 sec  (  0.0%)
Population analysis         ....       0.011 sec  (  0.2%)
Initial guess               ....       0.003 sec  (  0.1%)
Orbital Transformation      ....       0.000 sec  (  0.0%)
Orbital Orthonormalization  ....       0.002 sec  (  0.0%)
DIIS solution               ....       0.000 sec  (  0.0%)
SOSCF solution              ....       0.006 sec  (  0.1%)
Grid generation             ....       1.336 sec  ( 27.3%)


-------------------------------------------------------------------------------
                          DFT DISPERSION CORRECTION                            
                                                                               
                              DFTD3 V3.1  Rev 1                                
                              USING zero damping                               
-------------------------------------------------------------------------------
The omegaB97X-D3 functional is recognized. Fit by Chai et al.
Active option DFTDOPT                   ...         3   

molecular C6(AA) [au] = 208.715487 


            DFT-D V3
 parameters
 s6 scaling factor         :     1.0000 
 rs6 scaling factor        :     1.2810 
 s8 scaling factor         :     1.0000 
 rs8 scaling factor        :     1.0940 
 Damping factor alpha6     :    14.0000 
 Damping factor alpha8     :    16.0000 
 ad hoc parameters k1-k3   :    16.0000     1.3333    -4.0000 

 Edisp/kcal,au: -0.150676660412  -0.000240118517 
 E6   /kcal   :  -0.029675498 
 E8   /kcal   :  -0.121001162 
 % E8         :  80.305179261 

-------------------------   ----------------
Dispersion correction           -0.000240119
-------------------------   ----------------


-------------------------   --------------------
FINAL SINGLE POINT ENERGY      -115.738042747265
-------------------------   --------------------

                                *** OPTIMIZATION RUN DONE ***

                            ***************************************
                            *     ORCA property calculations      *
                            ***************************************

                                    ---------------------
                                    Active property flags
                                    ---------------------
   (+) Dipole Moment


------------------------------------------------------------------------------
                       ORCA ELECTRIC PROPERTIES CALCULATION
------------------------------------------------------------------------------

Dipole Moment Calculation                       ... on
Quadrupole Moment Calculation                   ... off
Polarizability Calculation                      ... off
GBWName                                         ... 0_geo_opt.gbw
Electron density file                           ... 0_geo_opt.scfp.tmp
The origin for moment calculation is the CENTER OF MASS  = ( 7.034013, -2.143769  1.366251)

-------------
DIPOLE MOMENT
-------------
                                X             Y             Z
Electronic contribution:      1.76184      -0.02885       0.41881
Nuclear contribution   :     -2.07138       0.47974      -0.81247
                        -----------------------------------------
Total Dipole Moment    :     -0.30954       0.45089      -0.39366
                        -----------------------------------------
Magnitude (a.u.)       :      0.67386
Magnitude (Debye)      :      1.71281



--------------------
Rotational spectrum 
--------------------
 
Rotational constants in cm-1:     4.297747     0.833667     0.804723 
Rotational constants in MHz : 128843.220551 24992.713710 24124.973926 

 Dipole components along the rotational axes: 
x,y,z [a.u.] :    -0.332419     0.586158    -0.000780 
x,y,z [Debye]:    -0.844943     1.489896    -0.001984 

 
------------------------------------------------------------------------------
                      ORCA CHELPG CHARGES GENERATION
------------------------------------------------------------------------------

GBW file                           ... 0_geo_opt.gbw

Reading the GBW file               ... done

Grid spacing                       ...     0.300000
Point Cut-Off                      ...     2.800000
Van-der-Waals Radii                ...        COSMO
Total charge                       ...            0


Number of points X direction       ...           26
Number of points Y direction       ...           24
Number of points Z direction       ...           24
Maximum number of possible points  ...        14976
Final number of points             ...         5951


CHELPG Charges            
--------------------------------
  0   C   :       0.095887
  1   O   :      -0.606929
  2   H   :       0.403736
  3   H   :       0.013808
  4   H   :       0.080340
  5   H   :       0.013159
--------------------------------
Total charge:     0.000000
--------------------------------

CHELPG charges calculated...

Timings for individual parts in CHELPG calculation:
Grid generation                 ...        0.001 sec (=   0.000 min)
Potential calculation           ...        0.649 sec (=   0.011 min)
Fit to the potential            ...        0.001 sec (=   0.000 min)
------------------------------------------------------------------------------


Timings for individual modules:

Sum of individual times         ...       45.568 sec (=   0.759 min)
GTO integral calculation        ...        8.979 sec (=   0.150 min)  19.7 %
SCF iterations                  ...       23.029 sec (=   0.384 min)  50.5 %
SCF Gradient evaluation         ...        9.554 sec (=   0.159 min)  21.0 %
Geometry relaxation             ...        3.307 sec (=   0.055 min)   7.3 %
CHELPG charge generation        ...        0.699 sec (=   0.012 min)   1.5 %
                             ****ORCA TERMINATED NORMALLY****
TOTAL RUN TIME: 0 days 0 hours 0 minutes 48 seconds 16 msec
