LAMMPS data file via vdw_self_gen.py, on 2021-08-05 13:24:44.540319

11000 atoms
6 atom types
10500 bonds
5 bond types
19500 angles
8 angle types
24000 dihedrals
7 dihedral types

-54.9453301175126398  54.9453301175126398 xlo xhi
-54.9453301175126398  54.9453301175126398 ylo yhi
-54.9453301175126398  54.9453301175126398 zlo zhi

Masses

1  1.007940
2  1.007940
3  1.007940
4  12.011000
5  12.011000
6  14.006740

Atoms

1         0    5   -0.1832740000000000   30.7838957645448552  28.8537655478886883 -16.3656241478162663 0 0 0
2         0    4    0.5269130000000000   30.5108907207278470  29.3884418355509496 -17.7754917475795118 0 0 0
3         0    5   -0.1832740000000000   29.1226128732448224  28.9376619693498363 -18.2322067568748167 0 0 0
4         0    6   -0.7333100000000000   30.6524298981563561  30.8487385749779968 -17.7312368927995720 0 0 0
5         0    4    0.5269130000000000   30.4574355286324767  31.5562693714253193 -19.0017862576148886 0 0 0
6         0    5   -0.1832740000000000   30.4796354784594747  33.0577472867047746 -18.7006078507598481 0 0 0
7         0    5   -0.1832740000000000   31.5298937527563652  31.2189651900587712 -20.0382909993511156 0 0 0
8         0    1    0.0285690000000000   30.6747004325840820  27.7641002080452566 -16.3343698885565729 0 0 0
9         0    1    0.0285690000000000   30.0903743190272372  29.2811937023538320 -15.6322689581041629 0 0 0
10        0    1    0.0285690000000000   31.8046528786580431  29.0913171497359073 -16.0454245615468096 0 0 0
11        0    2   -0.1057620000000000   31.2650909793244267  28.9543681270376219 -18.4416262711634040 0 0 0
12        0    1    0.0285690000000000   28.3319516429364349  29.4200602143955230 -17.6467934356529028 0 0 0
13        0    1    0.0285690000000000   29.0093906929719196  27.8540101280926855 -18.1167962160467013 0 0 0
14        0    1    0.0285690000000000   28.9542015024409061  29.1654468006919245 -19.2894682107708739 0 0 0
15        0    3    0.2812760000000000   31.5657305299787510  31.0882331696822085 -17.3475940618743998 0 0 0
16        0    2   -0.1057620000000000   29.4699958307815102  31.3319455249576464 -19.4179273821314879 0 0 0
17        0    1    0.0285690000000000   31.4441238721168510  33.3746090153937089 -18.2878089395543206 0 0 0
18        0    1    0.0285690000000000   29.6979316348806321  33.3238540617953305 -17.9798064863154039 0 0 0
19        0    1    0.0285690000000000   30.2973317387232655  33.6374082553065747 -19.6120748606169322 0 0 0
20        0    1    0.0285690000000000   32.5384042764689880  31.3665025488811402 -19.6359832479808389 0 0 0
21        0    1    0.0285690000000000   31.4273852402522778  31.8578887419943442 -20.9223707616724965 0 0 0
22        0    1    0.0285690000000000   31.4459751819315514  30.1815073452790266 -20.3768629269760879 0 0 0
23        1    5   -0.1832740000000000   31.5317598200571325  7.2939300862588414   16.2573439357686169 0 0 0
24        1    4    0.5269130000000000   30.4940096811485404  6.8216041743537037   17.2811212638718388 0 0 0
25        1    5   -0.1832740000000000   29.3426004499789812  6.1236382451247051   16.5557201242855854 0 0 0
26        1    6   -0.7333100000000000   31.1814761763988244  5.9464529425506987   18.2381784917751482 0 0 0
27        1    4    0.5269130000000000   30.3596386841306192  5.4075623268010169   19.3277189274907037 0 0 0
28        1    5   -0.1832740000000000   31.2190452550610544  4.4005146155644308   20.0977270142889815 0 0 0
29        1    5   -0.1832740000000000   29.8527072440543968  6.4918510374852110   20.2793603199516745 0 0 0
30        1    1    0.0285690000000000   31.0690051219402932  7.9403173372426679   15.5034788196925639 0 0 0
31        1    1    0.0285690000000000   31.9950323988003298  6.4487733320594494   15.7352661297705261 0 0 0
32        1    1    0.0285690000000000   32.3278124008043122  7.8709242710532088   16.7413704061183566 0 0 0
33        1    2   -0.1057620000000000   30.1084778179761443  7.7119621228402666   17.7906319350511772 0 0 0
34        1    1    0.0285690000000000   29.6668581862109164  5.1789603649918501   16.1051619949821188 0 0 0
35        1    1    0.0285690000000000   28.9483268438148329  6.7577888153251777   15.7539461250209971 0 0 0
36        1    1    0.0285690000000000   28.5100900214516599  5.9122142870349519   17.2341568548942092 0 0 0
37        1    3    0.2812760000000000   31.9828868694678086  6.4386330020264815   18.6308070908215129 0 0 0
38        1    2   -0.1057620000000000   29.5060766922891489  4.8523507835044297   18.9255947566506002 0 0 0
39        1    1    0.0285690000000000   32.0973964719303524  4.8770136504419987   20.5477158666897637 0 0 0
40        1    1    0.0285690000000000   31.5687807660592519  3.5987937145065629   19.4371537852266840 0 0 0
41        1    1    0.0285690000000000   30.6402584829392097  3.9342713480892506   20.9024857918433753 0 0 0
42        1    1    0.0285690000000000   30.6731992520783834  7.1149095478228848   20.6525938031288447 0 0 0
43        1    1    0.0285690000000000   29.3545036476782322  6.0433355738662939   21.1459371382156789 0 0 0
44        1    1    0.0285690000000000   29.1240924853286458  7.1450053749756748   19.7889502862202988 0 0 0
45        2    5   -0.1832740000000000  -7.9639552821643322  -31.6690849356203650  19.6924175080226860 0 0 0
46        2    4    0.5269130000000000  -7.2103171333947511  -31.1024527662574748  18.4844876008003105 0 0 0
47        2    5   -0.1832740000000000  -8.1037918114058360  -30.1027401912578192  17.7486994271792931 0 0 0
48        2    6   -0.7333100000000000  -5.9663111576760475  -30.5012403310245190  18.9799178564341453 0 0 0
49        2    4    0.5269130000000000  -5.0785828192077673  -29.9226372313770419  17.9649916666751643 0 0 0
50        2    5   -0.1832740000000000  -3.9408524178350950  -29.2092632357233839  18.7014047822003491 0 0 0
51        2    5   -0.1832740000000000  -4.5031524662451510  -30.9723269923635200  17.0135116892350311 0 0 0
52        2    1    0.0285690000000000  -8.9144853630087777  -32.1175359456290366  19.3831356638545351 0 0 0
53        2    1    0.0285690000000000  -8.1857033310038751  -30.8891237794861482  20.4299573745096623 0 0 0
54        2    1    0.0285690000000000  -7.3785155283827422  -32.4501019876561685  20.1905904536163234 0 0 0
55        2    2   -0.1057620000000000  -6.9860733719551913  -31.9413615884808415  17.8159668894897010 0 0 0
56        2    1    0.0285690000000000  -8.2805420504051419  -29.2045354417402834  18.3508203332752622 0 0 0
57        2    1    0.0285690000000000  -9.0782477189909603  -30.5485507044428672  17.5203820195947380 0 0 0
58        2    1    0.0285690000000000  -7.6621271693371629  -29.7953677895040983  16.7955443234912813 0 0 0
59        2    3    0.2812760000000000  -5.4515716193664883  -31.1910729175245827  19.5256574802507572 0 0 0
60        2    2   -0.1057620000000000  -5.6064781049232364  -29.1595394156819872  17.3840096777109459 0 0 0
61        2    1    0.0285690000000000  -3.3476161082119442  -29.9063229407837667  19.3040826449312135 0 0 0
62        2    1    0.0285690000000000  -4.3327017003460186  -28.4325074075149899  19.3681377459421782 0 0 0
63        2    1    0.0285690000000000  -3.2658203492906770  -28.7215934457283026  17.9897001493203916 0 0 0
64        2    1    0.0285690000000000  -4.0231918899515033  -31.7912205633455898  17.5610182555044254 0 0 0
65        2    1    0.0285690000000000  -3.7499577970374265  -30.5255915769722037  16.3551397689557589 0 0 0
66        2    1    0.0285690000000000  -5.2808117637796226  -31.3998635814840021  16.3728475507651048 0 0 0
67        3    5   -0.1832740000000000  -8.6573206708394181  -18.6937791007686975 -30.4658442791957746 0 0 0
68        3    4    0.5269130000000000  -7.1823441656058318  -18.8879767357999668 -30.8330890517347065 0 0 0
69        3    5   -0.1832740000000000  -7.0274099794376355  -18.8605807849719298 -32.3543882757976888 0 0 0
70        3    6   -0.7333100000000000  -6.4151420014403211  -17.8325712867155985 -30.1607955329181365 0 0 0
71        3    4    0.5269130000000000  -4.9621326854290784  -17.8604288615360858 -30.3630483539359552 0 0 0
72        3    5   -0.1832740000000000  -4.3843413864888507  -16.5932624314505901 -29.7258014206884589 0 0 0
73        3    5   -0.1832740000000000  -4.3023996453683040  -19.0965065306380097 -29.7505557868792359 0 0 0
74        3    1    0.0285690000000000  -9.2833182570492809  -19.4473291002405482 -30.9563138730090870 0 0 0
75        3    1    0.0285690000000000  -9.0209381532805129  -17.7058279258965321 -30.7711497973769958 0 0 0
76        3    1    0.0285690000000000  -8.8100815987278853  -18.7921301641875722 -29.3851524675144695 0 0 0
77        3    2   -0.1057620000000000  -6.8794398773201619  -19.8730008787092487 -30.4603295474642017 0 0 0
78        3    1    0.0285690000000000  -7.2357356526482146  -17.8644718389307506 -32.7605032670231964 0 0 0
79        3    1    0.0285690000000000  -7.7201642511355910  -19.5654103879257022 -32.8274072161629249 0 0 0
80        3    1    0.0285690000000000  -6.0175638235250606  -19.1514975393901352 -32.6603756684912057 0 0 0
81        3    3    0.2812760000000000  -6.6179143793761188  -17.8513332173495840 -29.1622020824062922 0 0 0
82        3    2   -0.1057620000000000  -4.7226554590665062  -17.8149029933512537 -31.4303392392524685 0 0 0
83        3    1    0.0285690000000000  -4.5695448385586195  -16.5613162557223319 -28.6461156882191510 0 0 0
84        3    1    0.0285690000000000  -4.8251116560527141  -15.6946484064016047 -30.1726153923297424 0 0 0
85        3    1    0.0285690000000000  -3.3014589517839048  -16.5410493102300471 -29.8828142376171897 0 0 0
86        3    1    0.0285690000000000  -4.5731044510898347  -19.2155711253237875 -28.6954468797271929 0 0 0
87        3    1    0.0285690000000000  -3.2109503953301033  -19.0203126301150185 -29.8076640228364553 0 0 0
88        3    1    0.0285690000000000  -4.5917346743658038  -20.0085133561044088 -30.2820826890184556 0 0 0
89        4    5   -0.1832740000000000   3.6579945918295054  -43.4769945051207358  17.9645745983389915 0 0 0
90        4    4    0.5269130000000000   4.8737146278610419  -42.5581148484831644  18.1252671806478780 0 0 0
91        4    5   -0.1832740000000000   4.6117900531355893  -41.5577111066578766  19.2520743246600432 0 0 0
92        4    6   -0.7333100000000000   6.0429681044077643  -43.4092059568530857  18.3761628381173736 0 0 0
93        4    4    0.5269130000000000   7.3266389504312333  -42.7155389825113545  18.5308677452049899 0 0 0
94        4    5   -0.1832740000000000   8.3663898941888455  -43.7593592827298679  18.9491910130336940 0 0 0
95        4    5   -0.1832740000000000   7.7802073613723151  -42.0160170146475096  17.2489833721150170 0 0 0
96        4    1    0.0285690000000000   2.7478701590818382  -42.8921704568780910  17.7915851431319822 0 0 0
97        4    1    0.0285690000000000   3.4970498833605217  -44.0908073082728933  18.8583348013030303 0 0 0
98        4    1    0.0285690000000000   3.7838555924629400  -44.1502558295936467  17.1091321268141598 0 0 0
99        4    2   -0.1057620000000000   4.9974860037134547  -42.0117396752092276  17.1833924360297381 0 0 0
100       4    1    0.0285690000000000   4.5694755879776991  -42.0549280518885809  20.2275469280753555 0 0 0
101       4    1    0.0285690000000000   3.6573219050530810  -41.0420666450662708  19.0986418912379037 0 0 0
102       4    1    0.0285690000000000   5.3879854874589697  -40.7870756366940697  19.2932048640342373 0 0 0
103       4    3    0.2812760000000000   6.1210776014167898  -44.1034056842857964  17.6341094898941151 0 0 0
104       4    2   -0.1057620000000000   7.2709016194138316  -41.9822821948357543  19.3418915511186675 0 0 0
105       4    1    0.0285690000000000   8.4960415038849604  -44.5325239700336226  18.1833914412724482 0 0 0
106       4    1    0.0285690000000000   8.0722156146124160  -44.2523052093310625  19.8829437257381727 0 0 0
107       4    1    0.0285690000000000   9.3404715864539245  -43.2878921135384758  19.1191826812667394 0 0 0
108       4    1    0.0285690000000000   7.7844639546729830  -42.7034895147810190  16.3957098412507030 0 0 0
109       4    1    0.0285690000000000   8.7955979749018400  -41.6206658982641571  17.3630347782026959 0 0 0
110       4    1    0.0285690000000000   7.1292888962282124  -41.1710987917623257  17.0031980902713187 0 0 0
111       5    5   -0.1832740000000000  -30.0758952693875372  32.3014860958790848  40.9175786057933450 0 0 0
112       5    4    0.5269130000000000  -30.8094237018565664  31.5104464995218763  42.0058476585346909 0 0 0
113       5    5   -0.1832740000000000  -32.1469574138945333  31.0096439021657666  41.4587582719228607 0 0 0
114       5    6   -0.7333100000000000  -29.9237449763957670  30.4219675222752883  42.4362487615285673 0 0 0
115       5    4    0.5269130000000000  -30.4348148894556374  29.5566441963660544  43.5053331389760913 0 0 0
116       5    5   -0.1832740000000000  -29.4418850070543030  28.4034740511643484  43.6783246574096395 0 0 0
117       5    5   -0.1832740000000000  -30.6088355261701075  30.2952101762987454  44.8329324551040997 0 0 0
118       5    1    0.0285690000000000  -30.6998806558993316  33.1209210284844175  40.5441624428520200 0 0 0
119       5    1    0.0285690000000000  -29.8139696993023797  31.6643957628635242  40.0649429507720001 0 0 0
120       5    1    0.0285690000000000  -29.1517612769409205  32.7430856616735042  41.3072833813540683 0 0 0
121       5    2   -0.1057620000000000  -30.9981848483756721  32.1974682084846151  42.8385202346285112 0 0 0
122       5    1    0.0285690000000000  -32.0031114847230995  30.2510920026366463  40.6812819899813647 0 0 0
123       5    1    0.0285690000000000  -32.7190442811541757  31.8340646966003149  41.0188865427642995 0 0 0
124       5    1    0.0285690000000000  -32.7674711958744496  30.5767990688631066  42.2497437950243793 0 0 0
125       5    3    0.2812760000000000  -29.0236141701200054  30.8093910446642099  42.7161149306042702 0 0 0
126       5    2   -0.1057620000000000  -31.3904666538132311  29.1096961623764017  43.2129311200142041 0 0 0
127       5    1    0.0285690000000000  -28.4527172513948159  28.7622110324442275  43.9847509733908026 0 0 0
128       5    1    0.0285690000000000  -29.3253579242763145  27.8438239080074084  42.7431019683971982 0 0 0
129       5    1    0.0285690000000000  -29.7953365372466585  27.7002577964542844  44.4402777511209521 0 0 0
130       5    1    0.0285690000000000  -29.6898778261360476  30.8141225917244519  45.1278204442884245 0 0 0
131       5    1    0.0285690000000000  -30.8670154754036972  29.5940783946753427  45.6342349355141792 0 0 0
132       5    1    0.0285690000000000  -31.4146687047237165  31.0337549659754508  44.7765716674625907 0 0 0
133       6    5   -0.1832740000000000  -16.9336000441760781 -8.2750095732564031   6.3141125886026526  0 0 0
134       6    4    0.5269130000000000  -18.1089946080217885 -7.3422702658168078   6.0033359179224846  0 0 0
135       6    5   -0.1832740000000000  -19.3612331119356789 -7.8412820598736843   6.7258263524665205  0 0 0
136       6    6   -0.7333100000000000  -17.7178943310830626 -5.9862532276470128   6.4067175779811185  0 0 0
137       6    4    0.5269130000000000  -18.7051916543177654 -4.9286851234579654   6.1623571453501720  0 0 0
138       6    5   -0.1832740000000000  -18.1720414122712057 -3.6441685906486834   6.8037659829454391  0 0 0
139       6    5   -0.1832740000000000  -18.9673331499193480 -4.6954616053274929   4.6740119368133186  0 0 0
140       6    1    0.0285690000000000  -17.1765797700672742 -9.3096885918582153   6.0482720661629168  0 0 0
141       6    1    0.0285690000000000  -16.6748377772091985 -8.2545925245910663   7.3790547890144627  0 0 0
142       6    1    0.0285690000000000  -16.0428467114830013 -7.9893002797695685   5.7432953459483960  0 0 0
143       6    2   -0.1057620000000000  -18.2805167450703934 -7.3815015037764127   4.9216639323046421  0 0 0
144       6    1    0.0285690000000000  -19.2657758959148708 -7.7359299166113153   7.8122658815796617  0 0 0
145       6    1    0.0285690000000000  -19.5387345885832211 -8.9001870103671532   6.5075290787585036  0 0 0
146       6    1    0.0285690000000000  -20.2540628855501019 -7.2952157423962394   6.4053319322900482  0 0 0
147       6    3    0.2812760000000000  -16.8388721480510810 -5.7393282122557947   5.9539421753677102  0 0 0
148       6    2   -0.1057620000000000  -19.6501527047396003 -5.1632662020742615   6.6629089521003433  0 0 0
149       6    1    0.0285690000000000  -17.2256946235792050 -3.3270771549079385   6.3510818385221715  0 0 0
150       6    1    0.0285690000000000  -18.0046657117191735 -3.7835022738602588   7.8780098199710036  0 0 0
151       6    1    0.0285690000000000  -18.8914085663887654 -2.8263702037292382   6.6865896285527393  0 0 0
152       6    1    0.0285690000000000  -18.0355055059375324 -4.5232575703356961   4.1237799059900935  0 0 0
153       6    1    0.0285690000000000  -19.6075686039441379 -3.8186147727891382   4.5271564902778385  0 0 0
154       6    1    0.0285690000000000  -19.4789103117969091 -5.5498445485694043   4.2197976149975265  0 0 0
155       7    5   -0.1832740000000000  -40.9834542528665082 -41.9756937336203890 -32.2616502008594139 0 0 0
156       7    4    0.5269130000000000  -41.6693278096510440 -42.1865585553600226 -30.9076743419695852 0 0 0
157       7    5   -0.1832740000000000  -41.8450008054520239 -40.8374109144384292 -30.2090713711470933 0 0 0
158       7    6   -0.7333100000000000  -42.9432084192861936 -42.8715529850224115 -31.1576127780434682 0 0 0
159       7    4    0.5269130000000000  -43.7468704918015945 -43.1950479198214268 -29.9733844973223746 0 0 0
160       7    5   -0.1832740000000000  -45.0904337642208048 -43.7422350736948999 -30.4643642853401957 0 0 0
161       7    5   -0.1832740000000000  -43.0714780948868707 -44.2195520549054848 -29.0609595851868967 0 0 0
162       7    1    0.0285690000000000  -40.0303362612443294 -41.4498687559974499 -32.1377745008454880 0 0 0
163       7    1    0.0285690000000000  -41.6074331544362011 -41.3829024491271156 -32.9404178196544564 0 0 0
164       7    1    0.0285690000000000  -40.7695102251872044 -42.9341438411921956 -32.7479679662309024 0 0 0
165       7    2   -0.1057620000000000  -41.0106696221017870 -42.8197111924995113 -30.3024798706980363 0 0 0
166       7    1    0.0285690000000000  -42.5674904807334613 -40.2043343353635692 -30.7361242325742836 0 0 0
167       7    1    0.0285690000000000  -40.8937633618506311 -40.2952809000954773 -30.1680525761966543 0 0 0
168       7    1    0.0285690000000000  -42.1865693481974517 -40.9614194047650670 -29.1765971942139899 0 0 0
169       7    3    0.2812760000000000  -42.7703584823941725 -43.7222279222350920 -31.6915908461461093 0 0 0
170       7    2   -0.1057620000000000  -43.9654458273111715 -42.2889462603182764 -29.3991577251735094 0 0 0
171       7    1    0.0285690000000000  -44.9658173568304704 -44.6639568208114852 -31.0439692625457937 0 0 0
172       7    1    0.0285690000000000  -45.6033703272936961 -43.0094954673652978 -31.0979391217872383 0 0 0
173       7    1    0.0285690000000000  -45.7498822322620882 -43.9638066598411541 -29.6181684733021982 0 0 0
174       7    1    0.0285690000000000  -42.7751538752281917 -45.1174832179348755 -29.6146958570748566 0 0 0
175       7    1    0.0285690000000000  -43.7512180543092981 -44.5313674607715058 -28.2603016889983891 0 0 0
176       7    1    0.0285690000000000  -42.1788564298933863 -43.8026527522574511 -28.5840805742880733 0 0 0
177       8    5   -0.1832740000000000   19.7160293746496258  31.8903916439548993  41.0516010857388096 0 0 0
178       8    4    0.5269130000000000   19.3390563141640790  30.7959464890421692  42.0557018027768095 0 0 0
179       8    5   -0.1832740000000000   20.3749298549594933  30.7564063864597124  43.1802057187627568 0 0 0
180       8    6   -0.7333100000000000   17.9826761563289388  31.0837944934353203  42.5371940580603010 0 0 0
181       8    4    0.5269130000000000   17.4195742883235454  30.1258063981787494  43.4953659717039471 0 0 0
182       8    5   -0.1832740000000000   16.0881670648375099  30.6985085981909478  43.9903449570663412 0 0 0
183       8    5   -0.1832740000000000   17.1945686464479941  28.7414361164053247  42.8861252828405739 0 0 0
184       8    1    0.0285690000000000   20.7312568725212358  31.7358648926302571  40.6698870399002956 0 0 0
185       8    1    0.0285690000000000   19.6778494014339458  32.8858838079113696  41.5087819012226902 0 0 0
186       8    1    0.0285690000000000   19.0370662163506239  31.8861428170292385  40.1914298227089546 0 0 0
187       8    2   -0.1057620000000000   19.3563153252026154  29.8402704758200699  41.5196433150258031 0 0 0
188       8    1    0.0285690000000000   20.3301389398299754  31.6600708553743289  43.7982237655406124 0 0 0
189       8    1    0.0285690000000000   21.3885959959392196  30.6817734184039068  42.7711201008165389 0 0 0
190       8    1    0.0285690000000000   20.2284373636822536  29.8883458596434437  43.8306370932234799 0 0 0
191       8    3    0.2812760000000000   17.3535243596813409  31.1746907590371514  41.7405991720769975 0 0 0
192       8    2   -0.1057620000000000   18.0691604878740719  30.0332839527655260  44.3717272824361473 0 0 0
193       8    1    0.0285690000000000   15.3673773609316608  30.8144584629601646  43.1729955891071171 0 0 0
194       8    1    0.0285690000000000   16.2334902638954865  31.6797814455257658  44.4566207217152964 0 0 0
195       8    1    0.0285690000000000   15.6402390469798753  30.0402381136399796  44.7427106009438162 0 0 0
196       8    1    0.0285690000000000   16.6027503789752124  28.7985752207335999  41.9656913979025532 0 0 0
197       8    1    0.0285690000000000   16.6576319494389580  28.0932250851172860  43.5874453016775618 0 0 0
198       8    1    0.0285690000000000   18.1435851993115804  28.2491394773398703  42.6515966961911630 0 0 0
199       9    5   -0.1832740000000000  -41.4956946037539183  44.8118347143953599  31.4265016651002469 0 0 0
200       9    4    0.5269130000000000  -42.5511674401252762  43.7079133572774339  31.3021157158088315 0 0 0
201       9    5   -0.1832740000000000  -43.9411603677780462  44.3390902503008277  31.2091541103546710 0 0 0
202       9    6   -0.7333100000000000  -42.2103844868459745  42.8988715031708807  30.1257753504561663 0 0 0
203       9    4    0.5269130000000000  -43.0918759207655526  41.7595059839459921  29.8469611004117823 0 0 0
204       9    5   -0.1832740000000000  -42.6639193829635062  41.1647802408787413  28.5020478344776578 0 0 0
205       9    5   -0.1832740000000000  -43.0315341960483977  40.6843149539225593  30.9325973001192551 0 0 0
206       9    1    0.0285690000000000  -41.7102388657552083  45.4612070202500860  32.2823973188637510 0 0 0
207       9    1    0.0285690000000000  -41.4634286987373031  45.4401864819531980  30.5289440767080613 0 0 0
208       9    1    0.0285690000000000  -40.4972863587431675  44.3864347393277967  31.5785525187875677 0 0 0
209       9    2   -0.1057620000000000  -42.4952509138923631  43.0980576289962158  32.2109185276314207 0 0 0
210       9    1    0.0285690000000000  -44.0703729158322943  44.8870269950207472  30.2691373840082392 0 0 0
211       9    1    0.0285690000000000  -44.1023260794275771  45.0447617602900436  32.0316463604567758 0 0 0
212       9    1    0.0285690000000000  -44.7304116538089218  43.5837790124373896  31.2772528809442996 0 0 0
213       9    3    0.2812760000000000  -41.2491896495746460  42.5703700824069244  30.2085329969851557 0 0 0
214       9    2   -0.1057620000000000  -44.1270825614094875  42.0955637828336862  29.7288757606211931 0 0 0
215       9    1    0.0285690000000000  -41.6347358394842999  40.7894915615404372  28.5333815015488454 0 0 0
216       9    1    0.0285690000000000  -42.7279111194825063  41.9141669498473206  27.7047066654173122 0 0 0
217       9    1    0.0285690000000000  -43.3173740632803828  40.3311120989470098  28.2227486901895617 0 0 0
218       9    1    0.0285690000000000  -42.0007854731842585  40.3684510125276930  31.1288097266891981 0 0 0
219       9    1    0.0285690000000000  -43.5996154310412507  39.7976192013263130  30.6303016182500691 0 0 0
220       9    1    0.0285690000000000  -43.4639026555042065  41.0411093458419103  31.8726756657690089 0 0 0
221       10   5   -0.1832740000000000  -41.5228291928441706  32.1926722560502157 -32.0777829187915700 0 0 0
222       10   4    0.5269130000000000  -42.3731987895659827  30.9976984131107436 -31.6338840574935745 0 0 0
223       10   5   -0.1832740000000000  -41.8166573710861158  29.7162024194281287 -32.2560867069509811 0 0 0
224       10   6   -0.7333100000000000  -42.3679102086607315  30.9702424885322500 -30.1663430525408955 0 0 0
225       10   4    0.5269130000000000  -43.1578454295989005  29.9061931474579694 -29.5364861902453768 0 0 0
226       10   5   -0.1832740000000000  -42.8794519219347521  29.9558205656665919 -28.0312714630876840 0 0 0
227       10   5   -0.1832740000000000  -44.6584337275061003  30.0522370040147031 -29.7918071354222000 0 0 0
228       10   1    0.0285690000000000  -41.4763026906571568  32.2530618946087486 -33.1706961716387596 0 0 0
229       10   1    0.0285690000000000  -40.4958045753415519  32.1168241737452860 -31.7023576128327633 0 0 0
230       10   1    0.0285690000000000  -41.9479505434679254  33.1349768842385259 -31.7141382439526431 0 0 0
231       10   2   -0.1057620000000000  -43.3903687299881611  31.1637632613666753 -32.0063904285468723 0 0 0
232       10   1    0.0285690000000000  -40.8335925019883490  29.4643192365464621 -31.8429277424746040 0 0 0
233       10   1    0.0285690000000000  -41.7042135848709066  29.8286583226933395 -33.3401301714220182 0 0 0
234       10   1    0.0285690000000000  -42.4861878965501347  28.8661794160461760 -32.0910416516072559 0 0 0
235       10   3    0.2812760000000000  -42.6743568801014348  31.8746859913758840 -29.8103515997967854 0 0 0
236       10   2   -0.1057620000000000  -42.8259763057870231  28.9236004015859400 -29.8870659399743168 0 0 0
237       10   1    0.0285690000000000  -43.1944632525085694  30.9089436907638877 -27.5915370799483810 0 0 0
238       10   1    0.0285690000000000  -41.8107419426747171  29.8241577283860195 -27.8264491027135286 0 0 0
239       10   1    0.0285690000000000  -43.4148163743964801  29.1530695527074180 -27.5126296634481200 0 0 0
240       10   1    0.0285690000000000  -45.0180602139223254  31.0497903604144199 -29.5156398547686116 0 0 0
241       10   1    0.0285690000000000  -45.2234331101497631  29.3202034519729402 -29.2042436045615865 0 0 0
242       10   1    0.0285690000000000  -44.9030534338373144  29.8807341088867666 -30.8447743773804532 0 0 0
243       11   5   -0.1832740000000000  -4.0707933812945463   18.6177654866275972  19.8743787278619273 0 0 0
244       11   4    0.5269130000000000  -5.0325032936968057   18.8465125611000168  18.7035132549285308 0 0 0
245       11   5   -0.1832740000000000  -4.2574225766365776   18.7825394439778499  17.3865987582253183 0 0 0
246       11   6   -0.7333100000000000  -6.0907849200560902   17.8334678716418864  18.7942813912484752 0 0 0
247       11   4    0.5269130000000000  -7.1392546552826968   17.8998255342901693  17.7699639622150229 0 0 0
248       11   5   -0.1832740000000000  -8.0329196588962137   16.6685063954942336  17.9456148669986213 0 0 0
249       11   5   -0.1832740000000000  -7.9828630062679391   19.1714892656626468  17.8673248237547995 0 0 0
250       11   1    0.0285690000000000  -3.2460444003997311   19.3384170019310311  19.8475177132898466 0 0 0
251       11   1    0.0285690000000000  -3.6373597333671137   17.6113305676069736  19.8479083005841517 0 0 0
252       11   1    0.0285690000000000  -4.5838326723186551   18.7407413367670799  20.8348844544184857 0 0 0
253       11   2   -0.1057620000000000  -5.4571388189165075   19.8500147312826734  18.8203091587955456 0 0 0
254       11   1    0.0285690000000000  -3.8895993551092736   17.7699211378747606  17.1869183925150679 0 0 0
255       11   1    0.0285690000000000  -3.3912548191033585   19.4529624262272947  17.4135544400310351 0 0 0
256       11   1    0.0285690000000000  -4.8771598949529853   19.0954991184549741  16.5404120178794471 0 0 0
257       11   3    0.2812760000000000  -6.5181808521662292   17.8731771450615007  19.7186262497943581 0 0 0
258       11   2   -0.1057620000000000  -6.7018008662668516   17.8326216240506952  16.7686400398880799 0 0 0
259       11   1    0.0285690000000000  -8.5245288274683908   16.6602828050847158  18.9250509065829178 0 0 0
260       11   1    0.0285690000000000  -7.4499792935830627   15.7451566830075560  17.8505666648097581 0 0 0
261       11   1    0.0285690000000000  -8.8135468104085319   16.6448761097685960  17.1774505212897886 0 0 0
262       11   1    0.0285690000000000  -8.3849940553759712   19.3108944813418368  18.8770619582035266 0 0 0
263       11   1    0.0285690000000000  -8.8305167561290858   19.1268692707891113  17.1746340537110420 0 0 0
264       11   1    0.0285690000000000  -7.3983283062231333   20.0595498637160432  17.6072102047335299 0 0 0
265       12   5   -0.1832740000000000   28.9517146446308864  5.7432846403134690   40.7217035546909329 0 0 0
266       12   4    0.5269130000000000   30.1466985481924930  5.5639276999161593   41.6640313604782619 0 0 0
267       12   5   -0.1832740000000000   31.4470914913501360  5.6977162009773874   40.8701892479208624 0 0 0
268       12   6   -0.7333100000000000   30.0231447666014652  6.5630055557562734   42.7322243669730852 0 0 0
269       12   4    0.5269130000000000   31.0652387312954730  6.5380606920883961   43.7648599479138696 0 0 0
270       12   5   -0.1832740000000000   30.8438732625634628  7.7523383038493634   44.6715927704305997 0 0 0
271       12   5   -0.1832740000000000   31.0422114934609290  5.2565568074127897   44.5988265975941900 0 0 0