LAMMPS data file via vdw_self_gen.py, on 2021-08-05 13:22:57.606560

7500 atoms
5 atom types
7000 bonds
4 bond types
12500 angles
7 angle types
12000 dihedrals
4 dihedral types

-48.1592678997339050  48.1592678997338979 xlo xhi
-48.1592678997339050  48.1592678997338979 ylo yhi
-48.1592678997339050  48.1592678997338979 zlo zhi

Masses

1  32.066000
2  1.007940
3  1.007940
4  12.011000
5  12.011000

Atoms

1         0    4   -0.0731420000000000   34.8073517252781883  26.7190177157230551 -27.3176213425777767 0 0 0
2         0    5    0.0180100000000000   36.3125927403561803  26.6755482273048194 -27.5352647038448737 0 0 0
3         0    3    0.0285690000000000   34.4928141281238680  25.8905705090446965 -26.6478324733635965 0 0 0
4         0    3    0.0285690000000000   34.2855164911503749  26.6090615513138005 -28.2916150314850370 0 0 0
5         0    3    0.0285690000000000   34.5137660002728879  27.6886124504937818 -26.8620376881541389 0 0 0
6         0    1   -0.2595700000000000   37.1673752073527766  26.8563190704821579 -25.9343189998710741 0 0 0
7         0    2    0.0496050000000000   36.5940887310231346  27.5129806502208325 -28.2089372864749279 0 0 0
8         0    2    0.0496050000000000   36.5729286610645161  25.6970616747174248 -27.9925923737868700 0 0 0
9         0    5    0.0180100000000000   38.8408225634564701  26.7513238785732987 -26.6518808337401829 0 0 0
10        0    4   -0.0731420000000000   39.8786146872343181  26.8710258747672839 -25.5456926601314436 0 0 0
11        0    2    0.0496050000000000   38.9954791909374876  27.5849414001660982 -27.3698836924181101 0 0 0
12        0    2    0.0496050000000000   38.9743195933442124  25.7690271816382435 -27.1535169360111723 0 0 0
13        0    3    0.0285690000000000   39.7726423450841153  27.8462569098122827 -25.0245676844449356 0 0 0
14        0    3    0.0285690000000000   40.8981224869165771  26.8072656781858925 -25.9811301655428792 0 0 0
15        0    3    0.0285690000000000   39.7516909453004388  26.0482197253387504 -24.8103406259355133 0 0 0
16        1    4   -0.0731420000000000   4.9619322444122975  -4.7949401861381045   34.8344639075114273 0 0 0
17        1    5    0.0180100000000000   4.9315362549780355  -4.6323866021093973   36.3469655302364245 0 0 0
18        1    3    0.0285690000000000   6.0113860452771295  -4.8677314247911170   34.4777792302042627 0 0 0
19        1    3    0.0285690000000000   4.4812644509464157  -3.9165612140236004   34.3543858624273994 0 0 0
20        1    3    0.0285690000000000   4.4103548455954584  -5.7118577798054728   34.5363238509311472 0 0 0
21        1    1   -0.2595700000000000   5.7214638993673645  -6.0761110603750588   37.1331158440664453 0 0 0
22        1    2    0.0496050000000000   3.8712331122328987  -4.5605896701198034   36.6709566571853998 0 0 0
23        1    2    0.0496050000000000   5.4881882111106899  -3.7080787911833939   36.6118296336835769 0 0 0
24        1    5    0.0180100000000000   5.4650686147680636  -5.4717775464947822   38.8346996625827074 0 0 0
25        1    4   -0.0731420000000000   6.0321035742168938  -6.4786349281679279   39.8244990883418666 0 0 0
26        1    2    0.0496050000000000   4.3780029508483187  -5.3578519375555045   39.0338833661192623 0 0 0
27        1    2    0.0496050000000000   5.9949665176677964  -4.5053617497032539   38.9747559266848924 0 0 0
28        1    3    0.0285690000000000   5.5201004044214095  -7.4578388978706061   39.7109680831587255 0 0 0
29        1    3    0.0285690000000000   5.8767053016689097  -6.1119914772781287   40.8610758072627149 0 0 0
30        1    3    0.0285690000000000   7.1211400720447662  -6.6137332339404091   39.6524230464992939 0 0 0
31        2    4   -0.0731420000000000  -3.7583076479078170  -38.5631518727338616 -35.5652394941667609 0 0 0
32        2    5    0.0180100000000000  -5.0249967808909153  -38.1429985855889271 -36.2959778866738532 0 0 0
33        2    3    0.0285690000000000  -3.1445449198657358  -39.2256630386852976 -36.2119620562101900 0 0 0
34        2    3    0.0285690000000000  -4.0263197747195187  -39.1153278135288787 -34.6398545440033132 0 0 0
35        2    3    0.0285690000000000  -3.1612648042388192  -37.6685253091644228 -35.2876676145038957 0 0 0
36        2    1   -0.2595700000000000  -4.5822691692787636  -37.2363792515715346 -37.8153172022324426 0 0 0
37        2    2    0.0496050000000000  -5.6160789049220972  -37.4849500897708126 -35.6236967668271802 0 0 0
38        2    2    0.0496050000000000  -5.5991862497496125  -39.0575668265019758 -36.5571879735100609 0 0 0
39        2    5    0.0180100000000000  -6.3109787952067711  -36.9535112547035283 -38.3231496105836129 0 0 0
40        2    4   -0.0731420000000000  -6.3378079483509886  -36.1772039320757131 -39.6314387502144569 0 0 0
41        2    2    0.0496050000000000  -6.8375529206900190  -36.3551535866026327 -37.5491646357963731 0 0 0
42        2    2    0.0496050000000000  -6.8206457284676993  -37.9277597693168929 -38.4826691573922943 0 0 0
43        2    3    0.0285690000000000  -5.8362016389992935  -35.1943002438740251 -39.5042837289291029 0 0 0
44        2    3    0.0285690000000000  -7.3898239986921483  -36.0042065033990468 -39.9419245903035574 0 0 0
45        2    3    0.0285690000000000  -5.8194672175763751  -36.7514274193779897 -40.4285914855484378 0 0 0
46        3    4   -0.0731420000000000   24.6929883789303481  14.3808819633609204 -15.5139808833769095 0 0 0
47        3    5    0.0180100000000000   25.8681640876951597  15.3184067737129492 -15.2794216667523255 0 0 0
48        3    3    0.0285690000000000   23.8849839047027892  14.9091092280270772 -16.0635084350897941 0 0 0
49        3    3    0.0285690000000000   24.2929512993389451  14.0317023906116116 -14.5387321783654180 0 0 0
50        3    3    0.0285690000000000   25.0189235866971806  13.4977824046479515 -16.1036964110162586 0 0 0
51        3    1   -0.2595700000000000   26.5234000678204893  15.8904989593292658 -16.8824608591010090 0 0 0
52        3    2    0.0496050000000000   26.6559791990240527  14.7623466044950113 -14.7275953871396581 0 0 0
53        3    2    0.0496050000000000   25.5107646155895296  16.1877067712451463 -14.6870177044688699 0 0 0
54        3    5    0.0180100000000000   27.8332342718164405  16.9218465733979109 -16.1428653707445484 0 0 0
55        3    4   -0.0731420000000000   28.6346436228923658  17.5971384592260414 -17.2459144432897240 0 0 0
56        3    2    0.0496050000000000   28.5224560996270178  16.2853520587353771 -15.5477074465984071 0 0 0
57        3    2    0.0496050000000000   27.3772430529758530  17.7107113428574046 -15.5071520542677810 0 0 0
58        3    3    0.0285690000000000   29.1064106489395797  16.8330143253748403 -17.8996935577471277 0 0 0
59        3    3    0.0285690000000000   29.4326171580041240  18.2255013775221109 -16.7970652285508777 0 0 0
60        3    3    0.0285690000000000   27.9724725037285502  18.2443402661258567 -17.8595278721608253 0 0 0
61        4    4   -0.0731420000000000  -24.4824888622753924 -36.4414788337455136  14.9841032507600538 0 0 0
62        4    5    0.0180100000000000  -25.4108177059386868 -37.4004785829198809  15.7145372188271821 0 0 0
63        4    3    0.0285690000000000  -24.8240606819243688 -36.3005522645127741  13.9365612717892926 0 0 0
64        4    3    0.0285690000000000  -23.4521475290141694 -36.8553699638664938  14.9715754783854482 0 0 0
65        4    3    0.0285690000000000  -24.4662761143905669 -35.4571513814024399  15.4985929077696198 0 0 0
66        4    1   -0.2595700000000000  -27.1022711306619115 -36.7185894845503924  15.7337954694458642 0 0 0
67        4    2    0.0496050000000000  -25.0418870299456557 -37.5215102067303405  16.7555027834109111 0 0 0
68        4    2    0.0496050000000000  -25.4032358280735480 -38.3732902355984677  15.1779374364560056 0 0 0
69        4    5    0.0180100000000000  -27.8132503207386677 -38.1229993080358582  16.6549288302440424 0 0 0
70        4    4   -0.0731420000000000  -29.3014112859976734 -37.8907509143611279  16.8704072760684838 0 0 0
71        4    2    0.0496050000000000  -27.3237851036558972 -38.2077974321493272  17.6487084985875526 0 0 0
72        4    2    0.0496050000000000  -27.6851487162965277 -39.0595609857274297  16.0711401358357797 0 0 0
73        4    3    0.0285690000000000  -29.4634666950971464 -36.9600405153246925  17.4546958578557998 0 0 0
74        4    3    0.0285690000000000  -29.7357194166286121 -38.7451304648258130  17.4311918771548662 0 0 0
75        4    3    0.0285690000000000  -29.8212660771436866 -37.8034249231449948  15.8926612060786070 0 0 0
76        5    4   -0.0731420000000000  -38.2349116883935949 -40.0468948436932948  37.2895107428290586 0 0 0
77        5    5    0.0180100000000000  -38.2637010661988270 -38.5350054180559454  37.1210759513767670 0 0 0
78        5    3    0.0285690000000000  -37.3390396282239792 -40.4714128212511355  36.7884383507162482 0 0 0
79        5    3    0.0285690000000000  -39.1442730837772501 -40.4912689623165534  36.8327180425987493 0 0 0
80        5    3    0.0285690000000000  -38.2103210230798496 -40.3120405908779702  38.3679151316041214 0 0 0
81        5    1   -0.2595700000000000  -36.7693094990829792 -37.8075255983618348  37.8720255280933529 0 0 0
82        5    2    0.0496050000000000  -39.1699369239529460 -38.1424090485125120  37.6299693243361517 0 0 0
83        5    2    0.0496050000000000  -38.2899836272610585 -38.3033665587228427  36.0347923840100961 0 0 0
84        5    5    0.0180100000000000  -37.2179488884404108 -36.0905383354018099  37.4512851490589043 0 0 0
85        5    4   -0.0731420000000000  -36.1372997376736507 -35.1436459655665629  37.9518703949410536 0 0 0
86        5    2    0.0496050000000000  -38.1766549998690010 -35.8205789348250434  37.9435954818264563 0 0 0
87        5    2    0.0496050000000000  -37.2966833290774247 -35.9815374912406867  36.3484312418120084 0 0 0
88        5    3    0.0285690000000000  -36.0351228042446650 -35.2273922280848097  39.0547862516995181 0 0 0
89        5    3    0.0285690000000000  -36.4091161623308324 -34.0977431953212360  37.6963893508698149 0 0 0
90        5    3    0.0285690000000000  -35.1638230352891057 -35.3867655046633018  37.4753221711232598 0 0 0
91        6    4   -0.0731420000000000   28.5543034727500533  14.0276703072091244 -5.3391349265990273  0 0 0
92        6    5    0.0180100000000000   27.8315388946538356  15.2962530106254473 -4.9109783759748993  0 0 0
93        6    3    0.0285690000000000   27.8540708388562557  13.1654405481866306 -5.3286513830102171  0 0 0
94        6    3    0.0285690000000000   29.3894972171523463  13.8185175637986895 -4.6378699161107209  0 0 0
95        6    3    0.0285690000000000   28.9685897419724832  14.1493820250671334 -6.3625684313612183  0 0 0
96        6    1   -0.2595700000000000   26.4603951857374966  15.6376412289524396 -6.0641380893652954  0 0 0
97        6    2    0.0496050000000000   28.5574656426959557  16.1371105882651165 -4.9298647441526873  0 0 0
98        6    2    0.0496050000000000   27.4318593646168694  15.1433835790054374 -3.8856752339502605  0 0 0
99        6    5    0.0180100000000000   25.9218058792779260  17.1525031756867321 -5.2030574481337064  0 0 0
100       6    4   -0.0731420000000000   24.7236699634815693  17.7510492218956912 -5.9250036326561233  0 0 0
101       6    2    0.0496050000000000   26.7435423500614284  17.9002306329095866 -5.2072731449101237  0 0 0
102       6    2    0.0496050000000000   25.6179248310173797  16.9065002956180841 -4.1631026758450238  0 0 0
103       6    3    0.0285690000000000   24.9962548399400859  18.0105185481815582 -6.9701113319593286  0 0 0
104       6    3    0.0285690000000000   24.3945895797098409  18.6735650299986204 -5.4018038407822715  0 0 0
105       6    3    0.0285690000000000   23.8817246958589067  17.0265737432692212 -5.9362133247456637  0 0 0
106       7    4   -0.0731420000000000  -4.1263430627070461  -25.6440944725248698 -28.9011035589797878 0 0 0
107       7    5    0.0180100000000000  -5.1133026791993448  -26.4731946286479456 -28.0927024276532116 0 0 0
108       7    3    0.0285690000000000  -4.2021633133778078  -24.5730220627487874 -28.6166198402809897 0 0 0
109       7    3    0.0285690000000000  -4.3532659271731875  -25.7434395683647992 -29.9835557016701841 0 0 0
110       7    3    0.0285690000000000  -3.0892219585166423  -25.9978463187735329 -28.7191627985148834 0 0 0
111       7    1   -0.2595700000000000  -4.7386045159494889  -26.3084339413479533 -26.3153973010422604 0 0 0
112       7    2    0.0496050000000000  -5.0143465867805874  -27.5358956962602761 -28.4013153518298047 0 0 0
113       7    2    0.0496050000000000  -6.1383488339745078  -26.0969006415484159 -28.2977452006382251 0 0 0
114       7    5    0.0180100000000000  -6.0937604570180595  -27.4054609648428205 -25.7802065738163790 0 0 0
115       7    4   -0.0731420000000000  -6.0929957217122226  -27.5141006277027422 -24.2625800801317126 0 0 0
116       7    2    0.0496050000000000  -5.9456299337560470  -28.4213864844409763 -26.2048448157439431 0 0 0
117       7    2    0.0496050000000000  -7.0696191384145326  -26.9823851958861773 -26.1012576049078326 0 0 0
118       7    3    0.0285690000000000  -5.1286285502850379  -27.9370488066521183 -23.9090440198819500 0 0 0
119       7    3    0.0285690000000000  -6.9176589580812973  -28.1818047712567008 -23.9352132206878316 0 0 0
120       7    3    0.0285690000000000  -6.2415568626107536  -26.5122183167844305 -23.8064840020035362 0 0 0
121       8    4   -0.0731420000000000  -24.9008595761766465  28.7294397722079644 -26.8117848616499614 0 0 0
122       8    5    0.0180100000000000  -25.8281409871142564  27.6587975804217905 -26.2560122240571410 0 0 0
123       8    3    0.0285690000000000  -24.1805195534875672  28.2788635915248321 -27.5273036669327524 0 0 0
124       8    3    0.0285690000000000  -24.3331426719234010  29.1999475290951551 -25.9814921162678978 0 0 0
125       8    3    0.0285690000000000  -25.4899982227356716  29.5143498942889799 -27.3320681971368629 0 0 0
126       8    1   -0.2595700000000000  -26.7593745220927808  26.8875708116904306 -27.6214321906694416 0 0 0
127       8    2    0.0496050000000000  -26.5327830695361513  28.1398094389732130 -25.5443417020365615 0 0 0
128       8    2    0.0496050000000000  -25.2102864452593671  26.8920374851935193 -25.7415279732050735 0 0 0
129       8    5    0.0180100000000000  -27.6786743943045792  25.7423015171341873 -26.5399558768751724 0 0 0
130       8    4   -0.0731420000000000  -28.6127696946659675  24.8852370521273940 -27.3813236966575850 0 0 0
131       8    2    0.0496050000000000  -28.2904651145629700  26.3194555803614705 -25.8140287099321348 0 0 0
132       8    2    0.0496050000000000  -26.9679755171940911  25.0716826737346423 -26.0112361875771931 0 0 0
133       8    3    0.0285690000000000  -29.3392395559859409  25.5279400176716607 -27.9226659063312148 0 0 0
134       8    3    0.0285690000000000  -29.1732352590974031  24.1873467912967932 -26.7241366058498500 0 0 0
135       8    3    0.0285690000000000  -28.0297679136457347  24.2924527620603925 -28.1179225826036578 0 0 0
136       9    4   -0.0731420000000000  -15.8025855640165585 -2.9529502728491339  -17.2883559189297706 0 0 0
137       9    5    0.0180100000000000  -16.3346690420208347 -4.3402795081456462  -16.9609211805062259 0 0 0
138       9    3    0.0285690000000000  -15.9051519668818333 -2.2851299518612906  -16.4066689248785984 0 0 0
139       9    3    0.0285690000000000  -16.3796548462649980 -2.5210486871458193  -18.1330559482018323 0 0 0
140       9    3    0.0285690000000000  -14.7322411376847349 -3.0117849848097413  -17.5794989756715054 0 0 0
141       9    1   -0.2595700000000000  -15.3854088695945972 -5.0474910092796685  -15.5734359271038620 0 0 0
142       9    2    0.0496050000000000  -16.2200811443469881 -4.9815172652336468  -17.8609498227679282 0 0 0
143       9    2    0.0496050000000000  -17.4046473073684389 -4.2476366510494659  -16.6764512601055195 0 0 0
144       9    5    0.0180100000000000  -16.3220744126891688 -6.6120790600276393  -15.5407721668176180 0 0 0
145       9    4   -0.0731420000000000  -15.7773202430955095 -7.5098573349361812  -14.4397588157121071 0 0 0
146       9    2    0.0496050000000000  -16.2081354936286779 -7.1393383498962928  -16.5120499405623491 0 0 0
147       9    2    0.0496050000000000  -17.3926843436822480 -6.4054579728918597  -15.3275372285222531 0 0 0
148       9    3    0.0285690000000000  -14.7060394188010530 -7.7372825823690965  -14.6255331455562807 0 0 0
149       9    3    0.0285690000000000  -16.3467127735636382 -8.4629650824607090  -14.4186612979480273 0 0 0
150       9    3    0.0285690000000000  -15.8789329350302637 -7.0106277866003817  -13.4526889453856935 0 0 0
151       10   4   -0.0731420000000000   27.1762155185079237 -29.2305636369691051 -27.7722257211371790 0 0 0
152       10   5    0.0180100000000000   27.3951690434374733 -27.9711273957071498 -26.9470660694836894 0 0 0
153       10   3    0.0285690000000000   26.2084903102283668 -29.7034008525423587 -27.5005481688270130 0 0 0
154       10   3    0.0285690000000000   27.9953820378594678 -29.9538209013684273 -27.5749157650602683 0 0 0
155       10   3    0.0285690000000000   27.1706418236039653 -28.9831888990460413 -28.8551096792613286 0 0 0
156       10   1   -0.2595700000000000   26.0486471325301423 -26.7849024346651561 -27.2728073716658770 0 0 0
157       10   2    0.0496050000000000   28.3693461201968660 -27.5245233803209750 -27.2401388946611078 0 0 0
158       10   2    0.0496050000000000   27.3976194136595765 -28.2518937133942956 -25.8721132363611517 0 0 0
159       10   5    0.0180100000000000   26.6977021343598864 -25.5146319222815698 -26.1363719536290411 0 0 0
160       10   4   -0.0731420000000000   25.7772138657380268 -24.3031864614904265 -26.1460970941463913 0 0 0
161       10   2    0.0496050000000000   27.7068753822525125 -25.1912765429353911 -26.4701017907514213 0 0 0
162       10   2    0.0496050000000000   26.7351309782944035 -25.9186395953325501 -25.1020876993460789 0 0 0
163       10   3    0.0285690000000000   25.7198997132608582 -23.8735188137179364 -27.1688276303500693 0 0 0
164       10   3    0.0285690000000000   26.1711685213885339 -23.5288344614730320 -25.4545437362915301 0 0 0
165       10   3    0.0285690000000000   24.7577305024644438 -24.5937234865381065 -25.8142776868103816 0 0 0
166       11   4   -0.0731420000000000  -26.0800711684239239 -28.2111475150974513 -28.9377525501015214 0 0 0
167       11   5    0.0180100000000000  -26.0285610791020865 -27.1188562601729011 -27.8798039371181545 0 0 0
168       11   3    0.0285690000000000  -25.9776624816089416 -29.2100132966968999 -28.4627205355861115 0 0 0
169       11   3    0.0285690000000000  -25.2480900625336133 -28.0716639042035752 -29.6598452293564279 0 0 0
170       11   3    0.0285690000000000  -27.0434021242968825 -28.1658088925522634 -29.4889338928215103 0 0 0
171       11   1   -0.2595700000000000  -27.3958386267752765 -27.3500558645308764 -26.6951279640042110 0 0 0
172       11   2    0.0496050000000000  -26.1312358693618911 -26.1350957894729135 -28.3858089055060603 0 0 0
173       11   2    0.0496050000000000  -25.0549073817610761 -27.1896876409940909 -27.3493883302162288 0 0 0
174       11   5    0.0180100000000000  -26.9534297130991440 -25.9008846057053290 -25.6799816469178950 0 0 0
175       11   4   -0.0731420000000000  -27.9352243243094662 -25.7680596988591475 -24.5252391557019109 0 0 0
176       11   2    0.0496050000000000  -27.0096870865720682 -24.9782291680265232 -26.2963476104912068 0 0 0
177       11   2    0.0496050000000000  -25.9333777927587512 -26.0328304004461195 -25.2599204323787561 0 0 0
178       11   3    0.0285690000000000  -28.9671873602402385 -25.6323250513144174 -24.9131893422316111 0 0 0
179       11   3    0.0285690000000000  -27.6670905155993587 -24.8860355733525047 -23.9062035831773301 0 0 0
180       11   3    0.0285690000000000  -27.9014669113397957 -26.6765388363574836 -23.8869693821736142 0 0 0
181       12   4   -0.0731420000000000  -25.1181924142134712  7.0837275874341170  -4.0635698859121039  0 0 0
182       12   5    0.0180100000000000  -25.5936879392965544  6.0622836023402931  -5.0860985816178204  0 0 0
183       12   3    0.0285690000000000  -25.7493551487707428  7.9965303649992405  -4.1115333655147852  0 0 0
184       12   3    0.0285690000000000  -24.0656355694066200  7.3651793734006024  -4.2779878336835262  0 0 0
185       12   3    0.0285690000000000  -25.1724899621770000  6.6554300354545326  -3.0401071474338259  0 0 0
186       12   1   -0.2595700000000000  -27.3224723284267874  5.6016368127054879  -4.7318848300514631  0 0 0
187       12   2    0.0496050000000000  -24.9427493790586219  5.1647819991602013  -5.0144210580519637  0 0 0
188       12   2    0.0496050000000000  -25.5253587894934668  6.5192176853325856  -6.0964953818835248  0 0 0
189       12   5    0.0180100000000000  -27.4488031736662315  4.4331256291372210  -6.1265056246823928  0 0 0
190       12   4   -0.0731420000000000  -28.8392720541500687  3.8158613252891103  -6.1504724163106452  0 0 0
191       12   2    0.0496050000000000  -26.7047877451422551  3.6173654109558990  -6.0026457911969331  0 0 0
192       12   2    0.0496050000000000  -27.2874153603731315  4.9718007394768486  -7.0847071359111418  0 0 0
193       12   3    0.0285690000000000  -29.0312192336628634  3.2666567881238189  -5.2042126179813923  0 0 0
194       12   3    0.0285690000000000  -28.9176907748920513  3.1040923857293850  -6.9991789723800544  0 0 0
195       12   3    0.0285690000000000  -29.6081026250526200  4.6077567600171019  -6.2756258569449832  0 0 0
196       13   4   -0.0731420000000000  -39.1729679405753402 -16.8782311611774958  17.9804530416325115 0 0 0
197       13   5    0.0180100000000000  -37.9741688378566522 -16.8758306434901009  17.0434985649178117 0 0 0
198       13   3    0.0285690000000000  -39.1462120274635836 -15.9844193950397457  18.6394374507252358 0 0 0
199       13   3    0.0285690000000000  -39.1506043863298316 -17.7901165638784882  18.6137230942027756 0 0 0
200       13   3    0.0285690000000000  -40.1169901957675279 -16.8723750063835070  17.3950893248265395 0 0 0
201       13   1   -0.2595700000000000  -38.0131033619373682 -15.3773482450129304  16.0045602053465288 0 0 0
202       13   2    0.0496050000000000  -38.0289699353645432 -17.7807157521130250  16.4011998927999159 0 0 0
203       13   2    0.0496050000000000  -37.0485431768596598 -16.8839225197222831  17.6579177867386470 0 0 0
204       13   5    0.0180100000000000  -36.4818578904208550 -15.7875558541924725  15.1026943324300387 0 0 0
205       13   4   -0.0731420000000000  -36.1796120458527994 -14.6953250677724032  14.0874738174001468 0 0 0
206       13   2    0.0496050000000000  -36.6115152309132696 -16.7470443293659450  14.5577761827362373 0 0 0
207       13   2    0.0496050000000000  -35.6310985146158927 -15.8502329083947178  15.8144858105024291 0 0 0
208       13   3    0.0285690000000000  -37.0128972783251839 -14.6087272057067672  13.3580812749861977 0 0 0
209       13   3    0.0285690000000000  -35.2474555223842785 -14.9437414406371687  13.5375275847121017 0 0 0
210       13   3    0.0285690000000000  -36.0421291522287746 -13.7207534057825296  14.6024211347123671 0 0 0
211       14   4   -0.0731420000000000  -29.2334327993942011  36.4776828773380970  15.5651759886777761 0 0 0
212       14   5    0.0180100000000000  -27.8463139461525842  36.6091467116744056  16.1764265836413124 0 0 0
213       14   3    0.0285690000000000  -29.8313368801316834  37.3908239975115819  15.7714762758462683 0 0 0
214       14   3    0.0285690000000000  -29.7546834809045642  35.6018720074567412  16.0059924163691925 0 0 0
215       14   3    0.0285690000000000  -29.1560298101253821  36.3321749216561329  14.4666773742564718 0 0 0
216       14   1   -0.2595700000000000  -26.9922760686851291  38.0481130550006554  15.4509243594371988 0 0 0
217       14   2    0.0496050000000000  -27.2758915507276463  35.6818282252353782  15.9549169454624948 0 0 0
218       14   2    0.0496050000000000  -27.9579128028193402  36.7510114062667768  17.2726835911531822 0 0 0
219       14   5    0.0180100000000000  -25.4684468550108782  37.8180178651408880  16.4262939102005809 0 0 0
220       14   4   -0.0731420000000000  -24.4637708530847036  38.9024871935848893  16.0663692759813159 0 0 0
221       14   2    0.0496050000000000  -25.0173250232904891  36.8300479094341924  16.1922652594628076 0 0 0
222       14   2    0.0496050000000000  -25.6993442106728338  37.8992474085396651  17.5100167573010488 0 0 0
223       14   3    0.0285690000000000  -24.2099076476798025  38.8466695201655980  14.9864087167127913 0 0 0
224       14   3    0.0285690000000000  -23.5353479161264971  38.7636674837953734  16.6595195737169206 0 0 0
225       14   3    0.0285690000000000  -24.8852126529767794  39.9053349140951212  16.2911924704501203 0 0 0
226       15   4   -0.0731420000000000  -14.8576449747444546  4.5303748760648528   7.6394483070905572  0 0 0
227       15   5    0.0180100000000000  -15.8231274234499839  5.2586877997012049   6.7161863350014528  0 0 0
228       15   3    0.0285690000000000  -14.9601699905544674  3.4317208435353157   7.5116839085291121  0 0 0
229       15   3    0.0285690000000000  -15.0825064641632345  4.7900368005195766   8.6954213518529748  0 0 0
230       15   3    0.0285690000000000  -13.8118944822937184  4.8284849586545553   7.4127342140186352  0 0 0
231       15   1   -0.2595700000000000  -15.4518557621465256  4.8306643631160746   4.9826028781275769  0 0 0
232       15   2    0.0496050000000000  -15.6976949582725194  6.3519597857400729   6.8691270605199879  0 0 0
233       15   2    0.0496050000000000  -16.8573827790004209  4.9413026936713891   6.9690536458300301  0 0 0
234       15   5    0.0180100000000000  -16.7788261695121470  5.8724607314241171   4.2896707787439929  0 0 0
235       15   4   -0.0731420000000000  -16.7746342330948579  5.7615303315884532   2.7722156032737617  0 0 0
236       15   2    0.0496050000000000  -16.6054615267213137  6.9349374632880760   4.5643575907275338  0 0 0
237       15   2    0.0496050000000000  -17.7651364574475359  5.5242714264920494   4.6642682436896816  0 0 0
238       15   3    0.0285690000000000  -15.7997999922539805  6.1052032301475361   2.3654428276604378  0 0 0
239       15   3    0.0285690000000000  -17.5821416745013508  6.3953810253122843   2.3488571646677245  0 0 0
240       15   3    0.0285690000000000  -16.9480626105130234  4.7084301703009412   2.4643765898230314  0 0 0
241       16   4   -0.0731420000000000  -37.9927978039762735 -35.4436769762092823  14.3215419297299924 0 0 0
242       16   5    0.0180100000000000  -37.9350365804003218 -36.2271208404026694  15.6245722806078078 0 0 0
243       16   3    0.0285690000000000  -36.9661151409285651 -35.2557644762036517  13.9414269401032769 0 0 0
244       16   3    0.0285690000000000  -38.4943705476642393 -34.4680808149855622  14.4938874799912103 0 0 0
245       16   3    0.0285690000000000  -38.5667667546652950 -36.0110112585686224  13.5582893833832561 0 0 0
246       16   1   -0.2595700000000000  -37.1109167129201936 -37.8288776611965716  15.3389854430877826 0 0 0
247       16   2    0.0496050000000000  -38.9744378930802000 -36.3964285276517998  15.9786169423917439 0 0 0
248       16   2    0.0496050000000000  -37.3578662373918107 -35.6336788820696739  16.3655583534467830 0 0 0
249       16   5    0.0180100000000000  -37.2649268797675219 -38.3808236018479789  17.0704534839439077 0 0 0
250       16   4   -0.0731420000000000  -36.6486720203471279 -39.7636922587288524  17.2217728863920314 0 0 0
251       16   2    0.0496050000000000  -38.3379425699113057 -38.4420681062897387  17.3519697164793314 0 0 0
252       16   2    0.0496050000000000  -36.7213626235621362 -37.6793344550383367  17.7388978819189198 0 0 0
253       16   3    0.0285690000000000  -37.1729316006872423 -40.4908461037732650  16.5658185226145562 0 0 0
254       16   3    0.0285690000000000  -36.7417104353036095 -40.1011062181905231  18.2756054208598009 0 0 0
255       16   3    0.0285690000000000  -35.5722716962897465 -39.7356153157390040  16.9489428337190979 0 0 0
256       17   4   -0.0731420000000000   26.1033732432389201  17.7502207230395292  35.4486381005079636 0 0 0
257       17   5    0.0180100000000000   26.0237472381334705  16.5594806563863912  36.3924635799149598 0 0 0
258       17   3    0.0285690000000000   26.0549795009609397  18.6992247783568324  36.0238990432979804 0 0 0
259       17   3    0.0285690000000000   25.2520695002181199  17.7201355573062926  34.7362878386131868 0 0 0
260       17   3    0.0285690000000000   27.0527859172139991  17.7201097440046169  34.8728153003019656 0 0 0
261       17   1   -0.2595700000000000   27.4228285170136239  16.6110868048693128  37.5613376925660063 0 0 0
262       17   2    0.0496050000000000   26.0724777786256681  15.6286191537424735  35.7879058890211468 0 0 0
263       17   2    0.0496050000000000   25.0647582579946366  16.6174737276616469  36.9504387250212005 0 0 0
264       17   5    0.0180100000000000   26.9359879447566222  15.0865759286318841  38.4360935869950282 0 0 0
265       17   4   -0.0731420000000000   27.9331957960970421  14.7957753043028024  39.5478511296340969 0 0 0
266       17   2    0.0496050000000000   26.9389346842065294  14.2296097523326299  37.7290113858291036 0 0 0
267       17   2    0.0496050000000000   25.9312348824378809  15.2184721654589783  38.8915512725948815 0 0 0
268       17   3    0.0285690000000000   28.9503026278701086  14.6563516724658207  39.1236675691960301 0 0 0
269       17   3    0.0285690000000000   27.6380406785353969  13.8677289840850264  40.0814060204442129 0 0 0
270       17   3    0.0285690000000000   27.9525159304794393  15.6354745460252289  40.2747583629577406 0 0 0
271       18   4   -0.0731420000000000   7.9952308777598793   27.1714532793172410 -27.1726558299566747 0 0 0