
                                 *****************
                                 * O   R   C   A *
                                 *****************

           --- An Ab Initio, DFT and Semiempirical electronic structure package ---

                  #######################################################
                  #                        -***-                        #
                  #          Department of theory and spectroscopy      #
                  #               Directorship: Frank Neese             #
                  #        Max Planck Institute fuer Kohlenforschung    #
                  #                Kaiser Wilhelm Platz 1               #
                  #                 D-45470 Muelheim/Ruhr               #
                  #                      Germany                        #
                  #                                                     #
                  #                  All rights reserved                #
                  #                        -***-                        #
                  #######################################################


                         Program Version 4.1.2  - RELEASE  -


 With contributions from (in alphabetic order):
   Daniel Aravena         : Magnetic Properties
   Michael Atanasov       : Ab Initio Ligand Field Theory
   Alexander A. Auer      : GIAO ZORA
   Ute Becker             : Parallelization
   Giovanni Bistoni       : ED, Open-shell LED
   Martin Brehm           : Molecular dynamics
   Dmytro Bykov           : SCF Hessian
   Vijay G. Chilkuri      : MRCI spin determinant printing
   Dipayan Datta          : RHF DLPNO-CCSD density
   Achintya Kumar Dutta   : EOM-CC, STEOM-CC
   Dmitry Ganyushin       : Spin-Orbit,Spin-Spin,Magnetic field MRCI
   Miquel Garcia          : C-PCM Hessian
   Yang Guo               : DLPNO-NEVPT2, CIM, IAO-localization
   Andreas Hansen         : Spin unrestricted coupled pair/coupled cluster methods
   Benjamin Helmich-Paris : CASSCF linear response (MC-RPA)
   Lee Huntington         : MR-EOM, pCC
   Robert Izsak           : Overlap fitted RIJCOSX, COSX-SCS-MP3, EOM
   Christian Kollmar      : KDIIS, OOCD, Brueckner-CCSD(T), CCSD density
   Simone Kossmann        : Meta GGA functionals, TD-DFT gradient, OOMP2, MP2 Hessian
   Martin Krupicka        : AUTO-CI
   Lucas Lang             : DCDCAS
   Dagmar Lenk            : GEPOL surface, SMD
   Dimitrios Liakos       : Extrapolation schemes; parallel MDCI
   Dimitrios Manganas     : ROCIS; embedding schemes
   Dimitrios Pantazis     : SARC Basis sets
   Taras Petrenko         : DFT Hessian,TD-DFT gradient, ASA, ECA, R-Raman, ABS, FL, XAS/XES, NRVS
   Peter Pinski           : DLPNO-MP2, DLPNO-MP2 Gradient
   Christoph Reimann      : Effective Core Potentials
   Marius Retegan         : Local ZFS, SOC
   Christoph Riplinger    : Optimizer, TS searches, QM/MM, DLPNO-CCSD(T), (RO)-DLPNO pert. Triples
   Tobias Risthaus        : Range-separated hybrids, TD-DFT gradient, RPA, STAB
   Michael Roemelt        : Restricted open shell CIS
   Masaaki Saitow         : Open-shell DLPNO
   Barbara Sandhoefer     : DKH picture change effects
   Avijit Sen             : IP-ROCIS
   Kantharuban Sivalingam : CASSCF convergence, NEVPT2, FIC-MRCI
   Bernardo de Souza      : ESD, SOC TD-DFT
   Georgi Stoychev        : AutoAux, RI-MP2 NMR
   Willem Van den Heuvel  : Paramagnetic NMR
   Boris Wezisla          : Elementary symmetry handling
   Frank Wennmohs         : Technical directorship


 We gratefully acknowledge several colleagues who have allowed us to
 interface, adapt or use parts of their codes:
   Stefan Grimme, W. Hujo, H. Kruse,             : VdW corrections, initial TS optimization,
                  C. Bannwarth                     DFT functionals, gCP, sTDA/sTD-DF
   Ed Valeev                                     : LibInt (2-el integral package), F12 methods
   Garnet Chan, S. Sharma, J. Yang, R. Olivares  : DMRG
   Ulf Ekstrom                                   : XCFun DFT Library
   Mihaly Kallay                                 : mrcc  (arbitrary order and MRCC methods)
   Andreas Klamt, Michael Diedenhofen            : otool_cosmo (COSMO solvation model)
   Jiri Pittner, Ondrej Demel                    : Mk-CCSD
   Frank Weinhold                                : gennbo (NPA and NBO analysis)
   Christopher J. Cramer and Donald G. Truhlar   : smd solvation model
   Lars Goerigk                                  : TD-DFT with DH, B97 family of functionals
   V. Asgeirsson, H. Jonsson                     : NEB implementation
   FAccTs GmbH                                   : IRC, NEB, NEB-TS, Multilevel


 Your calculation uses the libint2 library for the computation of 2-el integrals
 For citations please refer to: http://libint.valeyev.net

 This ORCA versions uses:
   CBLAS   interface :  Fast vector & matrix operations
   LAPACKE interface :  Fast linear algebra routines
   SCALAPACK package :  Parallel linear algebra routines


Your calculation utilizes the atom-pairwise dispersion correction
with the zero-damping scheme (D30)
Cite in your paper:
S.Grimme, J.Antony, S.Ehrlich and H.Krieg, J.Chem.Phys., 132, (2010), 154104 
   

XCFun DFT library Copyright 2009-2010 Ulf Ekstrom and contributors.
See http://admol.org/xcfun for more information. This is free soft-
ware; see the source code for copying conditions. There is ABSOLUTELY
NO WARRANTY; not even for MERCHANTABILITY or FITNESS FOR A PARTICULAR
PURPOSE. For details see the documentation. Scientific users of this 
library should cite U. Ekstrom, L. Visscher, R. Bast, A. J. Thorvald-
sen and K. Ruud; J.Chem.Theor.Comp. 2010, DOI: 10.1021/ct100117s
XCFun Version 0.99 
----- Orbital basis set information -----
Your calculation utilizes the basis: def2-TZVP
   F. Weigend and R. Ahlrichs, Phys. Chem. Chem. Phys. 7, 3297 (2005).

================================================================================
                                        WARNINGS
                       Please study these warnings very carefully!
================================================================================


INFO   : the flag for use of LIBINT has been found!

Your calculation utilizes the atom-pairwise dispersion correction
with the zero-damping scheme (D30)
Cite in your paper:
S.Grimme, J.Antony, S.Ehrlich and H.Krieg, J.Chem.Phys., 132, (2010), 154104 
   

XCFun DFT library Copyright 2009-2010 Ulf Ekstrom and contributors.
See http://admol.org/xcfun for more information. This is free soft-
ware; see the source code for copying conditions. There is ABSOLUTELY
NO WARRANTY; not even for MERCHANTABILITY or FITNESS FOR A PARTICULAR
PURPOSE. For details see the documentation. Scientific users of this 
library should cite U. Ekstrom, L. Visscher, R. Bast, A. J. Thorvald-
sen and K. Ruud; J.Chem.Theor.Comp. 2010, DOI: 10.1021/ct100117s
XCFun Version 0.99 
----- Orbital basis set information -----
Your calculation utilizes the basis: def2-TZVP
   F. Weigend and R. Ahlrichs, Phys. Chem. Chem. Phys. 7, 3297 (2005).

================================================================================
                                        WARNINGS
                       Please study these warnings very carefully!
================================================================================


WARNING: MOInp is set but Guess=PModel. MOInp will be ignored!
         To read the initial guess from a file you must also specify
         'MORead' in the simple input or 'Guess MORead' in the %scf block


INFO   : the flag for use of LIBINT has been found!

Your calculation utilizes the atom-pairwise dispersion correction
with the zero-damping scheme (D30)
Cite in your paper:
S.Grimme, J.Antony, S.Ehrlich and H.Krieg, J.Chem.Phys., 132, (2010), 154104 
   

XCFun DFT library Copyright 2009-2010 Ulf Ekstrom and contributors.
See http://admol.org/xcfun for more information. This is free soft-
ware; see the source code for copying conditions. There is ABSOLUTELY
NO WARRANTY; not even for MERCHANTABILITY or FITNESS FOR A PARTICULAR
PURPOSE. For details see the documentation. Scientific users of this 
library should cite U. Ekstrom, L. Visscher, R. Bast, A. J. Thorvald-
sen and K. Ruud; J.Chem.Theor.Comp. 2010, DOI: 10.1021/ct100117s
XCFun Version 0.99 
----- Orbital basis set information -----
Your calculation utilizes the basis: def2-TZVP
   F. Weigend and R. Ahlrichs, Phys. Chem. Chem. Phys. 7, 3297 (2005).

================================================================================
                                        WARNINGS
                       Please study these warnings very carefully!
================================================================================


WARNING: MOInp is set but Guess=PModel. MOInp will be ignored!
         To read the initial guess from a file you must also specify
         'MORead' in the simple input or 'Guess MORead' in the %scf block


INFO   : the flag for use of LIBINT has been found!

================================================================================
                                       INPUT FILE
================================================================================
NAME = 11-46.in
|  1> #Run DFT-D3 single point of the dimer
|  2> ! wB97X-D3 def2-TZVP TIGHTSCF CHELPG PMODEL PAL8
|  3> 
|  4> %base "11-46_DFT_AB"
|  5> 
|  6> %scf
|  7> MaxIter 1000
|  8> end
|  9> 
| 10> * xyz 0 1
| 11>   C                      -6.809828            -7.466043            3.576054            
| 12>   O                      -7.899568            -7.122431            2.761647            
| 13>   H                      -8.485116            -6.571884            3.300043            
| 14>   H                      -6.140757            -8.235801            3.211368            
| 15>   H                      -6.195975            -6.624707            3.804071            
| 16>   H                      -7.153628            -7.872314            4.553636            
| 17>   C                      -7.659629            -4.472034            5.252038            
| 18>   O                      -8.518829            -4.748822            4.136675            
| 19>   H                      -9.275437            -4.126430            4.062496            
| 20>   H                      -6.893624            -5.275388            5.267629            
| 21>   H                      -7.228614            -3.404280            5.310936            
| 22>   H                      -8.259196            -4.497080            6.162074            
| 23> *
| 24> 
| 25> #Run DFT-D3 single point of the molecule with dimer basis set
| 26> $new_job
| 27> %base "11-46_DFT_A"
| 28> ! wB97X-D3 def2-TZVP TIGHTSCF CHELPG PMODEL
| 29> 
| 30> %scf
| 31> MaxIter 1000
| 32> end
| 33> 
| 34> * xyz 0 1
| 35>   C                      -6.809828            -7.466043            3.576054            
| 36>   O                      -7.899568            -7.122431            2.761647            
| 37>   H                      -8.485116            -6.571884            3.300043            
| 38>   H                      -6.140757            -8.235801            3.211368            
| 39>   H                      -6.195975            -6.624707            3.804071            
| 40>   H                      -7.153628            -7.872314            4.553636            
| 41>   C                    : -7.659629            -4.472034            5.252038            
| 42>   O                    : -8.518829            -4.748822            4.136675            
| 43>   H                    : -9.275437            -4.126430            4.062496            
| 44>   H                    : -6.893624            -5.275388            5.267629            
| 45>   H                    : -7.228614            -3.404280            5.310936            
| 46>   H                    : -8.259196            -4.497080            6.162074            
| 47> *
| 48> 
| 49> #Run DFT-D3 single point of the particle with dimer basis set
| 50> $new_job
| 51> %base "11-46_DFT_B"
| 52> ! wB97X-D3 def2-TZVP TIGHTSCF CHELPG PMODEL
| 53> 
| 54> %scf
| 55> MaxIter 1000
| 56> end
| 57> 
| 58> * xyz 0 1
| 59>   C                    : -6.809828            -7.466043            3.576054            
| 60>   O                    : -7.899568            -7.122431            2.761647            
| 61>   H                    : -8.485116            -6.571884            3.300043            
| 62>   H                    : -6.140757            -8.235801            3.211368            
| 63>   H                    : -6.195975            -6.624707            3.804071            
| 64>   H                    : -7.153628            -7.872314            4.553636            
| 65>   C                      -7.659629            -4.472034            5.252038            
| 66>   O                      -8.518829            -4.748822            4.136675            
| 67>   H                      -9.275437            -4.126430            4.062496            
| 68>   H                      -6.893624            -5.275388            5.267629            
| 69>   H                      -7.228614            -3.404280            5.310936            
| 70>   H                      -8.259196            -4.497080            6.162074            
| 71> *
| 72> 
| 73>                          ****END OF INPUT****
================================================================================


                 $$$$$$$$$$$$$$$$$$$$$$$$$$$$$$$$$$$$$$$$$$$$$$ 
                 $ THERE ARE  3 JOBS TO BE PROCESSED THIS RUN $
                 $$$$$$$$$$$$$$$$$$$$$$$$$$$$$$$$$$$$$$$$$$$$$$ 




                 $$$$$$$$$$$$$$$$  JOB NUMBER  1 $$$$$$$$$$$$$$


                       ****************************
                       * Single Point Calculation *
                       ****************************

---------------------------------
CARTESIAN COORDINATES (ANGSTROEM)
---------------------------------
  C     -6.809828   -7.466043    3.576054
  O     -7.899568   -7.122431    2.761647
  H     -8.485116   -6.571884    3.300043
  H     -6.140757   -8.235801    3.211368
  H     -6.195975   -6.624707    3.804071
  H     -7.153628   -7.872314    4.553636
  C     -7.659629   -4.472034    5.252038
  O     -8.518829   -4.748822    4.136675
  H     -9.275437   -4.126430    4.062496
  H     -6.893624   -5.275388    5.267629
  H     -7.228614   -3.404280    5.310936
  H     -8.259196   -4.497080    6.162074

----------------------------
CARTESIAN COORDINATES (A.U.)
----------------------------
  NO LB      ZA    FRAG     MASS         X           Y           Z
   0 C     6.0000    0    12.011  -12.868710  -14.108777    6.757763
   1 O     8.0000    0    15.999  -14.928020  -13.459444    5.218757
   2 H     1.0000    0     1.008  -16.034545  -12.419061    6.236178
   3 H     1.0000    0     1.008  -11.604349  -15.563408    6.068606
   4 H     1.0000    0     1.008  -11.708696  -12.518882    7.188652
   5 H     1.0000    0     1.008  -13.518398  -14.876518    8.605125
   6 C     6.0000    0    12.011  -14.474601   -8.450920    9.924913
   7 O     8.0000    0    15.999  -16.098254   -8.973973    7.817183
   8 H     1.0000    0     1.008  -17.528036   -7.797823    7.677005
   9 H     1.0000    0     1.008  -13.027061   -9.969039    9.954376
  10 H     1.0000    0     1.008  -13.660101   -6.433157   10.036215
  11 H     1.0000    0     1.008  -15.607619   -8.498250   11.644632

--------------------------------
INTERNAL COORDINATES (ANGSTROEM)
--------------------------------
 C      0   0   0     0.000000000000     0.00000000     0.00000000
 O      1   0   0     1.403161158169     0.00000000     0.00000000
 H      2   1   0     0.967387570899   106.64416445     0.00000000
 H      1   2   3     1.083133999190   117.28081693   168.50398645
 H      1   2   3     1.066139541896   112.21277653   291.69629153
 H      1   2   3     1.113068341192   111.05472602    50.31735176
 C      5   1   2     2.978740087643   113.03819722    60.12269856
 O      7   5   1     1.434876600518    77.11275396   309.94492204
 H      8   7   5     0.982512082047   113.42882681   186.79223405
 H      7   5   1     1.110128095592    31.21854347   110.09840168
 H      7   5   1     1.152970732129   120.69111561   196.88379285
 H      7   5   1     1.090079543382   131.25955444    53.20394058

---------------------------
INTERNAL COORDINATES (A.U.)
---------------------------
 C      0   0   0     0.000000000000     0.00000000     0.00000000
 O      1   0   0     2.651590310694     0.00000000     0.00000000
 H      2   1   0     1.828097574358   106.64416445     0.00000000
 H      1   2   3     2.046826624808   117.28081693   168.50398645
 H      1   2   3     2.014711754728   112.21277653   291.69629153
 H      1   2   3     2.103394333192   111.05472602    50.31735176
 C      5   1   2     5.629002989779   113.03819722    60.12269856
 O      7   5   1     2.711523810950    77.11275396   309.94492204
 H      8   7   5     1.856678758338   113.42882681   186.79223405
 H      7   5   1     2.097838074240    31.21854347   110.09840168
 H      7   5   1     2.178798924150   120.69111561   196.88379285
 H      7   5   1     2.059951801183   131.25955444    53.20394058

---------------------
BASIS SET INFORMATION
---------------------
There are 3 groups of distinct atoms

 Group   1 Type C   : 11s6p2d1f contracted to 5s3p2d1f pattern {62111/411/11/1}
 Group   2 Type O   : 11s6p2d1f contracted to 5s3p2d1f pattern {62111/411/11/1}
 Group   3 Type H   : 5s1p contracted to 3s1p pattern {311/1}

Atom   0C    basis set group =>   1
Atom   1O    basis set group =>   2
Atom   2H    basis set group =>   3
Atom   3H    basis set group =>   3
Atom   4H    basis set group =>   3
Atom   5H    basis set group =>   3
Atom   6C    basis set group =>   1
Atom   7O    basis set group =>   2
Atom   8H    basis set group =>   3
Atom   9H    basis set group =>   3
Atom  10H    basis set group =>   3
Atom  11H    basis set group =>   3


           ************************************************************
           *        Program running with 8 parallel MPI-processes     *
           *              working on a common directory               *
           ************************************************************
------------------------------------------------------------------------------
                           ORCA GTO INTEGRAL CALCULATION
------------------------------------------------------------------------------

                         BASIS SET STATISTICS AND STARTUP INFO

 # of primitive gaussian shells          ...  128
 # of primitive gaussian functions       ...  248
 # of contracted shells                  ...   76
 # of contracted basis functions         ...  172
 Highest angular momentum                ...    3
 Maximum contraction depth               ...    6
 Integral package used                   ... LIBINT
 Integral threshhold            Thresh   ...  2.500e-11
 Primitive cut-off              TCut     ...  2.500e-12


------------------------------ INTEGRAL EVALUATION ----------------------------


 * One electron integrals 
 Pre-screening matrix                    ... done
 Shell pair data                         ... done (   0.001 sec)



           ************************************************************
           *        Program running with 8 parallel MPI-processes     *
           *              working on a common directory               *
           ************************************************************
-------------------------------------------------------------------------------
                                 ORCA SCF
-------------------------------------------------------------------------------

------------
SCF SETTINGS
------------
Hamiltonian:
 Density Functional     Method          .... DFT(GTOs)
 Exchange Functional    Exchange        .... WB97X-D3
 Correlation Functional Correlation     .... WB97X-D3
 Gradients option       PostSCFGGA      .... off
 Hybrid DFT is turned on
   Fraction HF Exchange ScalHFX         ....  0.195728
   Scaling of DF-GGA-X  ScalDFX         ....  0.000000
   Scaling of DF-GGA-C  ScalDFC         ....  1.000000
   Scaling of DF-LDA-C  ScalLDAC        ....  1.000000
   Perturbative correction              ....  0.000000
   Density functional embedding theory  .... OFF
 Long-range corrected/Screened/Range-Separated Hybrid DFT is turned on
   Amount of maximum screened exact exchange              ....  0.804272
   Range separation parameter mu (erf(mu*r12)/r12)        ....  0.250000


General Settings:
 Integral files         IntName         .... 11-46_DFT_AB
 Hartree-Fock type      HFTyp           .... RHF
 Total Charge           Charge          ....    0
 Multiplicity           Mult            ....    1
 Number of Electrons    NEL             ....   36
 Basis Dimension        Dim             ....  172
 Nuclear Repulsion      ENuc            ....    131.9656804132 Eh

Convergence Acceleration:
 DIIS                   CNVDIIS         .... on
   Start iteration      DIISMaxIt       ....    12
   Startup error        DIISStart       ....  0.200000
   # of expansion vecs  DIISMaxEq       ....     5
   Bias factor          DIISBfac        ....   1.050
   Max. coefficient     DIISMaxC        ....  10.000
 Newton-Raphson         CNVNR           .... off
 SOSCF                  CNVSOSCF        .... on
   Start iteration      SOSCFMaxIt      ....   150
   Startup grad/error   SOSCFStart      ....  0.003300
 Level Shifting         CNVShift        .... on
   Level shift para.    LevelShift      ....    0.2500
   Turn off err/grad.   ShiftErr        ....    0.0010
 Zerner damping         CNVZerner       .... off
 Static damping         CNVDamp         .... on
   Fraction old density DampFac         ....    0.7000
   Max. Damping (<1)    DampMax         ....    0.9800
   Min. Damping (>=0)   DampMin         ....    0.0000
   Turn off err/grad.   DampErr         ....    0.1000
 Fernandez-Rico         CNVRico         .... off

SCF Procedure:
 Maximum # iterations   MaxIter         ....  1000
 SCF integral mode      SCFMode         .... Direct
   Integral package                     .... LIBINT
 Reset frequency        DirectResetFreq ....    20
 Integral Threshold     Thresh          ....  2.500e-11 Eh
 Primitive CutOff       TCut            ....  2.500e-12 Eh

Convergence Tolerance:
 Convergence Check Mode ConvCheckMode   .... Total+1el-Energy
 Convergence forced     ConvForced      .... 0
 Energy Change          TolE            ....  1.000e-08 Eh
 1-El. energy change                    ....  1.000e-05 Eh
 Orbital Gradient       TolG            ....  1.000e-05
 Orbital Rotation angle TolX            ....  1.000e-05
 DIIS Error             TolErr          ....  5.000e-07


Diagonalization of the overlap matrix:
Smallest eigenvalue                        ... 1.364e-03
Time for diagonalization                   ...    0.004 sec
Threshold for overlap eigenvalues          ... 1.000e-08
Number of eigenvalues below threshold      ... 0
Time for construction of square roots      ...    0.037 sec
Total time needed                          ...    0.042 sec

-------------------
DFT GRID GENERATION
-------------------

General Integration Accuracy     IntAcc      ...  4.340
Radial Grid Type                 RadialGrid  ... Gauss-Chebyshev
Angular Grid (max. acc.)         AngularGrid ... Lebedev-110
Angular grid pruning method      GridPruning ... 3 (G Style)
Weight generation scheme         WeightScheme... Becke
Basis function cutoff            BFCut       ...    1.0000e-11
Integration weight cutoff        WCut        ...    1.0000e-14
Grids for H and He will be reduced by one unit

# of grid points (after initial pruning)     ...  13096 (   0.0 sec)
# of grid points (after weights+screening)   ...  12400 (   0.0 sec)
nearest neighbour list constructed           ...    0.0 sec
Grid point re-assignment to atoms done       ...    0.0 sec
Grid point division into batches done        ...    0.0 sec
Reduced shell lists constructed in    0.0 sec

Total number of grid points                  ...    12400
Total number of batches                      ...      199
Average number of points per batch           ...       62
Average number of grid points per atom       ...     1033
Average number of shells per batch           ...    52.73 (69.38%)
Average number of basis functions per batch  ...   119.19 (69.30%)
Average number of large shells per batch     ...    42.27 (80.16%)
Average number of large basis fcns per batch ...    94.50 (79.28%)
Maximum spatial batch extension              ...  15.38, 19.11, 14.28 au
Average spatial batch extension              ...   0.45,  0.50,  0.45 au

Time for grid setup =    0.058 sec

------------------------------
INITIAL GUESS: MODEL POTENTIAL
------------------------------
Loading Hartree-Fock densities                     ... done
Calculating cut-offs                               ... done
Setting up the integral package                    ... done
Initializing the effective Hamiltonian             ... done
Starting the Coulomb interaction                   ... done (   0.0 sec)
Reading the grid                                   ... done
Mapping shells                                     ... done
Starting the XC term evaluation                    ... done (   0.0 sec)
  promolecular density results
     # of electrons  =     35.999427373
     EX              =    -28.852339107
     EC              =     -1.157013720
     EX+EC           =    -30.009352827
Transforming the Hamiltonian                       ... done (   0.0 sec)
Diagonalizing the Hamiltonian                      ... done (   0.0 sec)
Back transforming the eigenvectors                 ... done (   0.0 sec)
Now organizing SCF variables                       ... done
                      ------------------
                      INITIAL GUESS DONE (   0.2 sec)
                      ------------------
--------------
SCF ITERATIONS
--------------
ITER       Energy         Delta-E        Max-DP      RMS-DP      [F,P]     Damp
               ***  Starting incremental Fock matrix formation  ***
  0   -231.3055735773   0.000000000000 0.03569097  0.00105464  0.2364335 0.7000
  1   -231.3749289221  -0.069355344842 0.02082810  0.00075714  0.1172342 0.7000
                               ***Turning on DIIS***
  2   -231.4068932018  -0.031964279671 0.03088467  0.00137986  0.0448212 0.0000
  3   -231.4588465326  -0.051953330841 0.01725520  0.00049596  0.0595501 0.0000
  4   -231.4673703194  -0.008523786783 0.00422408  0.00010032  0.0062851 0.0000
                      *** Initiating the SOSCF procedure ***
                           *** Shutting down DIIS ***
                      *** Re-Reading the Fockian *** 
                      *** Removing any level shift *** 
ITER      Energy       Delta-E        Grad      Rot      Max-DP    RMS-DP
  5   -231.46754338  -0.0001730643  0.000433  0.000433  0.000816  0.000037
               *** Restarting incremental Fock matrix formation ***
  6   -231.46756087  -0.0000174892  0.000130  0.000207  0.000638  0.000023
  7   -231.46756269  -0.0000018187  0.000047  0.000111  0.000341  0.000011
  8   -231.46756284  -0.0000001470  0.000025  0.000019  0.000057  0.000001
  9   -231.46756287  -0.0000000355  0.000011  0.000011  0.000024  0.000001
 10   -231.46756288  -0.0000000038  0.000004  0.000004  0.000008  0.000000
                  ***Gradient check signals convergence***
              ***Rediagonalizing the Fockian in SOSCF/NRSCF***

               *****************************************************
               *                     SUCCESS                       *
               *           SCF CONVERGED AFTER  11 CYCLES          *
               *****************************************************

Setting up the final grid:

General Integration Accuracy     IntAcc      ...  4.670
Radial Grid Type                 RadialGrid  ... Gauss-Chebyshev
Angular Grid (max. acc.)         AngularGrid ... Lebedev-302
Angular grid pruning method      GridPruning ... 3 (G Style)
Weight generation scheme         WeightScheme... Becke
Basis function cutoff            BFCut       ...    1.0000e-11
Integration weight cutoff        WCut        ...    1.0000e-14
Grids for H and He will be reduced by one unit

# of grid points (after initial pruning)     ...  52000 (   0.0 sec)
# of grid points (after weights+screening)   ...  48816 (   0.0 sec)
nearest neighbour list constructed           ...    0.0 sec
Grid point re-assignment to atoms done       ...    0.0 sec
Grid point division into batches done        ...    0.2 sec
Reduced shell lists constructed in    0.2 sec

Total number of grid points                  ...    48816
Total number of batches                      ...      771
Average number of points per batch           ...       63
Average number of grid points per atom       ...     4068
Average number of shells per batch           ...    50.16 (66.00%)
Average number of basis functions per batch  ...   111.76 (64.97%)
Average number of large shells per batch     ...    40.15 (80.04%)
Average number of large basis fcns per batch ...    89.42 (80.01%)
Maximum spatial batch extension              ...  15.33, 16.70, 16.58 au
Average spatial batch extension              ...   0.29,  0.29,  0.27 au

Final grid set up in    0.2 sec
Final integration                            ... done (   0.1 sec)
Change in XC energy                          ...    -0.000163379
Integrated number of electrons               ...    36.000003044
Previous integrated no of electrons          ...    35.999478230

----------------
TOTAL SCF ENERGY
----------------

Total Energy       :         -231.46772626 Eh           -6298.55704 eV

Components:
Nuclear Repulsion  :          131.96568041 Eh            3590.96873 eV
Electronic Energy  :         -363.43340667 Eh           -9889.52577 eV
One Electron Energy:         -576.83737597 Eh          -15696.54300 eV
Two Electron Energy:          213.40396930 Eh            5807.01723 eV

Virial components:
Potential Energy   :         -461.82235137 Eh          -12566.82507 eV
Kinetic Energy     :          230.35462511 Eh            6268.26802 eV
Virial Ratio       :            2.00483212


DFT components:
N(Alpha)           :       18.000001521810 electrons
N(Beta)            :       18.000001521810 electrons
N(Total)           :       36.000003043621 electrons
E(XC)              :      -21.285477350351 Eh       
DFET-embed. en.    :        0.000000000000 Eh       

---------------
SCF CONVERGENCE
---------------

  Last Energy change         ...   -1.0789e-09  Tolerance :   1.0000e-08
  Last MAX-Density change    ...    2.8350e-06  Tolerance :   1.0000e-07
  Last RMS-Density change    ...    9.7203e-08  Tolerance :   5.0000e-09
  Last Orbital Gradient      ...    1.3126e-06  Tolerance :   1.0000e-05
  Last Orbital Rotation      ...    1.3158e-06  Tolerance :   1.0000e-05

             **** THE GBW FILE WAS UPDATED (11-46_DFT_AB.gbw) ****
             **** DENSITY FILE WAS UPDATED (11-46_DFT_AB.scfp.tmp) ****
             **** ENERGY FILE WAS UPDATED (11-46_DFT_AB.en.tmp) ****
----------------
ORBITAL ENERGIES
----------------

  NO   OCC          E(Eh)            E(eV) 
   0   2.0000     -19.253495      -523.9142 
   1   2.0000     -19.204411      -522.5786 
   2   2.0000     -10.337174      -281.2888 
   3   2.0000     -10.296510      -280.1823 
   4   2.0000      -1.145760       -31.1777 
   5   2.0000      -1.113263       -30.2934 
   6   2.0000      -0.808231       -21.9931 
   7   2.0000      -0.780812       -21.2470 
   8   2.0000      -0.631721       -17.1900 
   9   2.0000      -0.594371       -16.1737 
  10   2.0000      -0.544458       -14.8155 
  11   2.0000      -0.538836       -14.6625 
  12   2.0000      -0.521826       -14.1996 
  13   2.0000      -0.514577       -14.0024 
  14   2.0000      -0.461821       -12.5668 
  15   2.0000      -0.406663       -11.0659 
  16   2.0000      -0.389112       -10.5883 
  17   2.0000      -0.350168        -9.5286 
  18   0.0000       0.096709         2.6316 
  19   0.0000       0.131895         3.5890 
  20   0.0000       0.154101         4.1933 
  21   0.0000       0.178544         4.8584 
  22   0.0000       0.187390         5.0991 
  23   0.0000       0.202166         5.5012 
  24   0.0000       0.207230         5.6390 
  25   0.0000       0.219904         5.9839 
  26   0.0000       0.229834         6.2541 
  27   0.0000       0.260705         7.0941 
  28   0.0000       0.310190         8.4407 
  29   0.0000       0.321077         8.7369 
  30   0.0000       0.343014         9.3339 
  31   0.0000       0.368613        10.0305 
  32   0.0000       0.410563        11.1720 
  33   0.0000       0.424236        11.5441 
  34   0.0000       0.451141        12.2762 
  35   0.0000       0.468176        12.7397 
  36   0.0000       0.475615        12.9421 
  37   0.0000       0.495112        13.4727 
  38   0.0000       0.516092        14.0436 
  39   0.0000       0.527939        14.3660 
  40   0.0000       0.562671        15.3111 
  41   0.0000       0.568148        15.4601 
  42   0.0000       0.578573        15.7438 
  43   0.0000       0.600572        16.3424 
  44   0.0000       0.607422        16.5288 
  45   0.0000       0.624556        16.9950 
  46   0.0000       0.652332        17.7508 
  47   0.0000       0.678567        18.4647 
  48   0.0000       0.744073        20.2472 
  49   0.0000       0.755624        20.5616 
  50   0.0000       0.787269        21.4227 
  51   0.0000       0.818939        22.2845 
  52   0.0000       0.836171        22.7534 
  53   0.0000       0.854774        23.2596 
  54   0.0000       0.897156        24.4129 
  55   0.0000       0.944240        25.6941 
  56   0.0000       0.985970        26.8296 
  57   0.0000       0.997267        27.1370 
  58   0.0000       1.060754        28.8646 
  59   0.0000       1.083039        29.4710 
  60   0.0000       1.127314        30.6758 
  61   0.0000       1.155525        31.4434 
  62   0.0000       1.379989        37.5514 
  63   0.0000       1.443138        39.2698 
  64   0.0000       1.476072        40.1660 
  65   0.0000       1.526940        41.5502 
  66   0.0000       1.543119        41.9904 
  67   0.0000       1.564929        42.5839 
  68   0.0000       1.589466        43.2516 
  69   0.0000       1.608137        43.7596 
  70   0.0000       1.620398        44.0933 
  71   0.0000       1.627519        44.2870 
  72   0.0000       1.660940        45.1965 
  73   0.0000       1.665932        45.3323 
  74   0.0000       1.680868        45.7387 
  75   0.0000       1.706021        46.4232 
  76   0.0000       1.717972        46.7484 
  77   0.0000       1.773244        48.2524 
  78   0.0000       1.798058        48.9276 
  79   0.0000       1.862517        50.6817 
  80   0.0000       1.952364        53.1265 
  81   0.0000       1.980390        53.8891 
  82   0.0000       2.001323        54.4588 
  83   0.0000       2.021049        54.9955 
  84   0.0000       2.052250        55.8446 
  85   0.0000       2.071484        56.3679 
  86   0.0000       2.095427        57.0195 
  87   0.0000       2.130264        57.9674 
  88   0.0000       2.146748        58.4160 
  89   0.0000       2.173489        59.1436 
  90   0.0000       2.243922        61.0602 
  91   0.0000       2.280171        62.0466 
  92   0.0000       2.300031        62.5870 
  93   0.0000       2.337307        63.6013 
  94   0.0000       2.349164        63.9240 
  95   0.0000       2.389787        65.0294 
  96   0.0000       2.412018        65.6344 
  97   0.0000       2.425883        66.0116 
  98   0.0000       2.476293        67.3834 
  99   0.0000       2.497567        67.9622 
 100   0.0000       2.531404        68.8830 
 101   0.0000       2.573311        70.0233 
 102   0.0000       2.588694        70.4419 
 103   0.0000       2.607759        70.9607 
 104   0.0000       2.629340        71.5480 
 105   0.0000       2.682987        73.0078 
 106   0.0000       2.718776        73.9816 
 107   0.0000       2.777877        75.5899 
 108   0.0000       2.805387        76.3385 
 109   0.0000       2.837878        77.2226 
 110   0.0000       2.868299        78.0504 
 111   0.0000       2.892695        78.7142 
 112   0.0000       2.944140        80.1141 
 113   0.0000       2.983156        81.1758 
 114   0.0000       3.024272        82.2946 
 115   0.0000       3.056940        83.1836 
 116   0.0000       3.090442        84.0952 
 117   0.0000       3.135223        85.3138 
 118   0.0000       3.167754        86.1990 
 119   0.0000       3.197173        86.9995 
 120   0.0000       3.256558        88.6154 
 121   0.0000       3.293903        89.6317 
 122   0.0000       3.359517        91.4171 
 123   0.0000       3.385985        92.1373 
 124   0.0000       3.448951        93.8507 
 125   0.0000       3.456482        94.0557 
 126   0.0000       3.506404        95.4141 
 127   0.0000       3.521557        95.8264 
 128   0.0000       3.577262        97.3422 
 129   0.0000       3.623270        98.5942 
 130   0.0000       3.635223        98.9195 
 131   0.0000       3.654459        99.4429 
 132   0.0000       3.705647       100.8358 
 133   0.0000       3.709683       100.9456 
 134   0.0000       3.936241       107.1106 
 135   0.0000       4.072674       110.8231 
 136   0.0000       4.137998       112.6007 
 137   0.0000       4.262168       115.9795 
 138   0.0000       4.269520       116.1795 
 139   0.0000       4.369175       118.8913 
 140   0.0000       4.401637       119.7746 
 141   0.0000       4.448071       121.0382 
 142   0.0000       4.571286       124.3910 
 143   0.0000       4.606233       125.3420 
 144   0.0000       5.311026       144.5204 
 145   0.0000       5.362771       145.9284 
 146   0.0000       5.396374       146.8428 
 147   0.0000       5.493094       149.4747 
 148   0.0000       5.522450       150.2735 
 149   0.0000       5.589223       152.0905 
 150   0.0000       5.761693       156.7836 
 151   0.0000       5.820066       158.3721 
 152   0.0000       5.841777       158.9628 
 153   0.0000       5.866853       159.6452 
 154   0.0000       5.899666       160.5381 
 155   0.0000       6.034326       164.2024 
 156   0.0000       6.297094       171.3527 
 157   0.0000       6.352573       172.8623 
 158   0.0000       6.521363       177.4553 
 159   0.0000       6.551869       178.2854 
 160   0.0000       6.729997       183.1325 
 161   0.0000       6.768102       184.1694 
 162   0.0000       6.786686       184.6751 
 163   0.0000       6.844447       186.2469 
 164   0.0000       7.039569       191.5564 
 165   0.0000       7.064668       192.2394 
 166   0.0000       7.180869       195.4014 
 167   0.0000       7.257600       197.4893 
 168   0.0000      22.243778       605.2840 
 169   0.0000      22.498667       612.2199 
 170   0.0000      43.681904      1188.6450 
 171   0.0000      43.751067      1190.5271 

                    ********************************
                    * MULLIKEN POPULATION ANALYSIS *
                    ********************************

-----------------------
MULLIKEN ATOMIC CHARGES
-----------------------
   0 C :   -0.180773
   1 O :   -0.464677
   2 H :    0.323422
   3 H :    0.120654
   4 H :    0.095088
   5 H :    0.093911
   6 C :   -0.137817
   7 O :   -0.513921
   8 H :    0.329149
   9 H :    0.110254
  10 H :    0.109953
  11 H :    0.114758
Sum of atomic charges:    0.0000000

--------------------------------
MULLIKEN REDUCED ORBITAL CHARGES
--------------------------------
  0 C s       :     3.223211  s :     3.223211
      pz      :     0.935641  p :     2.847337
      px      :     0.866404
      py      :     1.045292
      dz2     :     0.025319  d :     0.102601
      dxz     :     0.015550
      dyz     :     0.015451
      dx2y2   :     0.015324
      dxy     :     0.030956
      f0      :     0.000432  f :     0.007625
      f+1     :     0.001973
      f-1     :     0.000277
      f+2     :     0.001059
      f-2     :     0.001871
      f+3     :     0.001340
      f-3     :     0.000672
  1 O s       :     3.786669  s :     3.786669
      pz      :     1.565200  p :     4.647010
      px      :     1.368811
      py      :     1.712998
      dz2     :     0.004405  d :     0.029384
      dxz     :     0.011560
      dyz     :     0.006260
      dx2y2   :     0.002866
      dxy     :     0.004292
      f0      :     0.000115  f :     0.001614
      f+1     :     0.000150
      f-1     :     0.000064
      f+2     :     0.000222
      f-2     :     0.000478
      f+3     :     0.000231
      f-3     :     0.000355
  2 H s       :     0.626579  s :     0.626579
      pz      :     0.014560  p :     0.049999
      px      :     0.015390
      py      :     0.020049
  3 H s       :     0.859033  s :     0.859033
      pz      :     0.004422  p :     0.020314
      px      :     0.007142
      py      :     0.008750
  4 H s       :     0.883930  s :     0.883930
      pz      :     0.004620  p :     0.020982
      px      :     0.006946
      py      :     0.009415
  5 H s       :     0.886867  s :     0.886867
      pz      :     0.010303  p :     0.019222
      px      :     0.003693
      py      :     0.005227
  6 C s       :     3.230282  s :     3.230282
      pz      :     0.819646  p :     2.810285
      px      :     0.940223
      py      :     1.050415
      dz2     :     0.030496  d :     0.090025
      dxz     :     0.016064
      dyz     :     0.013127
      dx2y2   :     0.011422
      dxy     :     0.018916
      f0      :     0.001455  f :     0.007225
      f+1     :     0.001965
      f-1     :     0.000649
      f+2     :     0.000853
      f-2     :     0.001165
      f+3     :     0.000693
      f-3     :     0.000444
  7 O s       :     3.791950  s :     3.791950
      pz      :     1.597764  p :     4.692650
      px      :     1.435575
      py      :     1.659310
      dz2     :     0.007843  d :     0.027698
      dxz     :     0.004770
      dyz     :     0.004268
      dx2y2   :     0.001746
      dxy     :     0.009072
      f0      :     0.000165  f :     0.001624
      f+1     :     0.000420
      f-1     :     0.000158
      f+2     :     0.000217
      f-2     :     0.000178
      f+3     :     0.000163
      f-3     :     0.000322
  8 H s       :     0.625902  s :     0.625902
      pz      :     0.012549  p :     0.044949
      px      :     0.016924
      py      :     0.015476
  9 H s       :     0.868522  s :     0.868522
      pz      :     0.003196  p :     0.021224
      px      :     0.008568
      py      :     0.009460
 10 H s       :     0.872191  s :     0.872191
      pz      :     0.002832  p :     0.017856
      px      :     0.004302
      py      :     0.010723
 11 H s       :     0.865307  s :     0.865307
      pz      :     0.009574  p :     0.019935
      px      :     0.005925
      py      :     0.004436


                     *******************************
                     * LOEWDIN POPULATION ANALYSIS *
                     *******************************

----------------------
LOEWDIN ATOMIC CHARGES
----------------------
   0 C :   -0.405417
   1 O :   -0.071353
   2 H :    0.161658
   3 H :    0.103664
   4 H :    0.082750
   5 H :    0.094851
   6 C :   -0.372297
   7 O :   -0.092798
   8 H :    0.182605
   9 H :    0.111797
  10 H :    0.109012
  11 H :    0.095527

-------------------------------
LOEWDIN REDUCED ORBITAL CHARGES
-------------------------------
  0 C s       :     2.850369  s :     2.850369
      pz      :     1.014633  p :     3.066342
      px      :     0.961249
      py      :     1.090460
      dz2     :     0.093450  d :     0.430675
      dxz     :     0.093987
      dyz     :     0.065368
      dx2y2   :     0.054170
      dxy     :     0.123701
      f0      :     0.004888  f :     0.058031
      f+1     :     0.013341
      f-1     :     0.003510
      f+2     :     0.010386
      f-2     :     0.009504
      f+3     :     0.010775
      f-3     :     0.005627
  1 O s       :     3.360525  s :     3.360525
      pz      :     1.593457  p :     4.636512
      px      :     1.402105
      py      :     1.640950
      dz2     :     0.010068  d :     0.069696
      dxz     :     0.024730
      dyz     :     0.011090
      dx2y2   :     0.009403
      dxy     :     0.014405
      f0      :     0.000484  f :     0.004621
      f+1     :     0.000944
      f-1     :     0.000212
      f+2     :     0.000676
      f-2     :     0.001236
      f+3     :     0.000456
      f-3     :     0.000614
  2 H s       :     0.673924  s :     0.673924
      pz      :     0.055618  p :     0.164419
      px      :     0.047390
      py      :     0.061411
  3 H s       :     0.834911  s :     0.834911
      pz      :     0.014266  p :     0.061425
      px      :     0.020673
      py      :     0.026485
  4 H s       :     0.852189  s :     0.852189
      pz      :     0.014857  p :     0.065061
      px      :     0.021046
      py      :     0.029159
  5 H s       :     0.848061  s :     0.848061
      pz      :     0.029288  p :     0.057087
      px      :     0.011723
      py      :     0.016077
  6 C s       :     2.882896  s :     2.882896
      pz      :     0.931379  p :     3.044267
      px      :     1.017873
      py      :     1.095015
      dz2     :     0.132659  d :     0.392436
      dxz     :     0.090862
      dyz     :     0.047065
      dx2y2   :     0.034670
      dxy     :     0.087181
      f0      :     0.007830  f :     0.052697
      f+1     :     0.013112
      f-1     :     0.007380
      f+2     :     0.009284
      f-2     :     0.008446
      f+3     :     0.003561
      f-3     :     0.003084
  7 O s       :     3.376666  s :     3.376666
      pz      :     1.599404  p :     4.645570
      px      :     1.430991
      py      :     1.615174
      dz2     :     0.019050  d :     0.066500
      dxz     :     0.013400
      dyz     :     0.009238
      dx2y2   :     0.005782
      dxy     :     0.019029
      f0      :     0.000616  f :     0.004063
      f+1     :     0.000867
      f-1     :     0.000562
      f+2     :     0.000598
      f-2     :     0.000480
      f+3     :     0.000342
      f-3     :     0.000597
  8 H s       :     0.667861  s :     0.667861
      pz      :     0.033127  p :     0.149534
      px      :     0.058646
      py      :     0.057760
  9 H s       :     0.828960  s :     0.828960
      pz      :     0.009270  p :     0.059243
      px      :     0.023311
      py      :     0.026662
 10 H s       :     0.838429  s :     0.838429
      pz      :     0.008122  p :     0.052559
      px      :     0.013201
      py      :     0.031235
 11 H s       :     0.842648  s :     0.842648
      pz      :     0.028823  p :     0.061826
      px      :     0.019045
      py      :     0.013958


                      *****************************
                      * MAYER POPULATION ANALYSIS *
                      *****************************

  NA   - Mulliken gross atomic population
  ZA   - Total nuclear charge
  QA   - Mulliken gross atomic charge
  VA   - Mayer's total valence
  BVA  - Mayer's bonded valence
  FA   - Mayer's free valence

  ATOM       NA         ZA         QA         VA         BVA        FA
  0 C      6.1808     6.0000    -0.1808     3.9752     3.9752     0.0000
  1 O      8.4647     8.0000    -0.4647     1.8797     1.8797     0.0000
  2 H      0.6766     1.0000     0.3234     0.9285     0.9285    -0.0000
  3 H      0.8793     1.0000     0.1207     0.9596     0.9596    -0.0000
  4 H      0.9049     1.0000     0.0951     0.9418     0.9418     0.0000
  5 H      0.9061     1.0000     0.0939     0.9544     0.9544    -0.0000
  6 C      6.1378     6.0000    -0.1378     3.8756     3.8756     0.0000
  7 O      8.5139     8.0000    -0.5139     1.8780     1.8780     0.0000
  8 H      0.6709     1.0000     0.3291     0.9047     0.9047     0.0000
  9 H      0.8897     1.0000     0.1103     0.9755     0.9755    -0.0000
 10 H      0.8900     1.0000     0.1100     0.9602     0.9602    -0.0000
 11 H      0.8852     1.0000     0.1148     0.9592     0.9592     0.0000

  Mayer bond orders larger than 0.1
B(  0-C ,  1-O ) :   1.0220 B(  0-C ,  3-H ) :   0.9698 B(  0-C ,  4-H ) :   0.9727 
B(  0-C ,  5-H ) :   0.9846 B(  1-O ,  2-H ) :   0.8696 B(  6-C ,  7-O ) :   0.9567 
B(  6-C ,  9-H ) :   0.9690 B(  6-C , 10-H ) :   0.9649 B(  6-C , 11-H ) :   0.9798 
B(  7-O ,  8-H ) :   0.8818 

-------
TIMINGS
-------

Total SCF time: 0 days 0 hours 0 min 23 sec 

Total time                  ....      23.469 sec
Sum of individual times     ....      23.092 sec  ( 98.4%)

Fock matrix formation       ....      22.556 sec  ( 96.1%)
  XC integration            ....      12.169 sec  ( 53.9% of F)
    Basis function eval.    ....       0.072 sec  (  0.6% of XC)
    Density eval.           ....       0.069 sec  (  0.6% of XC)
    XC-Functional eval.     ....       0.093 sec  (  0.8% of XC)
    XC-Potential eval.      ....       0.087 sec  (  0.7% of XC)
Diagonalization             ....       0.049 sec  (  0.2%)
Density matrix formation    ....       0.005 sec  (  0.0%)
Population analysis         ....       0.016 sec  (  0.1%)
Initial guess               ....       0.108 sec  (  0.5%)
Orbital Transformation      ....       0.000 sec  (  0.0%)
Orbital Orthonormalization  ....       0.000 sec  (  0.0%)
DIIS solution               ....       0.025 sec  (  0.1%)
SOSCF solution              ....       0.032 sec  (  0.1%)
Grid generation             ....       0.301 sec  (  1.3%)


-------------------------------------------------------------------------------
                          DFT DISPERSION CORRECTION                            
                                                                               
                              DFTD3 V3.1  Rev 1                                
                              USING zero damping                               
-------------------------------------------------------------------------------
The omegaB97X-D3 functional is recognized. Fit by Chai et al.
Active option DFTDOPT                   ...         3   

molecular C6(AA) [au] = 835.164057 


            DFT-D V3
 parameters
 s6 scaling factor         :     1.0000 
 rs6 scaling factor        :     1.2810 
 s8 scaling factor         :     1.0000 
 rs8 scaling factor        :     1.0940 
 Damping factor alpha6     :    14.0000 
 Damping factor alpha8     :    16.0000 
 ad hoc parameters k1-k3   :    16.0000     1.3333    -4.0000 

 Edisp/kcal,au: -1.394689867742  -0.002222579541 
 E6   /kcal   :  -0.564074886 
 E8   /kcal   :  -0.830614982 
 % E8         :  59.555532836 

-------------------------   ----------------
Dispersion correction           -0.002222580
-------------------------   ----------------


-------------------------   --------------------
FINAL SINGLE POINT ENERGY      -231.469948837310
-------------------------   --------------------


                            ***************************************
                            *     ORCA property calculations      *
                            ***************************************

                                    ---------------------
                                    Active property flags
                                    ---------------------
   (+) Dipole Moment


------------------------------------------------------------------------------
                       ORCA ELECTRIC PROPERTIES CALCULATION
------------------------------------------------------------------------------

Dipole Moment Calculation                       ... on
Quadrupole Moment Calculation                   ... off
Polarizability Calculation                      ... off
GBWName                                         ... 11-46_DFT_AB.gbw
Electron density file                           ... 11-46_DFT_AB.scfp.tmp
The origin for moment calculation is the CENTER OF MASS  = (-14.643283, -11.214305  7.441603)

-------------
DIPOLE MOMENT
-------------
                                X             Y             Z
Electronic contribution:     -2.34831       0.08526      -2.77254
Nuclear contribution   :      2.19934       0.81332       3.89665
                        -----------------------------------------
Total Dipole Moment    :     -0.14896       0.89857       1.12411
                        -----------------------------------------
Magnitude (a.u.)       :      1.44681
Magnitude (Debye)      :      3.67749



--------------------
Rotational spectrum 
--------------------
 
Rotational constants in cm-1:     0.435720     0.098639     0.082939 
Rotational constants in MHz : 13062.546803  2957.133340  2486.448942 

 Dipole components along the rotational axes: 
x,y,z [a.u.] :    -1.341048    -0.441218    -0.316495 
x,y,z [Debye]:    -3.408673    -1.121486    -0.804467 

 
------------------------------------------------------------------------------
                      ORCA CHELPG CHARGES GENERATION
------------------------------------------------------------------------------

GBW file                           ... 11-46_DFT_AB.gbw

Reading the GBW file               ... done

Grid spacing                       ...     0.300000
Point Cut-Off                      ...     2.800000
Van-der-Waals Radii                ...        COSMO
Total charge                       ...            0


Number of points X direction       ...           29
Number of points Y direction       ...           34
Number of points Z direction       ...           30
Maximum number of possible points  ...        29580
Final number of points             ...         9396


CHELPG Charges            
--------------------------------
  0   C   :       0.236357
  1   O   :      -0.636706
  2   H   :       0.392815
  3   H   :       0.023059
  4   H   :       0.003226
  5   H   :      -0.028651
  6   C   :       0.075049
  7   O   :      -0.597964
  8   H   :       0.411762
  9   H   :       0.046397
 10   H   :       0.038713
 11   H   :       0.035943
--------------------------------
Total charge:    -0.000000
--------------------------------

CHELPG charges calculated...

Timings for individual parts in CHELPG calculation:
Grid generation                 ...        0.001 sec (=   0.000 min)
Potential calculation           ...        2.131 sec (=   0.036 min)
Fit to the potential            ...        0.003 sec (=   0.000 min)
------------------------------------------------------------------------------


Timings for individual modules:

Sum of individual times         ...       31.158 sec (=   0.519 min)
GTO integral calculation        ...        3.292 sec (=   0.055 min)  10.6 %
SCF iterations                  ...       25.698 sec (=   0.428 min)  82.5 %
CHELPG charge generation        ...        2.167 sec (=   0.036 min)   7.0 %


                 $$$$$$$$$$$$$$$$  JOB NUMBER  2 $$$$$$$$$$$$$$


                       ****************************
                       * Single Point Calculation *
                       ****************************

---------------------------------
CARTESIAN COORDINATES (ANGSTROEM)
---------------------------------
  C     -6.809828   -7.466043    3.576054
  O     -7.899568   -7.122431    2.761647
  H     -8.485116   -6.571884    3.300043
  H     -6.140757   -8.235801    3.211368
  H     -6.195975   -6.624707    3.804071
  H     -7.153628   -7.872314    4.553636
  C     -7.659629   -4.472034    5.252038
  O     -8.518829   -4.748822    4.136675
  H     -9.275437   -4.126430    4.062496
  H     -6.893624   -5.275388    5.267629
  H     -7.228614   -3.404280    5.310936
  H     -8.259196   -4.497080    6.162074

----------------------------
CARTESIAN COORDINATES (A.U.)
----------------------------
  NO LB      ZA    FRAG     MASS         X           Y           Z
   0 C     6.0000    0    12.011  -12.868710  -14.108777    6.757763
   1 O     8.0000    0    15.999  -14.928020  -13.459444    5.218757
   2 H     1.0000    0     1.008  -16.034545  -12.419061    6.236178
   3 H     1.0000    0     1.008  -11.604349  -15.563408    6.068606
   4 H     1.0000    0     1.008  -11.708696  -12.518882    7.188652
   5 H     1.0000    0     1.008  -13.518398  -14.876518    8.605125
   6 C     0.0000    0     0.000  -14.474601   -8.450920    9.924913
   7 O     0.0000    0     0.000  -16.098254   -8.973973    7.817183
   8 H     0.0000    0     0.000  -17.528036   -7.797823    7.677005
   9 H     0.0000    0     0.000  -13.027061   -9.969039    9.954376
  10 H     0.0000    0     0.000  -13.660101   -6.433157   10.036215
  11 H     0.0000    0     0.000  -15.607619   -8.498250   11.644632

--------------------------------
INTERNAL COORDINATES (ANGSTROEM)
--------------------------------
 C      0   0   0     0.000000000000     0.00000000     0.00000000
 O      1   0   0     1.403161158169     0.00000000     0.00000000
 H      2   1   0     0.967387570899   106.64416445     0.00000000
 H      1   2   3     1.083133999190   117.28081693   168.50398645
 H      1   2   3     1.066139541896   112.21277653   291.69629153
 H      1   2   3     1.113068341192   111.05472602    50.31735176
 C      5   1   2     2.978740087643   113.03819722    60.12269856
 O      7   5   1     1.434876600518    77.11275396   309.94492204
 H      8   7   5     0.982512082047   113.42882681   186.79223405
 H      7   5   1     1.110128095592    31.21854347   110.09840168
 H      7   5   1     1.152970732129   120.69111561   196.88379285
 H      7   5   1     1.090079543382   131.25955444    53.20394058

---------------------------
INTERNAL COORDINATES (A.U.)
---------------------------
 C      0   0   0     0.000000000000     0.00000000     0.00000000
 O      1   0   0     2.651590310694     0.00000000     0.00000000
 H      2   1   0     1.828097574358   106.64416445     0.00000000
 H      1   2   3     2.046826624808   117.28081693   168.50398645
 H      1   2   3     2.014711754728   112.21277653   291.69629153
 H      1   2   3     2.103394333192   111.05472602    50.31735176
 C      5   1   2     5.629002989779   113.03819722    60.12269856
 O      7   5   1     2.711523810950    77.11275396   309.94492204
 H      8   7   5     1.856678758338   113.42882681   186.79223405
 H      7   5   1     2.097838074240    31.21854347   110.09840168
 H      7   5   1     2.178798924150   120.69111561   196.88379285
 H      7   5   1     2.059951801183   131.25955444    53.20394058

---------------------
BASIS SET INFORMATION
---------------------
There are 3 groups of distinct atoms

 Group   1 Type C   : 11s6p2d1f contracted to 5s3p2d1f pattern {62111/411/11/1}
 Group   2 Type O   : 11s6p2d1f contracted to 5s3p2d1f pattern {62111/411/11/1}
 Group   3 Type H   : 5s1p contracted to 3s1p pattern {311/1}

Atom   0C    basis set group =>   1
Atom   1O    basis set group =>   2
Atom   2H    basis set group =>   3
Atom   3H    basis set group =>   3
Atom   4H    basis set group =>   3
Atom   5H    basis set group =>   3
Atom   6C    basis set group =>   1
Atom   7O    basis set group =>   2
Atom   8H    basis set group =>   3
Atom   9H    basis set group =>   3
Atom  10H    basis set group =>   3
Atom  11H    basis set group =>   3


           ************************************************************
           *        Program running with 8 parallel MPI-processes     *
           *              working on a common directory               *
           ************************************************************
------------------------------------------------------------------------------
                           ORCA GTO INTEGRAL CALCULATION
------------------------------------------------------------------------------

                         BASIS SET STATISTICS AND STARTUP INFO

 # of primitive gaussian shells          ...  128
 # of primitive gaussian functions       ...  248
 # of contracted shells                  ...   76
 # of contracted basis functions         ...  172
 Highest angular momentum                ...    3
 Maximum contraction depth               ...    6
 Integral package used                   ... LIBINT
 Integral threshhold            Thresh   ...  2.500e-11
 Primitive cut-off              TCut     ...  2.500e-12


------------------------------ INTEGRAL EVALUATION ----------------------------


 * One electron integrals 
 Pre-screening matrix                    ... done
 Shell pair data                         ... done (   0.001 sec)



           ************************************************************
           *        Program running with 8 parallel MPI-processes     *
           *              working on a common directory               *
           ************************************************************
-------------------------------------------------------------------------------
                                 ORCA SCF
-------------------------------------------------------------------------------

------------
SCF SETTINGS
------------
Hamiltonian:
 Density Functional     Method          .... DFT(GTOs)
 Exchange Functional    Exchange        .... WB97X-D3
 Correlation Functional Correlation     .... WB97X-D3
 Gradients option       PostSCFGGA      .... off
 Hybrid DFT is turned on
   Fraction HF Exchange ScalHFX         ....  0.195728
   Scaling of DF-GGA-X  ScalDFX         ....  0.000000
   Scaling of DF-GGA-C  ScalDFC         ....  1.000000
   Scaling of DF-LDA-C  ScalLDAC        ....  1.000000
   Perturbative correction              ....  0.000000
   Density functional embedding theory  .... OFF
 Long-range corrected/Screened/Range-Separated Hybrid DFT is turned on
   Amount of maximum screened exact exchange              ....  0.804272
   Range separation parameter mu (erf(mu*r12)/r12)        ....  0.250000


General Settings:
 Integral files         IntName         .... 11-46_DFT_A
 Hartree-Fock type      HFTyp           .... RHF
 Total Charge           Charge          ....    0
 Multiplicity           Mult            ....    1
 Number of Electrons    NEL             ....   18
 Basis Dimension        Dim             ....  172
 Nuclear Repulsion      ENuc            ....     40.5390929560 Eh

Convergence Acceleration:
 DIIS                   CNVDIIS         .... on
   Start iteration      DIISMaxIt       ....    12
   Startup error        DIISStart       ....  0.200000
   # of expansion vecs  DIISMaxEq       ....     5
   Bias factor          DIISBfac        ....   1.050
   Max. coefficient     DIISMaxC        ....  10.000
 Newton-Raphson         CNVNR           .... off
 SOSCF                  CNVSOSCF        .... on
   Start iteration      SOSCFMaxIt      ....   150
   Startup grad/error   SOSCFStart      ....  0.003300
 Level Shifting         CNVShift        .... on
   Level shift para.    LevelShift      ....    0.2500
   Turn off err/grad.   ShiftErr        ....    0.0010
 Zerner damping         CNVZerner       .... off
 Static damping         CNVDamp         .... on
   Fraction old density DampFac         ....    0.7000
   Max. Damping (<1)    DampMax         ....    0.9800
   Min. Damping (>=0)   DampMin         ....    0.0000
   Turn off err/grad.   DampErr         ....    0.1000
 Fernandez-Rico         CNVRico         .... off

SCF Procedure:
 Maximum # iterations   MaxIter         ....  1000
 SCF integral mode      SCFMode         .... Direct
   Integral package                     .... LIBINT
 Reset frequency        DirectResetFreq ....    20
 Integral Threshold     Thresh          ....  2.500e-11 Eh
 Primitive CutOff       TCut            ....  2.500e-12 Eh

Convergence Tolerance:
 Convergence Check Mode ConvCheckMode   .... Total+1el-Energy
 Convergence forced     ConvForced      .... 0
 Energy Change          TolE            ....  1.000e-08 Eh
 1-El. energy change                    ....  1.000e-05 Eh
 Orbital Gradient       TolG            ....  1.000e-05
 Orbital Rotation angle TolX            ....  1.000e-05
 DIIS Error             TolErr          ....  5.000e-07


Diagonalization of the overlap matrix:
Smallest eigenvalue                        ... 1.364e-03
Time for diagonalization                   ...    0.005 sec
Threshold for overlap eigenvalues          ... 1.000e-08
Number of eigenvalues below threshold      ... 0
Time for construction of square roots      ...    0.005 sec
Total time needed                          ...    0.010 sec

-------------------
DFT GRID GENERATION
-------------------

General Integration Accuracy     IntAcc      ...  4.340
Radial Grid Type                 RadialGrid  ... Gauss-Chebyshev
Angular Grid (max. acc.)         AngularGrid ... Lebedev-110
Angular grid pruning method      GridPruning ... 3 (G Style)
Weight generation scheme         WeightScheme... Becke
Basis function cutoff            BFCut       ...    1.0000e-11
Integration weight cutoff        WCut        ...    1.0000e-14
Grids for H and He will be reduced by one unit

# of grid points (after initial pruning)     ...  13096 (   0.0 sec)
# of grid points (after weights+screening)   ...  12400 (   0.0 sec)
nearest neighbour list constructed           ...    0.0 sec
Grid point re-assignment to atoms done       ...    0.0 sec
Grid point division into batches done        ...    0.0 sec
Reduced shell lists constructed in    0.0 sec

Total number of grid points                  ...    12400
Total number of batches                      ...      199
Average number of points per batch           ...       62
Average number of grid points per atom       ...     1033
Average number of shells per batch           ...    52.73 (69.38%)
Average number of basis functions per batch  ...   119.19 (69.30%)
Average number of large shells per batch     ...    42.27 (80.16%)
Average number of large basis fcns per batch ...    94.50 (79.28%)
Maximum spatial batch extension              ...  15.38, 19.11, 14.28 au
Average spatial batch extension              ...   0.45,  0.50,  0.45 au

Time for grid setup =    0.042 sec

------------------------------
INITIAL GUESS: MODEL POTENTIAL
------------------------------
Loading Hartree-Fock densities                     ... done
Calculating cut-offs                               ... done
Setting up the integral package                    ... done
Initializing the effective Hamiltonian             ... done
Starting the Coulomb interaction                   ... done (   0.0 sec)
Reading the grid                                   ... done
Mapping shells                                     ... done
Starting the XC term evaluation                    ... done (   0.0 sec)
  promolecular density results
     # of electrons  =     17.998221191
     EX              =    -14.434693294
     EC              =     -0.575901405
     EX+EC           =    -15.010594699
Transforming the Hamiltonian                       ... done (   0.0 sec)
Diagonalizing the Hamiltonian                      ... done (   0.0 sec)
Back transforming the eigenvectors                 ... done (   0.0 sec)
Now organizing SCF variables                       ... done
                      ------------------
                      INITIAL GUESS DONE (   0.2 sec)
                      ------------------
--------------
SCF ITERATIONS
--------------
ITER       Energy         Delta-E        Max-DP      RMS-DP      [F,P]     Damp
               ***  Starting incremental Fock matrix formation  ***
  0   -115.6466959712   0.000000000000 0.03601757  0.00074782  0.2394807 0.7000
  1   -115.6836259694  -0.036929998242 0.02115682  0.00053261  0.1189251 0.7000
                               ***Turning on DIIS***
  2   -115.7007303569  -0.017104387478 0.02936427  0.00096253  0.0451849 0.0000
  3   -115.7285571830  -0.027826826161 0.01736276  0.00035852  0.0591472 0.0000
  4   -115.7330771524  -0.004519969343 0.00396413  0.00007065  0.0059469 0.0000
                      *** Initiating the SOSCF procedure ***
                           *** Shutting down DIIS ***
                      *** Re-Reading the Fockian *** 
                      *** Removing any level shift *** 
ITER      Energy       Delta-E        Grad      Rot      Max-DP    RMS-DP
  5   -115.73316790  -0.0000907433  0.000426  0.000426  0.000665  0.000025
               *** Restarting incremental Fock matrix formation ***
  6   -115.73317635  -0.0000084561  0.000126  0.000164  0.000496  0.000015
  7   -115.73317717  -0.0000008141  0.000047  0.000104  0.000250  0.000007
  8   -115.73317723  -0.0000000619  0.000028  0.000021  0.000044  0.000001
  9   -115.73317725  -0.0000000213  0.000009  0.000008  0.000020  0.000001
                  ***Gradient check signals convergence***
              ***Rediagonalizing the Fockian in SOSCF/NRSCF***

               *****************************************************
               *                     SUCCESS                       *
               *           SCF CONVERGED AFTER  10 CYCLES          *
               *****************************************************

Setting up the final grid:

General Integration Accuracy     IntAcc      ...  4.670
Radial Grid Type                 RadialGrid  ... Gauss-Chebyshev
Angular Grid (max. acc.)         AngularGrid ... Lebedev-302
Angular grid pruning method      GridPruning ... 3 (G Style)
Weight generation scheme         WeightScheme... Becke
Basis function cutoff            BFCut       ...    1.0000e-11
Integration weight cutoff        WCut        ...    1.0000e-14
Grids for H and He will be reduced by one unit

# of grid points (after initial pruning)     ...  52000 (   0.0 sec)
# of grid points (after weights+screening)   ...  48816 (   0.0 sec)
nearest neighbour list constructed           ...    0.0 sec
Grid point re-assignment to atoms done       ...    0.0 sec
Grid point division into batches done        ...    0.2 sec
Reduced shell lists constructed in    0.2 sec

Total number of grid points                  ...    48816
Total number of batches                      ...      771
Average number of points per batch           ...       63
Average number of grid points per atom       ...     4068
Average number of shells per batch           ...    50.16 (66.00%)
Average number of basis functions per batch  ...   111.76 (64.97%)
Average number of large shells per batch     ...    40.15 (80.04%)
Average number of large basis fcns per batch ...    89.42 (80.01%)
Maximum spatial batch extension              ...  15.33, 16.70, 16.58 au
Average spatial batch extension              ...   0.29,  0.29,  0.27 au

Final grid set up in    0.2 sec
Final integration                            ... done (   0.1 sec)
Change in XC energy                          ...    -0.000279291
Integrated number of electrons               ...    18.000018346
Previous integrated no of electrons          ...    17.998862923

----------------
TOTAL SCF ENERGY
----------------

Total Energy       :         -115.73345654 Eh           -3149.26746 eV

Components:
Nuclear Repulsion  :           40.53909296 Eh            1103.12480 eV
Electronic Energy  :         -156.27254950 Eh           -4252.39226 eV
One Electron Energy:         -237.45442887 Eh           -6461.46350 eV
Two Electron Energy:           81.18187937 Eh            2209.07124 eV

Virial components:
Potential Energy   :         -231.00044078 Eh           -6285.84156 eV
Kinetic Energy     :          115.26698424 Eh            3136.57410 eV
Virial Ratio       :            2.00404689


DFT components:
N(Alpha)           :        9.000009173140 electrons
N(Beta)            :        9.000009173140 electrons
N(Total)           :       18.000018346280 electrons
E(XC)              :      -10.658859068186 Eh       
DFET-embed. en.    :        0.000000000000 Eh       

---------------
SCF CONVERGENCE
---------------

  Last Energy change         ...   -1.6292e-09  Tolerance :   1.0000e-08
  Last MAX-Density change    ...    6.0607e-06  Tolerance :   1.0000e-07
  Last RMS-Density change    ...    1.4193e-07  Tolerance :   5.0000e-09
  Last Orbital Gradient      ...    2.0869e-06  Tolerance :   1.0000e-05
  Last Orbital Rotation      ...    2.1813e-06  Tolerance :   1.0000e-05

             **** THE GBW FILE WAS UPDATED (11-46_DFT_A.gbw) ****
             **** DENSITY FILE WAS UPDATED (11-46_DFT_A.scfp.tmp) ****
             **** ENERGY FILE WAS UPDATED (11-46_DFT_A.en.tmp) ****
----------------
ORBITAL ENERGIES
----------------

  NO   OCC          E(Eh)            E(eV) 
   0   2.0000     -19.233851      -523.3797 
   1   2.0000     -10.310628      -280.5664 
   2   2.0000      -1.140262       -31.0281 
   3   2.0000      -0.797633       -21.7047 
   4   2.0000      -0.613217       -16.6865 
   5   2.0000      -0.543592       -14.7919 
   6   2.0000      -0.533716       -14.5232 
   7   2.0000      -0.431798       -11.7498 
   8   2.0000      -0.374070       -10.1790 
   9   0.0000       0.071358         1.9418 
  10   0.0000       0.133765         3.6399 
  11   0.0000       0.142978         3.8906 
  12   0.0000       0.180565         4.9134 
  13   0.0000       0.184599         5.0232 
  14   0.0000       0.205939         5.6039 
  15   0.0000       0.210790         5.7359 
  16   0.0000       0.236037         6.4229 
  17   0.0000       0.256303         6.9744 
  18   0.0000       0.277912         7.5624 
  19   0.0000       0.309145         8.4123 
  20   0.0000       0.339472         9.2375 
  21   0.0000       0.345352         9.3975 
  22   0.0000       0.373148        10.1539 
  23   0.0000       0.395034        10.7494 
  24   0.0000       0.426954        11.6180 
  25   0.0000       0.440212        11.9788 
  26   0.0000       0.455153        12.3853 
  27   0.0000       0.477947        13.0056 
  28   0.0000       0.531339        14.4585 
  29   0.0000       0.539642        14.6844 
  30   0.0000       0.581755        15.8303 
  31   0.0000       0.587556        15.9882 
  32   0.0000       0.594239        16.1701 
  33   0.0000       0.609008        16.5719 
  34   0.0000       0.655280        17.8311 
  35   0.0000       0.683084        18.5877 
  36   0.0000       0.717396        19.5213 
  37   0.0000       0.738993        20.1090 
  38   0.0000       0.781139        21.2559 
  39   0.0000       0.796219        21.6662 
  40   0.0000       0.808210        21.9925 
  41   0.0000       0.826579        22.4924 
  42   0.0000       0.907891        24.7050 
  43   0.0000       0.969381        26.3782 
  44   0.0000       1.022137        27.8138 
  45   0.0000       1.033793        28.1309 
  46   0.0000       1.081846        29.4385 
  47   0.0000       1.114166        30.3180 
  48   0.0000       1.150852        31.3163 
  49   0.0000       1.157508        31.4974 
  50   0.0000       1.193446        32.4753 
  51   0.0000       1.214807        33.0566 
  52   0.0000       1.304332        35.4927 
  53   0.0000       1.337945        36.4073 
  54   0.0000       1.385435        37.6996 
  55   0.0000       1.424960        38.7751 
  56   0.0000       1.453566        39.5536 
  57   0.0000       1.524253        41.4770 
  58   0.0000       1.565669        42.6040 
  59   0.0000       1.603786        43.6412 
  60   0.0000       1.615778        43.9676 
  61   0.0000       1.654369        45.0177 
  62   0.0000       1.671147        45.4742 
  63   0.0000       1.702952        46.3397 
  64   0.0000       1.722444        46.8701 
  65   0.0000       1.800345        48.9899 
  66   0.0000       1.822420        49.5906 
  67   0.0000       1.920628        52.2630 
  68   0.0000       1.947369        52.9906 
  69   0.0000       1.972460        53.6734 
  70   0.0000       2.010579        54.7106 
  71   0.0000       2.057471        55.9866 
  72   0.0000       2.095152        57.0120 
  73   0.0000       2.111825        57.4657 
  74   0.0000       2.130553        57.9753 
  75   0.0000       2.165321        58.9214 
  76   0.0000       2.191681        59.6387 
  77   0.0000       2.210808        60.1592 
  78   0.0000       2.284591        62.1669 
  79   0.0000       2.320284        63.1381 
  80   0.0000       2.373717        64.5921 
  81   0.0000       2.389214        65.0138 
  82   0.0000       2.459466        66.9255 
  83   0.0000       2.500398        68.0393 
  84   0.0000       2.531560        68.8873 
  85   0.0000       2.543226        69.2047 
  86   0.0000       2.553505        69.4844 
  87   0.0000       2.574605        70.0586 
  88   0.0000       2.607639        70.9575 
  89   0.0000       2.636249        71.7360 
  90   0.0000       2.666402        72.5565 
  91   0.0000       2.748632        74.7941 
  92   0.0000       2.799731        76.1846 
  93   0.0000       2.860983        77.8513 
  94   0.0000       2.885859        78.5282 
  95   0.0000       2.919078        79.4321 
  96   0.0000       2.963365        80.6373 
  97   0.0000       3.010263        81.9134 
  98   0.0000       3.026740        82.3618 
  99   0.0000       3.090682        84.1017 
 100   0.0000       3.122600        84.9703 
 101   0.0000       3.146637        85.6244 
 102   0.0000       3.176678        86.4418 
 103   0.0000       3.238684        88.1291 
 104   0.0000       3.253687        88.5373 
 105   0.0000       3.318502        90.3010 
 106   0.0000       3.349627        91.1480 
 107   0.0000       3.427186        93.2585 
 108   0.0000       3.482576        94.7657 
 109   0.0000       3.496799        95.1527 
 110   0.0000       3.510521        95.5261 
 111   0.0000       3.587057        97.6088 
 112   0.0000       3.609133        98.2095 
 113   0.0000       3.620162        98.5096 
 114   0.0000       3.690744       100.4302 
 115   0.0000       3.697869       100.6241 
 116   0.0000       3.783562       102.9560 
 117   0.0000       4.039587       109.9228 
 118   0.0000       4.058188       110.4289 
 119   0.0000       4.119675       112.1021 
 120   0.0000       4.238795       115.3435 
 121   0.0000       4.258963       115.8923 
 122   0.0000       4.287899       116.6797 
 123   0.0000       4.329132       117.8017 
 124   0.0000       4.350308       118.3779 
 125   0.0000       4.427113       120.4679 
 126   0.0000       4.509675       122.7145 
 127   0.0000       4.566321       124.2559 
 128   0.0000       4.577917       124.5715 
 129   0.0000       4.595649       125.0540 
 130   0.0000       4.648822       126.5009 
 131   0.0000       4.947901       134.6392 
 132   0.0000       5.063341       137.7805 
 133   0.0000       5.083961       138.3416 
 134   0.0000       5.279595       143.6651 
 135   0.0000       5.364509       145.9757 
 136   0.0000       5.446096       148.1958 
 137   0.0000       5.487175       149.3136 
 138   0.0000       5.560369       151.3053 
 139   0.0000       5.631667       153.2455 
 140   0.0000       5.816677       158.2798 
 141   0.0000       5.842271       158.9763 
 142   0.0000       5.869553       159.7187 
 143   0.0000       5.950628       161.9248 
 144   0.0000       6.010270       163.5478 
 145   0.0000       6.332474       172.3154 
 146   0.0000       6.532168       177.7493 
 147   0.0000       6.556455       178.4102 
 148   0.0000       6.619905       180.1368 
 149   0.0000       6.757856       183.8906 
 150   0.0000       6.816312       185.4813 
 151   0.0000       6.824744       185.7107 
 152   0.0000       7.036023       191.4599 
 153   0.0000       7.088886       192.8984 
 154   0.0000       7.156540       194.7393 
 155   0.0000       7.225150       196.6063 
 156   0.0000       7.338526       199.6915 
 157   0.0000       7.970245       216.8814 
 158   0.0000       8.848680       240.7848 
 159   0.0000       9.340954       254.1803 
 160   0.0000       9.545060       259.7343 
 161   0.0000       9.566854       260.3273 
 162   0.0000       9.755613       265.4637 
 163   0.0000       9.819592       267.2047 
 164   0.0000       9.895006       269.2568 
[...]
  82   0.0000       2.382292        64.8255 
  83   0.0000       2.445206        66.5374 
  84   0.0000       2.489025        67.7298 
  85   0.0000       2.551298        69.4244 
  86   0.0000       2.597010        70.6682 
  87   0.0000       2.642175        71.8972 
  88   0.0000       2.646684        72.0199 
  89   0.0000       2.673555        72.7511 
  90   0.0000       2.692226        73.2592 
  91   0.0000       2.763440        75.1970 
  92   0.0000       2.824027        76.8457 
  93   0.0000       2.870149        78.1007 
  94   0.0000       2.882939        78.4488 
  95   0.0000       2.920553        79.4723 
  96   0.0000       2.961787        80.5943 
  97   0.0000       3.021992        82.2326 
  98   0.0000       3.101278        84.3901 
  99   0.0000       3.144206        85.5582 
 100   0.0000       3.169552        86.2479 
 101   0.0000       3.197891        87.0190 
 102   0.0000       3.206700        87.2587 
 103   0.0000       3.271177        89.0132 
 104   0.0000       3.302186        89.8570 
 105   0.0000       3.351810        91.2074 
 106   0.0000       3.368706        91.6672 
 107   0.0000       3.377953        91.9188 
 108   0.0000       3.430060        93.3367 
 109   0.0000       3.474851        94.5555 
 110   0.0000       3.481728        94.7426 
 111   0.0000       3.591356        97.7258 
 112   0.0000       3.636243        98.9472 
 113   0.0000       3.665188        99.7348 
 114   0.0000       3.700501       100.6957 
 115   0.0000       3.719476       101.2121 
 116   0.0000       3.729137       101.4750 
 117   0.0000       3.954352       107.6034 
 118   0.0000       4.113157       111.9247 
 119   0.0000       4.128404       112.3396 
 120   0.0000       4.152282       112.9893 
 121   0.0000       4.267373       116.1211 
 122   0.0000       4.296629       116.9172 
 123   0.0000       4.309989       117.2808 
 124   0.0000       4.401329       119.7663 
 125   0.0000       4.423519       120.3701 
 126   0.0000       4.544968       123.6749 
 127   0.0000       4.571764       124.4040 
 128   0.0000       4.578437       124.5856 
 129   0.0000       4.607659       125.3808 
 130   0.0000       4.635087       126.1271 
 131   0.0000       5.042900       137.2243 
 132   0.0000       5.100752       138.7985 
 133   0.0000       5.215173       141.9121 
 134   0.0000       5.329636       145.0268 
 135   0.0000       5.374823       146.2564 
 136   0.0000       5.418816       147.4535 
 137   0.0000       5.470830       148.8689 
 138   0.0000       5.545953       150.9130 
 139   0.0000       5.747755       156.4044 
 140   0.0000       5.783885       157.3875 
 141   0.0000       5.843650       159.0138 
 142   0.0000       5.921741       161.1388 
 143   0.0000       6.003748       163.3703 
 144   0.0000       6.136960       166.9952 
 145   0.0000       6.320262       171.9831 
 146   0.0000       6.536826       177.8761 
 147   0.0000       6.648007       180.9015 
 148   0.0000       6.721939       182.9133 
 149   0.0000       6.762940       184.0289 
 150   0.0000       6.791608       184.8090 
 151   0.0000       6.899005       187.7315 
 152   0.0000       7.065393       192.2591 
 153   0.0000       7.135754       194.1737 
 154   0.0000       7.207455       196.1248 
 155   0.0000       7.307261       198.8407 
 156   0.0000       7.486054       203.7059 
 157   0.0000       8.117927       220.9000 
 158   0.0000       8.951852       243.5923 
 159   0.0000       9.371303       255.0061 
 160   0.0000       9.592342       261.0209 
 161   0.0000       9.596602       261.1368 
 162   0.0000       9.827734       267.4262 
 163   0.0000       9.936123       270.3756 
 164   0.0000       9.955690       270.9081 
 165   0.0000      10.168439       276.6973 
 166   0.0000      11.251597       306.1715 
 167   0.0000      19.169071       521.6169 
 168   0.0000      22.257485       605.6570 
 169   0.0000      43.704248      1189.2531 
 170   0.0000      66.008062      1796.1707 
 171   0.0000     126.509765      3442.5057 

                    ********************************
                    * MULLIKEN POPULATION ANALYSIS *
                    ********************************

-----------------------
MULLIKEN ATOMIC CHARGES
-----------------------
   0 C :    0.004159
   1 O :    0.001293
   2 H :   -0.011388
   3 H :    0.000182
   4 H :   -0.000033
   5 H :   -0.001482
   6 C :   -0.156404
   7 O :   -0.481758
   8 H :    0.315170
   9 H :    0.125125
  10 H :    0.098184
  11 H :    0.106954
Sum of atomic charges:   -0.0000000

--------------------------------
MULLIKEN REDUCED ORBITAL CHARGES
--------------------------------
  0 C s       :    -0.002216  s :    -0.002216
      pz      :    -0.001342  p :    -0.001889
      px      :     0.000375
      py      :    -0.000922
      dz2     :    -0.000029  d :    -0.000057
      dxz     :     0.000009
      dyz     :     0.000029
      dx2y2   :    -0.000008
      dxy     :    -0.000058
      f0      :     0.000000  f :     0.000003
      f+1     :    -0.000000
      f-1     :     0.000001
      f+2     :     0.000001
      f-2     :     0.000000
      f+3     :     0.000000
      f-3     :    -0.000000
  1 O s       :    -0.000887  s :    -0.000887
      pz      :     0.000129  p :    -0.000451
      px      :    -0.000318
      py      :    -0.000262
      dz2     :     0.000005  d :     0.000045
      dxz     :     0.000007
      dyz     :     0.000014
      dx2y2   :     0.000001
      dxy     :     0.000018
      f0      :     0.000000  f :     0.000000
      f+1     :     0.000000
      f-1     :     0.000000
      f+2     :     0.000000
      f-2     :     0.000000
      f+3     :     0.000000
      f-3     :    -0.000000
  2 H s       :     0.011421  s :     0.011421
      pz      :     0.000032  p :    -0.000033
      px      :     0.000026
      py      :    -0.000091
  3 H s       :    -0.000182  s :    -0.000182
      pz      :     0.000000  p :     0.000000
      px      :     0.000000
      py      :     0.000000
  4 H s       :     0.000018  s :     0.000018
      pz      :     0.000004  p :     0.000015
      px      :    -0.000005
      py      :     0.000016
  5 H s       :     0.001482  s :     0.001482
      pz      :    -0.000002  p :     0.000000
      px      :     0.000000
      py      :     0.000002
  6 C s       :     3.232584  s :     3.232584
      pz      :     0.825107  p :     2.820295
      px      :     0.945780
      py      :     1.049408
      dz2     :     0.031818  d :     0.096204
      dxz     :     0.015803
      dyz     :     0.015465
      dx2y2   :     0.011675
      dxy     :     0.021443
      f0      :     0.001459  f :     0.007321
      f+1     :     0.001924
      f-1     :     0.000701
      f+2     :     0.000842
      f-2     :     0.001202
      f+3     :     0.000720
      f-3     :     0.000474
  7 O s       :     3.797471  s :     3.797471
      pz      :     1.584866  p :     4.654248
      px      :     1.419996
      py      :     1.649386
      dz2     :     0.007895  d :     0.028410
      dxz     :     0.004902
      dyz     :     0.004517
      dx2y2   :     0.001798
      dxy     :     0.009299
      f0      :     0.000162  f :     0.001629
      f+1     :     0.000418
      f-1     :     0.000153
      f+2     :     0.000222
      f-2     :     0.000175
      f+3     :     0.000166
      f-3     :     0.000332
  8 H s       :     0.639364  s :     0.639364
      pz      :     0.012793  p :     0.045466
      px      :     0.016948
      py      :     0.015725
  9 H s       :     0.854962  s :     0.854962
      pz      :     0.003049  p :     0.019913
      px      :     0.008133
      py      :     0.008731
 10 H s       :     0.884128  s :     0.884128
      pz      :     0.002825  p :     0.017688
      px      :     0.004253
      py      :     0.010610
 11 H s       :     0.873184  s :     0.873184
      pz      :     0.009498  p :     0.019863
      px      :     0.005961
      py      :     0.004404


                     *******************************
                     * LOEWDIN POPULATION ANALYSIS *
                     *******************************

----------------------
LOEWDIN ATOMIC CHARGES
----------------------
   0 C :   -0.010713
   1 O :   -0.006967
   2 H :   -0.036273
   3 H :   -0.000043
   4 H :   -0.005662
   5 H :   -0.000838
   6 C :   -0.370413
   7 O :   -0.062964
   8 H :    0.177300
   9 H :    0.119446
  10 H :    0.104028
  11 H :    0.093100

-------------------------------
LOEWDIN REDUCED ORBITAL CHARGES
-------------------------------
  0 C s       :     0.000966  s :     0.000966
      pz      :     0.002811  p :     0.009373
      px      :     0.001482
      py      :     0.005079
      dz2     :     0.000038  d :     0.000367
      dxz     :     0.000011
      dyz     :     0.000198
      dx2y2   :     0.000079
      dxy     :     0.000040
      f0      :     0.000000  f :     0.000007
      f+1     :     0.000000
      f-1     :     0.000002
      f+2     :     0.000003
      f-2     :     0.000000
      f+3     :     0.000001
      f-3     :     0.000001
  1 O s       :     0.000346  s :     0.000346
      pz      :     0.001286  p :     0.006539
      px      :     0.000354
      py      :     0.004899
      dz2     :     0.000006  d :     0.000080
      dxz     :     0.000004
      dyz     :     0.000036
      dx2y2   :     0.000025
      dxy     :     0.000010
      f0      :     0.000001  f :     0.000002
      f+1     :     0.000000
      f-1     :     0.000000
      f+2     :     0.000000
      f-2     :     0.000001
      f+3     :     0.000000
      f-3     :     0.000000
  2 H s       :     0.033537  s :     0.033537
      pz      :     0.000546  p :     0.002736
      px      :     0.000072
      py      :     0.002119
  3 H s       :     0.000041  s :     0.000041
      pz      :     0.000001  p :     0.000002
      px      :     0.000000
      py      :     0.000002
  4 H s       :     0.005544  s :     0.005544
      pz      :     0.000061  p :     0.000117
      px      :     0.000012
      py      :     0.000045
  5 H s       :     0.000836  s :     0.000836
      pz      :     0.000000  p :     0.000002
      px      :     0.000000
      py      :     0.000002
  6 C s       :     2.881680  s :     2.881680
      pz      :     0.934201  p :     3.039448
      px      :     1.017460
      py      :     1.087787
      dz2     :     0.134289  d :     0.396671
      dxz     :     0.090320
      dyz     :     0.047764
      dx2y2   :     0.034741
      dxy     :     0.089557
      f0      :     0.007808  f :     0.052614
      f+1     :     0.013017
      f-1     :     0.007432
      f+2     :     0.009217
      f-2     :     0.008474
      f+3     :     0.003552
      f-3     :     0.003115
  7 O s       :     3.376295  s :     3.376295
      pz      :     1.589818  p :     4.616055
      px      :     1.422975
      py      :     1.603262
      dz2     :     0.019025  d :     0.066528
      dxz     :     0.013690
      dyz     :     0.009120
      dx2y2   :     0.005333
      dxy     :     0.019360
      f0      :     0.000605  f :     0.004086
      f+1     :     0.000880
      f-1     :     0.000554
      f+2     :     0.000606
      f-2     :     0.000476
      f+3     :     0.000343
      f-3     :     0.000621
  8 H s       :     0.673120  s :     0.673120
      pz      :     0.033200  p :     0.149579
      px      :     0.058280
      py      :     0.058099
  9 H s       :     0.822798  s :     0.822798
      pz      :     0.009100  p :     0.057756
      px      :     0.022713
      py      :     0.025943
 10 H s       :     0.843738  s :     0.843738
      pz      :     0.008232  p :     0.052234
      px      :     0.013145
      py      :     0.030857
 11 H s       :     0.845355  s :     0.845355
      pz      :     0.028655  p :     0.061545
      px      :     0.019067
      py      :     0.013823


                      *****************************
                      * MAYER POPULATION ANALYSIS *
                      *****************************

  NA   - Mulliken gross atomic population
  ZA   - Total nuclear charge
  QA   - Mulliken gross atomic charge
  VA   - Mayer's total valence
  BVA  - Mayer's bonded valence
  FA   - Mayer's free valence

  ATOM       NA         ZA         QA         VA         BVA        FA
  0 C     -0.0042     0.0000     0.0042    -0.0083    -0.0083     0.0000
  1 O     -0.0013     0.0000     0.0013    -0.0026    -0.0026    -0.0000
  2 H      0.0114     0.0000    -0.0114     0.0227     0.0227     0.0000
  3 H     -0.0002     0.0000     0.0002    -0.0004    -0.0004     0.0000
  4 H      0.0000     0.0000    -0.0000     0.0001     0.0001     0.0000
  5 H      0.0015     0.0000    -0.0015     0.0030     0.0030    -0.0000
  6 C      6.1564     6.0000    -0.1564     3.9195     3.9195    -0.0000
  7 O      8.4818     8.0000    -0.4818     1.8917     1.8917     0.0000
  8 H      0.6848     1.0000     0.3152     0.9124     0.9124     0.0000
  9 H      0.8749     1.0000     0.1251     0.9550     0.9550    -0.0000
 10 H      0.9018     1.0000     0.0982     0.9586     0.9586    -0.0000
 11 H      0.8930     1.0000     0.1070     0.9586     0.9586     0.0000

  Mayer bond orders larger than 0.1
B(  6-C ,  7-O ) :   0.9888 B(  6-C ,  9-H ) :   0.9750 B(  6-C , 10-H ) :   0.9636 
B(  6-C , 11-H ) :   0.9799 B(  7-O ,  8-H ) :   0.8905 

-------
TIMINGS
-------

Total SCF time: 0 days 0 hours 0 min 13 sec 

Total time                  ....      13.347 sec
Sum of individual times     ....      13.084 sec  ( 98.0%)

Fock matrix formation       ....      12.553 sec  ( 94.1%)
  XC integration            ....       4.275 sec  ( 34.1% of F)
    Basis function eval.    ....       0.063 sec  (  1.5% of XC)
    Density eval.           ....       0.061 sec  (  1.4% of XC)
    XC-Functional eval.     ....       0.085 sec  (  2.0% of XC)
    XC-Potential eval.      ....       0.074 sec  (  1.7% of XC)
Diagonalization             ....       0.058 sec  (  0.4%)
Density matrix formation    ....       0.005 sec  (  0.0%)
Population analysis         ....       0.016 sec  (  0.1%)
Initial guess               ....       0.116 sec  (  0.9%)
Orbital Transformation      ....       0.000 sec  (  0.0%)
Orbital Orthonormalization  ....       0.000 sec  (  0.0%)
DIIS solution               ....       0.023 sec  (  0.2%)
SOSCF solution              ....       0.018 sec  (  0.1%)
Grid generation             ....       0.295 sec  (  2.2%)


-------------------------------------------------------------------------------
                          DFT DISPERSION CORRECTION                            
                                                                               
                              DFTD3 V3.1  Rev 1                                
                              USING zero damping                               
-------------------------------------------------------------------------------
The omegaB97X-D3 functional is recognized. Fit by Chai et al.
Active option DFTDOPT                   ...         3   

molecular C6(AA) [au] = 208.931167 


            DFT-D V3
 parameters
 s6 scaling factor         :     1.0000 
 rs6 scaling factor        :     1.2810 
 s8 scaling factor         :     1.0000 
 rs8 scaling factor        :     1.0940 
 Damping factor alpha6     :    14.0000 
 Damping factor alpha8     :    16.0000 
 ad hoc parameters k1-k3   :    16.0000     1.3333    -4.0000 

 Edisp/kcal,au: -0.172384728695  -0.000274712522 
 E6   /kcal   :  -0.036187793 
 E8   /kcal   :  -0.136196936 
 % E8         :  79.007541333 

-------------------------   ----------------
Dispersion correction           -0.000274713
-------------------------   ----------------


-------------------------   --------------------
FINAL SINGLE POINT ENERGY      -115.730961962261
-------------------------   --------------------


                            ***************************************
                            *     ORCA property calculations      *
                            ***************************************

                                    ---------------------
                                    Active property flags
                                    ---------------------
   (+) Dipole Moment


------------------------------------------------------------------------------
                       ORCA ELECTRIC PROPERTIES CALCULATION
------------------------------------------------------------------------------

Dipole Moment Calculation                       ... on
Quadrupole Moment Calculation                   ... off
Polarizability Calculation                      ... off
GBWName                                         ... 11-46_DFT_B.gbw
Electron density file                           ... 11-46_DFT_B.scfp.tmp
The origin for moment calculation is the CENTER OF MASS  = (-15.345852, -8.677312  8.860307)

-------------
DIPOLE MOMENT
-------------
                                X             Y             Z
Electronic contribution:     -0.92255      -0.49339      -1.48533
Nuclear contribution   :      0.76889       0.99605       1.91364
                        -----------------------------------------
Total Dipole Moment    :     -0.15367       0.50266       0.42831
                        -----------------------------------------
Magnitude (a.u.)       :      0.67803
Magnitude (Debye)      :      1.72342



--------------------
Rotational spectrum 
--------------------
 
Rotational constants in cm-1:     4.160759     0.806943     0.767176 
Rotational constants in MHz : 124736.415357 24191.549897 22999.366388 

 Dipole components along the rotational axes: 
x,y,z [a.u.] :     0.310865     0.597020     0.081607 
x,y,z [Debye]:     0.790156     1.517504     0.207429 

 
------------------------------------------------------------------------------
                      ORCA CHELPG CHARGES GENERATION
------------------------------------------------------------------------------

GBW file                           ... 11-46_DFT_B.gbw

Reading the GBW file               ... done

Grid spacing                       ...     0.300000
Point Cut-Off                      ...     2.800000
Van-der-Waals Radii                ...        COSMO
Total charge                       ...            0


Number of points X direction       ...           29
Number of points Y direction       ...           34
Number of points Z direction       ...           30
Maximum number of possible points  ...        29580
Final number of points             ...         6089


CHELPG Charges            
--------------------------------
  0   C   :       0.004630
  1   O   :       0.000416
  2   H   :      -0.000446
  3   H   :      -0.020403
  4   H   :       0.010276
  5   H   :       0.006812
  6   C   :      -0.010601
  7   O   :      -0.603013
  8   H   :       0.413559
  9   H   :       0.100772
 10   H   :       0.045729
 11   H   :       0.052269
--------------------------------
Total charge:     0.000000
--------------------------------

CHELPG charges calculated...

Timings for individual parts in CHELPG calculation:
Grid generation                 ...        0.001 sec (=   0.000 min)
Potential calculation           ...        1.310 sec (=   0.022 min)
Fit to the potential            ...        0.002 sec (=   0.000 min)
------------------------------------------------------------------------------


Timings for individual modules:

Sum of individual times         ...       16.053 sec (=   0.268 min)
GTO integral calculation        ...        0.798 sec (=   0.013 min)   5.0 %
SCF iterations                  ...       13.913 sec (=   0.232 min)  86.7 %
CHELPG charge generation        ...        1.342 sec (=   0.022 min)   8.4 %



                             ****ORCA TERMINATED NORMALLY****
TOTAL RUN TIME: 0 days 0 hours 1 minutes 12 seconds 828 msec
