
                                 *****************
                                 * O   R   C   A *
                                 *****************

           --- An Ab Initio, DFT and Semiempirical electronic structure package ---

                  #######################################################
                  #                        -***-                        #
                  #          Department of theory and spectroscopy      #
                  #               Directorship: Frank Neese             #
                  #        Max Planck Institute fuer Kohlenforschung    #
                  #                Kaiser Wilhelm Platz 1               #
                  #                 D-45470 Muelheim/Ruhr               #
                  #                      Germany                        #
                  #                                                     #
                  #                  All rights reserved                #
                  #                        -***-                        #
                  #######################################################


                         Program Version 4.1.2  - RELEASE  -


 With contributions from (in alphabetic order):
   Daniel Aravena         : Magnetic Properties
   Michael Atanasov       : Ab Initio Ligand Field Theory
   Alexander A. Auer      : GIAO ZORA
   Ute Becker             : Parallelization
   Giovanni Bistoni       : ED, Open-shell LED
   Martin Brehm           : Molecular dynamics
   Dmytro Bykov           : SCF Hessian
   Vijay G. Chilkuri      : MRCI spin determinant printing
   Dipayan Datta          : RHF DLPNO-CCSD density
   Achintya Kumar Dutta   : EOM-CC, STEOM-CC
   Dmitry Ganyushin       : Spin-Orbit,Spin-Spin,Magnetic field MRCI
   Miquel Garcia          : C-PCM Hessian
   Yang Guo               : DLPNO-NEVPT2, CIM, IAO-localization
   Andreas Hansen         : Spin unrestricted coupled pair/coupled cluster methods
   Benjamin Helmich-Paris : CASSCF linear response (MC-RPA)
   Lee Huntington         : MR-EOM, pCC
   Robert Izsak           : Overlap fitted RIJCOSX, COSX-SCS-MP3, EOM
   Christian Kollmar      : KDIIS, OOCD, Brueckner-CCSD(T), CCSD density
   Simone Kossmann        : Meta GGA functionals, TD-DFT gradient, OOMP2, MP2 Hessian
   Martin Krupicka        : AUTO-CI
   Lucas Lang             : DCDCAS
   Dagmar Lenk            : GEPOL surface, SMD
   Dimitrios Liakos       : Extrapolation schemes; parallel MDCI
   Dimitrios Manganas     : ROCIS; embedding schemes
   Dimitrios Pantazis     : SARC Basis sets
   Taras Petrenko         : DFT Hessian,TD-DFT gradient, ASA, ECA, R-Raman, ABS, FL, XAS/XES, NRVS
   Peter Pinski           : DLPNO-MP2, DLPNO-MP2 Gradient
   Christoph Reimann      : Effective Core Potentials
   Marius Retegan         : Local ZFS, SOC
   Christoph Riplinger    : Optimizer, TS searches, QM/MM, DLPNO-CCSD(T), (RO)-DLPNO pert. Triples
   Tobias Risthaus        : Range-separated hybrids, TD-DFT gradient, RPA, STAB
   Michael Roemelt        : Restricted open shell CIS
   Masaaki Saitow         : Open-shell DLPNO
   Barbara Sandhoefer     : DKH picture change effects
   Avijit Sen             : IP-ROCIS
   Kantharuban Sivalingam : CASSCF convergence, NEVPT2, FIC-MRCI
   Bernardo de Souza      : ESD, SOC TD-DFT
   Georgi Stoychev        : AutoAux, RI-MP2 NMR
   Willem Van den Heuvel  : Paramagnetic NMR
   Boris Wezisla          : Elementary symmetry handling
   Frank Wennmohs         : Technical directorship


 We gratefully acknowledge several colleagues who have allowed us to
 interface, adapt or use parts of their codes:
   Stefan Grimme, W. Hujo, H. Kruse,             : VdW corrections, initial TS optimization,
                  C. Bannwarth                     DFT functionals, gCP, sTDA/sTD-DF
   Ed Valeev                                     : LibInt (2-el integral package), F12 methods
   Garnet Chan, S. Sharma, J. Yang, R. Olivares  : DMRG
   Ulf Ekstrom                                   : XCFun DFT Library
   Mihaly Kallay                                 : mrcc  (arbitrary order and MRCC methods)
   Andreas Klamt, Michael Diedenhofen            : otool_cosmo (COSMO solvation model)
   Jiri Pittner, Ondrej Demel                    : Mk-CCSD
   Frank Weinhold                                : gennbo (NPA and NBO analysis)
   Christopher J. Cramer and Donald G. Truhlar   : smd solvation model
   Lars Goerigk                                  : TD-DFT with DH, B97 family of functionals
   V. Asgeirsson, H. Jonsson                     : NEB implementation
   FAccTs GmbH                                   : IRC, NEB, NEB-TS, Multilevel


 Your calculation uses the libint2 library for the computation of 2-el integrals
 For citations please refer to: http://libint.valeyev.net

 This ORCA versions uses:
   CBLAS   interface :  Fast vector & matrix operations
   LAPACKE interface :  Fast linear algebra routines
   SCALAPACK package :  Parallel linear algebra routines


Your calculation utilizes the atom-pairwise dispersion correction
with the zero-damping scheme (D30)
Cite in your paper:
S.Grimme, J.Antony, S.Ehrlich and H.Krieg, J.Chem.Phys., 132, (2010), 154104 
   

XCFun DFT library Copyright 2009-2010 Ulf Ekstrom and contributors.
See http://admol.org/xcfun for more information. This is free soft-
ware; see the source code for copying conditions. There is ABSOLUTELY
NO WARRANTY; not even for MERCHANTABILITY or FITNESS FOR A PARTICULAR
PURPOSE. For details see the documentation. Scientific users of this 
library should cite U. Ekstrom, L. Visscher, R. Bast, A. J. Thorvald-
sen and K. Ruud; J.Chem.Theor.Comp. 2010, DOI: 10.1021/ct100117s
XCFun Version 0.99 
----- Orbital basis set information -----
Your calculation utilizes the basis: def2-TZVP
   F. Weigend and R. Ahlrichs, Phys. Chem. Chem. Phys. 7, 3297 (2005).

================================================================================
                                        WARNINGS
                       Please study these warnings very carefully!
================================================================================


INFO   : the flag for use of LIBINT has been found!

================================================================================
                                       INPUT FILE
================================================================================
NAME = 23.in
|  1> #Run DFT-D3 single point of the dimer
|  2> ! wB97X-D3 def2-TZVP TIGHTSCF  CHELPG PAL8
|  3> 
|  4> %base "23_charges"
|  5> 
|  6> %scf
|  7> MaxIter 1000
|  8> end
|  9> %output
| 10>   Print[ P_Mayer ] 1
| 11>   Print[ P_NatPop ] 1
| 12>   Print[ P_Hirshfeld ] 1
| 13>   Print[ P_Mulliken ] 1
| 14>   Print [ P_Loewdin ] 1
| 15> end
| 16> 
| 17> * xyz 0 1
| 18>   C                      3.356413             -2.644208            -3.209359           
| 19>   O                      4.515774             -1.958350            -3.145388           
| 20>   H                      4.530993             -1.375679            -2.386012           
| 21>   H                      2.713389             -2.414533            -4.050515           
| 22>   H                      3.604550             -3.678019            -3.411292           
| 23>   H                      2.800861             -2.458728            -2.178806           
| 24> *
| 25> 
| 26>                          ****END OF INPUT****
================================================================================

                       ****************************
                       * Single Point Calculation *
                       ****************************

---------------------------------
CARTESIAN COORDINATES (ANGSTROEM)
---------------------------------
  C      3.356413   -2.644208   -3.209359
  O      4.515774   -1.958350   -3.145388
  H      4.530993   -1.375679   -2.386012
  H      2.713389   -2.414533   -4.050515
  H      3.604550   -3.678019   -3.411292
  H      2.800861   -2.458728   -2.178806

----------------------------
CARTESIAN COORDINATES (A.U.)
----------------------------
  NO LB      ZA    FRAG     MASS         X           Y           Z
   0 C     6.0000    0    12.011    6.342701   -4.996829   -6.064810
   1 O     8.0000    0    15.999    8.533576   -3.700745   -5.943922
   2 H     1.0000    0     1.008    8.562336   -2.599657   -4.508909
   3 H     1.0000    0     1.008    5.127562   -4.562806   -7.654364
   4 H     1.0000    0     1.008    6.811612   -6.950449   -6.446408
   5 H     1.0000    0     1.008    5.292860   -4.646323   -4.117347

--------------------------------
INTERNAL COORDINATES (ANGSTROEM)
--------------------------------
 C      0   0   0     0.000000000000     0.00000000     0.00000000
 O      1   0   0     1.348559013661     0.00000000     0.00000000
 H      2   1   0     0.957282101357   111.15298286     0.00000000
 H      1   2   3     1.083408457848   116.05691871   113.77573530
 H      1   2   3     1.082180248840   107.31237474   226.00397274
 H      1   2   3     1.185360848397   106.38564761   349.32353774

---------------------------
INTERNAL COORDINATES (A.U.)
---------------------------
 C      0   0   0     0.000000000000     0.00000000     0.00000000
 O      1   0   0     2.548407211250     0.00000000     0.00000000
 H      2   1   0     1.809001004469   111.15298286     0.00000000
 H      1   2   3     2.047345276507   116.05691871   113.77573530
 H      1   2   3     2.045024297846   107.31237474   226.00397274
 H      1   2   3     2.240007373343   106.38564761   349.32353774

---------------------
BASIS SET INFORMATION
---------------------
There are 3 groups of distinct atoms

 Group   1 Type C   : 11s6p2d1f contracted to 5s3p2d1f pattern {62111/411/11/1}
 Group   2 Type O   : 11s6p2d1f contracted to 5s3p2d1f pattern {62111/411/11/1}
 Group   3 Type H   : 5s1p contracted to 3s1p pattern {311/1}

Atom   0C    basis set group =>   1
Atom   1O    basis set group =>   2
Atom   2H    basis set group =>   3
Atom   3H    basis set group =>   3
Atom   4H    basis set group =>   3
Atom   5H    basis set group =>   3


           ************************************************************
           *        Program running with 8 parallel MPI-processes     *
           *              working on a common directory               *
           ************************************************************
------------------------------------------------------------------------------
                           ORCA GTO INTEGRAL CALCULATION
------------------------------------------------------------------------------

                         BASIS SET STATISTICS AND STARTUP INFO

 # of primitive gaussian shells          ...   64
 # of primitive gaussian functions       ...  124
 # of contracted shells                  ...   38
 # of contracted basis functions         ...   86
 Highest angular momentum                ...    3
 Maximum contraction depth               ...    6
 Integral package used                   ... LIBINT
 Integral threshhold            Thresh   ...  2.500e-11
 Primitive cut-off              TCut     ...  2.500e-12


------------------------------ INTEGRAL EVALUATION ----------------------------


 * One electron integrals 
 Pre-screening matrix                    ... done
 Shell pair data                         ... done (   0.000 sec)



           ************************************************************
           *        Program running with 8 parallel MPI-processes     *
           *              working on a common directory               *
           ************************************************************
-------------------------------------------------------------------------------
                                 ORCA SCF
-------------------------------------------------------------------------------

------------
SCF SETTINGS
------------
Hamiltonian:
 Density Functional     Method          .... DFT(GTOs)
 Exchange Functional    Exchange        .... WB97X-D3
 Correlation Functional Correlation     .... WB97X-D3
 Gradients option       PostSCFGGA      .... off
 Hybrid DFT is turned on
   Fraction HF Exchange ScalHFX         ....  0.195728
   Scaling of DF-GGA-X  ScalDFX         ....  0.000000
   Scaling of DF-GGA-C  ScalDFC         ....  1.000000
   Scaling of DF-LDA-C  ScalLDAC        ....  1.000000
   Perturbative correction              ....  0.000000
   Density functional embedding theory  .... OFF
 Long-range corrected/Screened/Range-Separated Hybrid DFT is turned on
   Amount of maximum screened exact exchange              ....  0.804272
   Range separation parameter mu (erf(mu*r12)/r12)        ....  0.250000


General Settings:
 Integral files         IntName         .... 23_charges
 Hartree-Fock type      HFTyp           .... RHF
 Total Charge           Charge          ....    0
 Multiplicity           Mult            ....    1
 Number of Electrons    NEL             ....   18
 Basis Dimension        Dim             ....   86
 Nuclear Repulsion      ENuc            ....     41.2740199788 Eh

Convergence Acceleration:
 DIIS                   CNVDIIS         .... on
   Start iteration      DIISMaxIt       ....    12
   Startup error        DIISStart       ....  0.200000
   # of expansion vecs  DIISMaxEq       ....     5
   Bias factor          DIISBfac        ....   1.050
   Max. coefficient     DIISMaxC        ....  10.000
 Newton-Raphson         CNVNR           .... off
 SOSCF                  CNVSOSCF        .... on
   Start iteration      SOSCFMaxIt      ....   150
   Startup grad/error   SOSCFStart      ....  0.003300
 Level Shifting         CNVShift        .... on
   Level shift para.    LevelShift      ....    0.2500
   Turn off err/grad.   ShiftErr        ....    0.0010
 Zerner damping         CNVZerner       .... off
 Static damping         CNVDamp         .... on
   Fraction old density DampFac         ....    0.7000
   Max. Damping (<1)    DampMax         ....    0.9800
   Min. Damping (>=0)   DampMin         ....    0.0000
   Turn off err/grad.   DampErr         ....    0.1000
 Fernandez-Rico         CNVRico         .... off

SCF Procedure:
 Maximum # iterations   MaxIter         ....  1000
 SCF integral mode      SCFMode         .... Direct
   Integral package                     .... LIBINT
 Reset frequency        DirectResetFreq ....    20
 Integral Threshold     Thresh          ....  2.500e-11 Eh
 Primitive CutOff       TCut            ....  2.500e-12 Eh

Convergence Tolerance:
 Convergence Check Mode ConvCheckMode   .... Total+1el-Energy
 Convergence forced     ConvForced      .... 0
 Energy Change          TolE            ....  1.000e-08 Eh
 1-El. energy change                    ....  1.000e-05 Eh
 Orbital Gradient       TolG            ....  1.000e-05
 Orbital Rotation angle TolX            ....  1.000e-05
 DIIS Error             TolErr          ....  5.000e-07


Diagonalization of the overlap matrix:
Smallest eigenvalue                        ... 1.843e-03
Time for diagonalization                   ...    0.189 sec
Threshold for overlap eigenvalues          ... 1.000e-08
Number of eigenvalues below threshold      ... 0
Time for construction of square roots      ...    0.096 sec
Total time needed                          ...    0.298 sec

-------------------
DFT GRID GENERATION
-------------------

General Integration Accuracy     IntAcc      ...  4.340
Radial Grid Type                 RadialGrid  ... Gauss-Chebyshev
Angular Grid (max. acc.)         AngularGrid ... Lebedev-110
Angular grid pruning method      GridPruning ... 3 (G Style)
Weight generation scheme         WeightScheme... Becke
Basis function cutoff            BFCut       ...    1.0000e-11
Integration weight cutoff        WCut        ...    1.0000e-14
Grids for H and He will be reduced by one unit

# of grid points (after initial pruning)     ...   6548 (   0.0 sec)
# of grid points (after weights+screening)   ...   6381 (   2.3 sec)
nearest neighbour list constructed           ...    0.0 sec
Grid point re-assignment to atoms done       ...    0.0 sec
Grid point division into batches done        ...    0.0 sec
Reduced shell lists constructed in    0.0 sec

Total number of grid points                  ...     6381
Total number of batches                      ...      103
Average number of points per batch           ...       61
Average number of grid points per atom       ...     1064
Average number of shells per batch           ...    32.00 (84.21%)
Average number of basis functions per batch  ...    73.43 (85.38%)
Average number of large shells per batch     ...    30.57 (95.54%)
Average number of large basis fcns per batch ...    69.86 (95.14%)
Maximum spatial batch extension              ...  15.04, 15.58, 19.39 au
Average spatial batch extension              ...   0.40,  0.43,  0.47 au

Time for grid setup =    2.789 sec

------------------------------
INITIAL GUESS: MODEL POTENTIAL
------------------------------
Loading Hartree-Fock densities                     ... done
Calculating cut-offs                               ... done
Setting up the integral package                    ... done
Initializing the effective Hamiltonian             ... done
Starting the Coulomb interaction                   ... done (   0.0 sec)
Reading the grid                                   ... done
Mapping shells                                     ... done
Starting the XC term evaluation                    ... done (   0.2 sec)
  promolecular density results
     # of electrons  =     17.998970615
     EX              =    -14.442943672
     EC              =     -0.577383485
     EX+EC           =    -15.020327157
Transforming the Hamiltonian                       ... done (   0.0 sec)
Diagonalizing the Hamiltonian                      ... done (   0.3 sec)
Back transforming the eigenvectors                 ... done (   0.0 sec)
Now organizing SCF variables                       ... done
                      ------------------
                      INITIAL GUESS DONE (   3.6 sec)
                      ------------------
--------------
SCF ITERATIONS
--------------
ITER       Energy         Delta-E        Max-DP      RMS-DP      [F,P]     Damp
               ***  Starting incremental Fock matrix formation  ***
  0   -115.6305050161   0.000000000000 0.03864779  0.00156960  0.2602592 0.7000
  1   -115.6706329496  -0.040127933473 0.02306233  0.00111819  0.1302991 0.7000
                               ***Turning on DIIS***
  2   -115.6888863472  -0.018253397609 0.03310911  0.00199564  0.0506332 0.0000
  3   -115.7182003992  -0.029314052005 0.01749277  0.00073472  0.0632782 0.0000
  4   -115.7232546078  -0.005054208569 0.00408292  0.00014805  0.0065300 0.0000
                      *** Initiating the SOSCF procedure ***
                           *** Shutting down DIIS ***
                      *** Re-Reading the Fockian *** 
                      *** Removing any level shift *** 
ITER      Energy       Delta-E        Grad      Rot      Max-DP    RMS-DP
  5   -115.72335655  -0.0001019463  0.000454  0.000454  0.000844  0.000054
               *** Restarting incremental Fock matrix formation ***
  6   -115.72336563  -0.0000090738  0.000203  0.000384  0.000617  0.000034
  7   -115.72336660  -0.0000009730  0.000087  0.000259  0.000359  0.000018
  8   -115.72336670  -0.0000000971  0.000037  0.000033  0.000041  0.000002
  9   -115.72336672  -0.0000000219  0.000011  0.000010  0.000020  0.000001
 10   -115.72336672  -0.0000000015  0.000004  0.000005  0.000006  0.000000
                  ***Gradient check signals convergence***
              ***Rediagonalizing the Fockian in SOSCF/NRSCF***

               *****************************************************
               *                     SUCCESS                       *
               *           SCF CONVERGED AFTER  11 CYCLES          *
               *****************************************************

Setting up the final grid:

General Integration Accuracy     IntAcc      ...  4.670
Radial Grid Type                 RadialGrid  ... Gauss-Chebyshev
Angular Grid (max. acc.)         AngularGrid ... Lebedev-302
Angular grid pruning method      GridPruning ... 3 (G Style)
Weight generation scheme         WeightScheme... Becke
Basis function cutoff            BFCut       ...    1.0000e-11
Integration weight cutoff        WCut        ...    1.0000e-14
Grids for H and He will be reduced by one unit

# of grid points (after initial pruning)     ...  26000 (   0.0 sec)
# of grid points (after weights+screening)   ...  25182 (   0.0 sec)
nearest neighbour list constructed           ...    0.0 sec
Grid point re-assignment to atoms done       ...    0.0 sec
Grid point division into batches done        ...    0.1 sec
Reduced shell lists constructed in    0.1 sec

Total number of grid points                  ...    25182
Total number of batches                      ...      395
Average number of points per batch           ...       63
Average number of grid points per atom       ...     4197
Average number of shells per batch           ...    31.76 (83.59%)
Average number of basis functions per batch  ...    72.43 (84.22%)
Average number of large shells per batch     ...    30.29 (95.37%)
Average number of large basis fcns per batch ...    69.86 (96.45%)
Maximum spatial batch extension              ...  15.73, 16.88, 14.73 au
Average spatial batch extension              ...   0.28,  0.30,  0.30 au

Final grid set up in    0.2 sec
Final integration                            ... done (   0.1 sec)
Change in XC energy                          ...    -0.000218520
Integrated number of electrons               ...    18.000011864
Previous integrated no of electrons          ...    17.999894265

----------------
TOTAL SCF ENERGY
----------------

Total Energy       :         -115.72358524 Eh           -3148.99885 eV

Components:
Nuclear Repulsion  :           41.27401998 Eh            1123.12318 eV
Electronic Energy  :         -156.99760522 Eh           -4272.12203 eV
One Electron Energy:         -238.88481611 Eh           -6500.38632 eV
Two Electron Energy:           81.88721089 Eh            2228.26429 eV

Virial components:
Potential Energy   :         -231.03958893 Eh           -6286.90683 eV
Kinetic Energy     :          115.31600369 Eh            3137.90799 eV
Virial Ratio       :            2.00353448


DFT components:
N(Alpha)           :        9.000005932221 electrons
N(Beta)            :        9.000005932221 electrons
N(Total)           :       18.000011864443 electrons
E(XC)              :      -10.665304827643 Eh       
DFET-embed. en.    :        0.000000000000 Eh       

---------------
SCF CONVERGENCE
---------------

  Last Energy change         ...   -3.7306e-10  Tolerance :   1.0000e-08
  Last MAX-Density change    ...    2.7189e-06  Tolerance :   1.0000e-07
  Last RMS-Density change    ...    1.5807e-07  Tolerance :   5.0000e-09
  Last Orbital Gradient      ...    1.0485e-06  Tolerance :   1.0000e-05
  Last Orbital Rotation      ...    2.4189e-06  Tolerance :   1.0000e-05

             **** THE GBW FILE WAS UPDATED (23_charges.gbw) ****
             **** DENSITY FILE WAS UPDATED (23_charges.scfp.tmp) ****
             **** ENERGY FILE WAS UPDATED (23_charges.en.tmp) ****
----------------
ORBITAL ENERGIES
----------------

  NO   OCC          E(Eh)            E(eV) 
   0   2.0000     -19.227469      -523.2060 
   1   2.0000     -10.315083      -280.6877 
   2   2.0000      -1.157294       -31.4916 
   3   2.0000      -0.792099       -21.5541 
   4   2.0000      -0.617873       -16.8132 
   5   2.0000      -0.550402       -14.9772 
   6   2.0000      -0.540080       -14.6963 
   7   2.0000      -0.420671       -11.4470 
   8   2.0000      -0.365754        -9.9527 
   9   0.0000       0.106698         2.9034 
  10   0.0000       0.159179         4.3315 
  11   0.0000       0.196942         5.3591 
  12   0.0000       0.213316         5.8046 
  13   0.0000       0.233411         6.3514 
  14   0.0000       0.294502         8.0138 
  15   0.0000       0.316937         8.6243 
  16   0.0000       0.419258        11.4086 
  17   0.0000       0.455663        12.3992 
  18   0.0000       0.469204        12.7677 
  19   0.0000       0.529435        14.4067 
  20   0.0000       0.544587        14.8190 
  21   0.0000       0.559743        15.2314 
  22   0.0000       0.598319        16.2811 
  23   0.0000       0.629467        17.1287 
  24   0.0000       0.696990        18.9661 
  25   0.0000       0.763784        20.7836 
  26   0.0000       0.815006        22.1774 
  27   0.0000       0.860966        23.4281 
  28   0.0000       0.983581        26.7646 
  29   0.0000       1.063964        28.9519 
  30   0.0000       1.139530        31.0082 
  31   0.0000       1.370449        37.2918 
  32   0.0000       1.474650        40.1273 
  33   0.0000       1.534459        41.7547 
  34   0.0000       1.604172        43.6518 
  35   0.0000       1.609577        43.7988 
  36   0.0000       1.639222        44.6055 
  37   0.0000       1.693288        46.0767 
  38   0.0000       1.734077        47.1866 
  39   0.0000       1.755547        47.7709 
  40   0.0000       1.917616        52.1810 
  41   0.0000       2.005075        54.5609 
  42   0.0000       2.045392        55.6579 
  43   0.0000       2.094692        56.9995 
  44   0.0000       2.177907        59.2639 
  45   0.0000       2.250852        61.2488 
  46   0.0000       2.312627        62.9298 
  47   0.0000       2.322166        63.1893 
  48   0.0000       2.374849        64.6229 
  49   0.0000       2.484352        67.6026 
  50   0.0000       2.522739        68.6472 
  51   0.0000       2.571431        69.9722 
  52   0.0000       2.598312        70.7037 
  53   0.0000       2.678808        72.8941 
  54   0.0000       2.854008        77.6615 
  55   0.0000       2.910112        79.1882 
  56   0.0000       2.927823        79.6701 
  57   0.0000       3.016145        82.0735 
  58   0.0000       3.099677        84.3465 
  59   0.0000       3.181047        86.5607 
  60   0.0000       3.290005        89.5256 
  61   0.0000       3.382774        92.0499 
  62   0.0000       3.500211        95.2456 
  63   0.0000       3.511740        95.5593 
  64   0.0000       3.642714        99.1233 
  65   0.0000       3.683402       100.2305 
  66   0.0000       3.728713       101.4634 
  67   0.0000       3.982009       108.3560 
  68   0.0000       4.165344       113.3448 
  69   0.0000       4.311121       117.3116 
  70   0.0000       4.385346       119.3313 
  71   0.0000       4.517718       122.9333 
  72   0.0000       5.367220       146.0495 
  73   0.0000       5.429981       147.7573 
  74   0.0000       5.610118       152.6591 
  75   0.0000       5.920414       161.1027 
  76   0.0000       5.945860       161.7951 
  77   0.0000       6.047473       164.5601 
  78   0.0000       6.373777       173.4393 
  79   0.0000       6.534333       177.8083 
  80   0.0000       6.801167       185.0692 
  81   0.0000       6.843543       186.2223 
  82   0.0000       7.041166       191.5999 
  83   0.0000       7.235475       196.8873 
  84   0.0000      22.480281       611.7195 
  85   0.0000      43.706763      1189.3215 

                    ********************************
                    * MULLIKEN POPULATION ANALYSIS *
                    ********************************

-----------------------
MULLIKEN ATOMIC CHARGES
-----------------------
   0 C :   -0.154396
   1 O :   -0.458312
   2 H :    0.323471
   3 H :    0.098784
   4 H :    0.105701
   5 H :    0.084751
Sum of atomic charges:    0.0000000

--------------------------------
MULLIKEN REDUCED ORBITAL CHARGES
--------------------------------
  0 C s       :     3.230998  s :     3.230998
      pz      :     1.044571  p :     2.802338
      px      :     0.777140
      py      :     0.980628
      dz2     :     0.007786  d :     0.111649
      dxz     :     0.035932
      dyz     :     0.008996
      dx2y2   :     0.045719
      dxy     :     0.013215
      f0      :     0.001184  f :     0.009412
      f+1     :     0.001444
      f-1     :     0.000272
      f+2     :     0.000255
      f-2     :     0.001546
      f+3     :     0.003364
      f-3     :     0.001346
  1 O s       :     3.772596  s :     3.772596
      pz      :     1.568415  p :     4.651740
      px      :     1.512081
      py      :     1.571244
      dz2     :     0.006011  d :     0.032075
      dxz     :     0.004778
      dyz     :     0.007149
      dx2y2   :     0.008111
      dxy     :     0.006025
      f0      :     0.000123  f :     0.001901
      f+1     :     0.000084
      f-1     :     0.000552
      f+2     :     0.000287
      f-2     :     0.000202
      f+3     :     0.000298
      f-3     :     0.000354
  2 H s       :     0.628439  s :     0.628439
      pz      :     0.017857  p :     0.048090
      px      :     0.012179
      py      :     0.018054
  3 H s       :     0.880845  s :     0.880845
      pz      :     0.009266  p :     0.020371
      px      :     0.006670
      py      :     0.004435
  4 H s       :     0.873405  s :     0.873405
      pz      :     0.004697  p :     0.020893
      px      :     0.003628
      py      :     0.012569
  5 H s       :     0.898911  s :     0.898911
      pz      :     0.009088  p :     0.016338
      px      :     0.004518
      py      :     0.002731


                     *******************************
                     * LOEWDIN POPULATION ANALYSIS *
                     *******************************

----------------------
LOEWDIN ATOMIC CHARGES
----------------------
   0 C :   -0.439444
   1 O :   -0.030932
   2 H :    0.173229
   3 H :    0.090497
   4 H :    0.097888
   5 H :    0.108762

-------------------------------
LOEWDIN REDUCED ORBITAL CHARGES
-------------------------------
  0 C s       :     2.863759  s :     2.863759
      pz      :     1.074510  p :     3.044068
      px      :     0.929766
      py      :     1.039792
      dz2     :     0.051932  d :     0.461525
      dxz     :     0.141896
      dyz     :     0.024950
      dx2y2   :     0.160515
      dxy     :     0.082232
      f0      :     0.008369  f :     0.070091
      f+1     :     0.007857
      f-1     :     0.004452
      f+2     :     0.003076
      f-2     :     0.011946
      f+3     :     0.021993
      f-3     :     0.012398
  1 O s       :     3.322892  s :     3.322892
      pz      :     1.531693  p :     4.619410
      px      :     1.554961
      py      :     1.532756
      dz2     :     0.011022  d :     0.082946
      dxz     :     0.014292
      dyz     :     0.017176
      dx2y2   :     0.023580
      dxy     :     0.016876
      f0      :     0.000524  f :     0.005683
      f+1     :     0.000395
      f-1     :     0.001052
      f+2     :     0.000806
      f-2     :     0.000614
      f+3     :     0.001405
      f-3     :     0.000888
  2 H s       :     0.669254  s :     0.669254
      pz      :     0.068732  p :     0.157518
      px      :     0.033401
      py      :     0.055385
  3 H s       :     0.847769  s :     0.847769
      pz      :     0.028357  p :     0.061734
      px      :     0.019423
      py      :     0.013954
  4 H s       :     0.840991  s :     0.840991
      pz      :     0.014328  p :     0.061122
      px      :     0.011478
      py      :     0.035315
  5 H s       :     0.845595  s :     0.845595
      pz      :     0.025353  p :     0.045643
      px      :     0.011986
      py      :     0.008304


                      *****************************
                      * MAYER POPULATION ANALYSIS *
                      *****************************

  NA   - Mulliken gross atomic population
  ZA   - Total nuclear charge
  QA   - Mulliken gross atomic charge
  VA   - Mayer's total valence
  BVA  - Mayer's bonded valence
  FA   - Mayer's free valence

  ATOM       NA         ZA         QA         VA         BVA        FA
  0 C      6.1544     6.0000    -0.1544     3.9731     3.9731     0.0000
  1 O      8.4583     8.0000    -0.4583     1.8843     1.8843     0.0000
  2 H      0.6765     1.0000     0.3235     0.9056     0.9056    -0.0000
  3 H      0.9012     1.0000     0.0988     0.9445     0.9445     0.0000
  4 H      0.8943     1.0000     0.1057     0.9511     0.9511     0.0000
  5 H      0.9152     1.0000     0.0848     0.9726     0.9726     0.0000

  Mayer bond orders larger than 0.1
B(  0-C ,  1-O ) :   1.0193 B(  0-C ,  3-H ) :   0.9686 B(  0-C ,  4-H ) :   0.9789 
B(  0-C ,  5-H ) :   0.9958 B(  1-O ,  2-H ) :   0.8952 


------------------
HIRSHFELD ANALYSIS
------------------

Total integrated alpha density =      8.999947133
Total integrated beta density  =      8.999947133

  ATOM     CHARGE      SPIN    
   0 C    0.006920    0.000000
   1 O   -0.243832    0.000000
   2 H    0.167019    0.000000
   3 H    0.021569    0.000000
   4 H    0.024554    0.000000
   5 H    0.023877    0.000000

  TOTAL   0.000106    0.000000

-------
TIMINGS
-------

Total SCF time: 0 days 0 hours 0 min 27 sec 

Total time                  ....      27.053 sec
Sum of individual times     ....      23.380 sec  ( 86.4%)

Fock matrix formation       ....      15.907 sec  ( 58.8%)
  XC integration            ....       3.468 sec  ( 21.8% of F)
    Basis function eval.    ....       0.041 sec  (  1.2% of XC)
    Density eval.           ....       0.044 sec  (  1.3% of XC)
    XC-Functional eval.     ....       0.076 sec  (  2.2% of XC)
    XC-Potential eval.      ....       0.044 sec  (  1.3% of XC)
Diagonalization             ....       1.502 sec  (  5.6%)
Density matrix formation    ....       1.498 sec  (  5.5%)
Population analysis         ....       0.027 sec  (  0.1%)
Initial guess               ....       0.837 sec  (  3.1%)
Orbital Transformation      ....       0.000 sec  (  0.0%)
Orbital Orthonormalization  ....       0.000 sec  (  0.0%)
DIIS solution               ....       0.320 sec  (  1.2%)
SOSCF solution              ....       0.323 sec  (  1.2%)
Grid generation             ....       2.966 sec  ( 11.0%)


-------------------------------------------------------------------------------
                          DFT DISPERSION CORRECTION                            
                                                                               
                              DFTD3 V3.1  Rev 1                                
                              USING zero damping                               
-------------------------------------------------------------------------------
The omegaB97X-D3 functional is recognized. Fit by Chai et al.
Active option DFTDOPT                   ...         3   

molecular C6(AA) [au] = 208.876065 


            DFT-D V3
 parameters
 s6 scaling factor         :     1.0000 
 rs6 scaling factor        :     1.2810 
 s8 scaling factor         :     1.0000 
 rs8 scaling factor        :     1.0940 
 Damping factor alpha6     :    14.0000 
 Damping factor alpha8     :    16.0000 
 ad hoc parameters k1-k3   :    16.0000     1.3333    -4.0000 

 Edisp/kcal,au: -0.144756724974  -0.000230684500 
 E6   /kcal   :  -0.028746024 
 E8   /kcal   :  -0.116010701 
 % E8         :  80.141838589 

-------------------------   ----------------
Dispersion correction           -0.000230685
-------------------------   ----------------


-------------------------   --------------------
FINAL SINGLE POINT ENERGY      -115.723815926602
-------------------------   --------------------


                            ***************************************
                            *     ORCA property calculations      *
                            ***************************************

                                    ---------------------
                                    Active property flags
                                    ---------------------
   (+) Dipole Moment


------------------------------------------------------------------------------
                       ORCA ELECTRIC PROPERTIES CALCULATION
------------------------------------------------------------------------------

Dipole Moment Calculation                       ... on
Quadrupole Moment Calculation                   ... off
Polarizability Calculation                      ... off
GBWName                                         ... 23_charges.gbw
Electron density file                           ... 23_charges.scfp.tmp
The origin for moment calculation is the CENTER OF MASS  = ( 7.449959, -4.311043 -5.956247)

-------------
DIPOLE MOMENT
-------------
                                X             Y             Z
Electronic contribution:      1.60547       0.88879      -0.09091
Nuclear contribution   :     -1.98008      -0.74739       0.54519
                        -----------------------------------------
Total Dipole Moment    :     -0.37461       0.14139       0.45429
                        -----------------------------------------
Magnitude (a.u.)       :      0.60556
Magnitude (Debye)      :      1.53921



--------------------
Rotational spectrum 
--------------------
 
Rotational constants in cm-1:     4.161937     0.906601     0.849399 
Rotational constants in MHz : 124771.742286 27179.199547 25464.329720 

 Dipole components along the rotational axes: 
x,y,z [a.u.] :    -0.191728     0.573956    -0.022750 
x,y,z [Debye]:    -0.487334     1.458880    -0.057827 

 
------------------------------------------------------------------------------
                      ORCA CHELPG CHARGES GENERATION
------------------------------------------------------------------------------

GBW file                           ... 23_charges.gbw

Reading the GBW file               ... done

Grid spacing                       ...     0.300000
Point Cut-Off                      ...     2.800000
Van-der-Waals Radii                ...        COSMO
Total charge                       ...            0


Number of points X direction       ...           24
Number of points Y direction       ...           26
Number of points Z direction       ...           24
Maximum number of possible points  ...        14976
Final number of points             ...         5850


CHELPG Charges            
--------------------------------
  0   C   :      -0.022666
  1   O   :      -0.563457
  2   H   :       0.411483
  3   H   :       0.070356
  4   H   :       0.084489
  5   H   :       0.019795
--------------------------------
Total charge:    -0.000000
--------------------------------

CHELPG charges calculated...

Timings for individual parts in CHELPG calculation:
Grid generation                 ...        0.001 sec (=   0.000 min)
Potential calculation           ...        0.676 sec (=   0.011 min)
Fit to the potential            ...        0.001 sec (=   0.000 min)
------------------------------------------------------------------------------


Timings for individual modules:

Sum of individual times         ...       38.247 sec (=   0.637 min)
GTO integral calculation        ...        4.058 sec (=   0.068 min)  10.6 %
SCF iterations                  ...       33.454 sec (=   0.558 min)  87.5 %
CHELPG charge generation        ...        0.735 sec (=   0.012 min)   1.9 %
                             ****ORCA TERMINATED NORMALLY****
TOTAL RUN TIME: 0 days 0 hours 0 minutes 40 seconds 334 msec
