
                                 *****************
                                 * O   R   C   A *
                                 *****************

           --- An Ab Initio, DFT and Semiempirical electronic structure package ---

                  #######################################################
                  #                        -***-                        #
                  #          Department of theory and spectroscopy      #
                  #               Directorship: Frank Neese             #
                  #        Max Planck Institute fuer Kohlenforschung    #
                  #                Kaiser Wilhelm Platz 1               #
                  #                 D-45470 Muelheim/Ruhr               #
                  #                      Germany                        #
                  #                                                     #
                  #                  All rights reserved                #
                  #                        -***-                        #
                  #######################################################


                         Program Version 4.1.2  - RELEASE  -


 With contributions from (in alphabetic order):
   Daniel Aravena         : Magnetic Properties
   Michael Atanasov       : Ab Initio Ligand Field Theory
   Alexander A. Auer      : GIAO ZORA
   Ute Becker             : Parallelization
   Giovanni Bistoni       : ED, Open-shell LED
   Martin Brehm           : Molecular dynamics
   Dmytro Bykov           : SCF Hessian
   Vijay G. Chilkuri      : MRCI spin determinant printing
   Dipayan Datta          : RHF DLPNO-CCSD density
   Achintya Kumar Dutta   : EOM-CC, STEOM-CC
   Dmitry Ganyushin       : Spin-Orbit,Spin-Spin,Magnetic field MRCI
   Miquel Garcia          : C-PCM Hessian
   Yang Guo               : DLPNO-NEVPT2, CIM, IAO-localization
   Andreas Hansen         : Spin unrestricted coupled pair/coupled cluster methods
   Benjamin Helmich-Paris : CASSCF linear response (MC-RPA)
   Lee Huntington         : MR-EOM, pCC
   Robert Izsak           : Overlap fitted RIJCOSX, COSX-SCS-MP3, EOM
   Christian Kollmar      : KDIIS, OOCD, Brueckner-CCSD(T), CCSD density
   Simone Kossmann        : Meta GGA functionals, TD-DFT gradient, OOMP2, MP2 Hessian
   Martin Krupicka        : AUTO-CI
   Lucas Lang             : DCDCAS
   Dagmar Lenk            : GEPOL surface, SMD
   Dimitrios Liakos       : Extrapolation schemes; parallel MDCI
   Dimitrios Manganas     : ROCIS; embedding schemes
   Dimitrios Pantazis     : SARC Basis sets
   Taras Petrenko         : DFT Hessian,TD-DFT gradient, ASA, ECA, R-Raman, ABS, FL, XAS/XES, NRVS
   Peter Pinski           : DLPNO-MP2, DLPNO-MP2 Gradient
   Christoph Reimann      : Effective Core Potentials
   Marius Retegan         : Local ZFS, SOC
   Christoph Riplinger    : Optimizer, TS searches, QM/MM, DLPNO-CCSD(T), (RO)-DLPNO pert. Triples
   Tobias Risthaus        : Range-separated hybrids, TD-DFT gradient, RPA, STAB
   Michael Roemelt        : Restricted open shell CIS
   Masaaki Saitow         : Open-shell DLPNO
   Barbara Sandhoefer     : DKH picture change effects
   Avijit Sen             : IP-ROCIS
   Kantharuban Sivalingam : CASSCF convergence, NEVPT2, FIC-MRCI
   Bernardo de Souza      : ESD, SOC TD-DFT
   Georgi Stoychev        : AutoAux, RI-MP2 NMR
   Willem Van den Heuvel  : Paramagnetic NMR
   Boris Wezisla          : Elementary symmetry handling
   Frank Wennmohs         : Technical directorship


 We gratefully acknowledge several colleagues who have allowed us to
 interface, adapt or use parts of their codes:
   Stefan Grimme, W. Hujo, H. Kruse,             : VdW corrections, initial TS optimization,
                  C. Bannwarth                     DFT functionals, gCP, sTDA/sTD-DF
   Ed Valeev                                     : LibInt (2-el integral package), F12 methods
   Garnet Chan, S. Sharma, J. Yang, R. Olivares  : DMRG
   Ulf Ekstrom                                   : XCFun DFT Library
   Mihaly Kallay                                 : mrcc  (arbitrary order and MRCC methods)
   Andreas Klamt, Michael Diedenhofen            : otool_cosmo (COSMO solvation model)
   Jiri Pittner, Ondrej Demel                    : Mk-CCSD
   Frank Weinhold                                : gennbo (NPA and NBO analysis)
   Christopher J. Cramer and Donald G. Truhlar   : smd solvation model
   Lars Goerigk                                  : TD-DFT with DH, B97 family of functionals
   V. Asgeirsson, H. Jonsson                     : NEB implementation
   FAccTs GmbH                                   : IRC, NEB, NEB-TS, Multilevel


 Your calculation uses the libint2 library for the computation of 2-el integrals
 For citations please refer to: http://libint.valeyev.net

 This ORCA versions uses:
   CBLAS   interface :  Fast vector & matrix operations
   LAPACKE interface :  Fast linear algebra routines
   SCALAPACK package :  Parallel linear algebra routines


Your calculation utilizes the atom-pairwise dispersion correction
with the zero-damping scheme (D30)
Cite in your paper:
S.Grimme, J.Antony, S.Ehrlich and H.Krieg, J.Chem.Phys., 132, (2010), 154104 
   

XCFun DFT library Copyright 2009-2010 Ulf Ekstrom and contributors.
See http://admol.org/xcfun for more information. This is free soft-
ware; see the source code for copying conditions. There is ABSOLUTELY
NO WARRANTY; not even for MERCHANTABILITY or FITNESS FOR A PARTICULAR
PURPOSE. For details see the documentation. Scientific users of this 
library should cite U. Ekstrom, L. Visscher, R. Bast, A. J. Thorvald-
sen and K. Ruud; J.Chem.Theor.Comp. 2010, DOI: 10.1021/ct100117s
XCFun Version 0.99 
----- Orbital basis set information -----
Your calculation utilizes the basis: def2-TZVP
   F. Weigend and R. Ahlrichs, Phys. Chem. Chem. Phys. 7, 3297 (2005).

================================================================================
                                        WARNINGS
                       Please study these warnings very carefully!
================================================================================


WARNING: Geometry Optimization
  ===> : Switching off AutoStart
         For restart on a previous wavefunction, please use MOREAD

INFO   : the flag for use of LIBINT has been found!

================================================================================
                                       INPUT FILE
================================================================================
NAME = bonds_angles_[1[6[8][1][1]]]-[6[8[1]][1][1][1]]_0.in
|  1> #Run DFT geometry optimization
|  2> ! wB97X-D3 def2-TZVP TIGHTSCF Grid5 FinalGrid6 Opt CHELPG PAL4
|  3> 
|  4> %base "0_geo_opt"
|  5> %geom MaxIter 500
|  6> end
|  7> 
|  8> %geom
|  9>   Constraints
| 10>     { B 5 0 C }
| 11>   end
| 12> end
| 13> 
| 14> 
| 15> * xyz 0 1
| 16>   C                    3.011548             -1.181306            0.598333            
| 17>   O                    4.394913             -1.128459            0.874149            
| 18>   H                    4.772436             -0.379431            0.412335            
| 19>   H                    2.806674             -1.319374            -0.469508           
| 20>   H                    2.611872             -2.040674            1.135740            
| 21>   H                    2.484517             -0.284082            0.945817            
| 22> *
| 23> 
| 24>                          ****END OF INPUT****
================================================================================

                       *****************************
                       * Geometry Optimization Run *
                       *****************************

Geometry optimization settings:
Update method            Update   .... BFGS
Choice of coordinates    CoordSys .... Z-matrix Internals
Initial Hessian          InHess   .... Almoef's Model

Convergence Tolerances:
Energy Change            TolE     ....  5.0000e-06 Eh
Max. Gradient            TolMAXG  ....  3.0000e-04 Eh/bohr
RMS Gradient             TolRMSG  ....  1.0000e-04 Eh/bohr
Max. Displacement        TolMAXD  ....  4.0000e-03 bohr
RMS Displacement         TolRMSD  ....  2.0000e-03 bohr

------------------------------------------------------------------------------
                        ORCA OPTIMIZATION COORDINATE SETUP
------------------------------------------------------------------------------

The optimization will be done in new redundant internal coordinates
Making redundant internal coordinates   ...  (new redundants) done
Evaluating the initial hessian          ...  (Almloef) done
Evaluating the coordinates              ...  done
Calculating the B-matrix                .... done
Calculating the G-matrix                .... done
Diagonalizing the G-matrix              .... done
Imposing constraints:
 Iter   0:  RMS(Cart)=    0.0000000000 RMS(Int)=    0.0000000000
CONVERGED
The first mode is                       ....    3
The number of degrees of freedom        ....   12
Storing new coordinates                 .... done

    -----------------------------------------------------------------
                    Redundant Internal Coordinates


    -----------------------------------------------------------------
         Definition                    Initial Value    Approx d2E/dq
    -----------------------------------------------------------------
      1. B(O   1,C   0)                  1.4116         0.516942   
      2. B(H   2,O   1)                  0.9575         0.524721   
      3. B(H   3,C   0)                  1.0960         0.352188   
      4. B(H   4,C   0)                  1.0895         0.360731   
      5. B(H   5,C   0)                  1.0970         0.350894 C 
      6. A(O   1,C   0,H   4)          107.0169         0.340286   
      7. A(O   1,C   0,H   3)          112.2263         0.338927   
      8. A(O   1,C   0,H   5)          112.2281         0.338718   
      9. A(H   3,C   0,H   5)          108.7729         0.288653   
     10. A(H   4,C   0,H   5)          108.2173         0.289739   
     11. A(H   3,C   0,H   4)          108.2177         0.289907   
     12. A(C   0,O   1,H   2)          108.7499         0.359342   
     13. D(H   2,O   1,C   0,H   5)    -61.4304         0.021176   
     14. D(H   2,O   1,C   0,H   3)     61.4271         0.021176   
     15. D(H   2,O   1,C   0,H   4)    179.9981         0.021176   
    -----------------------------------------------------------------

Number of atoms                         .... 6
Number of degrees of freedom            .... 15

         *************************************************************
         *                GEOMETRY OPTIMIZATION CYCLE   1            *
         *************************************************************
---------------------------------
CARTESIAN COORDINATES (ANGSTROEM)
---------------------------------
  C      3.011548   -1.181306    0.598333
  O      4.394913   -1.128459    0.874149
  H      4.772436   -0.379431    0.412335
  H      2.806674   -1.319374   -0.469508
  H      2.611872   -2.040674    1.135740
  H      2.484517   -0.284082    0.945817

----------------------------
CARTESIAN COORDINATES (A.U.)
----------------------------
  NO LB      ZA    FRAG     MASS         X           Y           Z
   0 C     6.0000    0    12.011    5.691001   -2.232345    1.130686
   1 O     8.0000    0    15.999    8.305182   -2.132478    1.651902
   2 H     1.0000    0     1.008    9.018597   -0.717021    0.779200
   3 H     1.0000    0     1.008    5.303845   -2.493256   -0.887242
   4 H     1.0000    0     1.008    4.935723   -3.856315    2.146238
   5 H     1.0000    0     1.008    4.695057   -0.536837    1.787335

--------------------------------
INTERNAL COORDINATES (ANGSTROEM)
--------------------------------
 C      0   0   0     0.000000000000     0.00000000     0.00000000
 O      1   0   0     1.411582797603     0.00000000     0.00000000
 H      2   1   0     0.957516961160   108.74991336     0.00000000
 H      1   2   3     1.096047685907   112.22634922    61.42714121
 H      1   2   3     1.089523082844   107.01689638   179.99811740
 H      1   2   3     1.097049548285   112.22812436   298.56958818

---------------------------
INTERNAL COORDINATES (A.U.)
---------------------------
 C      0   0   0     0.000000000000     0.00000000     0.00000000
 O      1   0   0     2.667504902825     0.00000000     0.00000000
 H      2   1   0     1.809444825177   108.74991336     0.00000000
 H      1   2   3     2.071229956081   112.22634922    61.42714121
 H      1   2   3     2.058900243160   107.01689638   179.99811740
 H      1   2   3     2.073123201601   112.22812436   298.56958818

---------------------
BASIS SET INFORMATION
---------------------
There are 3 groups of distinct atoms

 Group   1 Type C   : 11s6p2d1f contracted to 5s3p2d1f pattern {62111/411/11/1}
 Group   2 Type O   : 11s6p2d1f contracted to 5s3p2d1f pattern {62111/411/11/1}
 Group   3 Type H   : 5s1p contracted to 3s1p pattern {311/1}

Atom   0C    basis set group =>   1
Atom   1O    basis set group =>   2
Atom   2H    basis set group =>   3
Atom   3H    basis set group =>   3
Atom   4H    basis set group =>   3
Atom   5H    basis set group =>   3


           ************************************************************
           *        Program running with 4 parallel MPI-processes     *
           *              working on a common directory               *
           ************************************************************
------------------------------------------------------------------------------
                           ORCA GTO INTEGRAL CALCULATION
------------------------------------------------------------------------------

                         BASIS SET STATISTICS AND STARTUP INFO

 # of primitive gaussian shells          ...   64
 # of primitive gaussian functions       ...  124
 # of contracted shells                  ...   38
 # of contracted basis functions         ...   86
 Highest angular momentum                ...    3
 Maximum contraction depth               ...    6
 Integral package used                   ... LIBINT
 Integral threshhold            Thresh   ...  2.500e-11
 Primitive cut-off              TCut     ...  2.500e-12


------------------------------ INTEGRAL EVALUATION ----------------------------


 * One electron integrals 
 Pre-screening matrix                    ... done
 Shell pair data                         ... done (   0.000 sec)



           ************************************************************
           *        Program running with 4 parallel MPI-processes     *
           *              working on a common directory               *
           ************************************************************
-------------------------------------------------------------------------------
                                 ORCA SCF
-------------------------------------------------------------------------------

------------
SCF SETTINGS
------------
Hamiltonian:
 Density Functional     Method          .... DFT(GTOs)
 Exchange Functional    Exchange        .... WB97X-D3
 Correlation Functional Correlation     .... WB97X-D3
 Gradients option       PostSCFGGA      .... off
 Hybrid DFT is turned on
   Fraction HF Exchange ScalHFX         ....  0.195728
   Scaling of DF-GGA-X  ScalDFX         ....  0.000000
   Scaling of DF-GGA-C  ScalDFC         ....  1.000000
   Scaling of DF-LDA-C  ScalLDAC        ....  1.000000
   Perturbative correction              ....  0.000000
   Density functional embedding theory  .... OFF
 Long-range corrected/Screened/Range-Separated Hybrid DFT is turned on
   Amount of maximum screened exact exchange              ....  0.804272
   Range separation parameter mu (erf(mu*r12)/r12)        ....  0.250000


General Settings:
 Integral files         IntName         .... 0_geo_opt
 Hartree-Fock type      HFTyp           .... RHF
 Total Charge           Charge          ....    0
 Multiplicity           Mult            ....    1
 Number of Electrons    NEL             ....   18
 Basis Dimension        Dim             ....   86
 Nuclear Repulsion      ENuc            ....     40.4344548828 Eh

Convergence Acceleration:
 DIIS                   CNVDIIS         .... on
   Start iteration      DIISMaxIt       ....    12
   Startup error        DIISStart       ....  0.200000
   # of expansion vecs  DIISMaxEq       ....     5
   Bias factor          DIISBfac        ....   1.050
   Max. coefficient     DIISMaxC        ....  10.000
 Newton-Raphson         CNVNR           .... off
 SOSCF                  CNVSOSCF        .... on
   Start iteration      SOSCFMaxIt      ....   150
   Startup grad/error   SOSCFStart      ....  0.003300
 Level Shifting         CNVShift        .... on
   Level shift para.    LevelShift      ....    0.2500
   Turn off err/grad.   ShiftErr        ....    0.0010
 Zerner damping         CNVZerner       .... off
 Static damping         CNVDamp         .... on
   Fraction old density DampFac         ....    0.7000
   Max. Damping (<1)    DampMax         ....    0.9800
   Min. Damping (>=0)   DampMin         ....    0.0000
   Turn off err/grad.   DampErr         ....    0.1000
 Fernandez-Rico         CNVRico         .... off

SCF Procedure:
 Maximum # iterations   MaxIter         ....   125
 SCF integral mode      SCFMode         .... Direct
   Integral package                     .... LIBINT
 Reset frequency        DirectResetFreq ....    20
 Integral Threshold     Thresh          ....  2.500e-11 Eh
 Primitive CutOff       TCut            ....  2.500e-12 Eh

Convergence Tolerance:
 Convergence Check Mode ConvCheckMode   .... Total+1el-Energy
 Convergence forced     ConvForced      .... 0
 Energy Change          TolE            ....  1.000e-08 Eh
 1-El. energy change                    ....  1.000e-05 Eh
 Orbital Gradient       TolG            ....  1.000e-05
 Orbital Rotation angle TolX            ....  1.000e-05
 DIIS Error             TolErr          ....  5.000e-07


Diagonalization of the overlap matrix:
Smallest eigenvalue                        ... 1.652e-03
Time for diagonalization                   ...    0.002 sec
Threshold for overlap eigenvalues          ... 1.000e-08
Number of eigenvalues below threshold      ... 0
Time for construction of square roots      ...    0.008 sec
Total time needed                          ...    0.010 sec

-------------------
DFT GRID GENERATION
-------------------

General Integration Accuracy     IntAcc      ...  5.010
Radial Grid Type                 RadialGrid  ... Gauss-Chebyshev
Angular Grid (max. acc.)         AngularGrid ... Lebedev-434
Angular grid pruning method      GridPruning ... 3 (G Style)
Weight generation scheme         WeightScheme... Becke
Basis function cutoff            BFCut       ...    1.0000e-11
Integration weight cutoff        WCut        ...    1.0000e-14
Grids for H and He will be reduced by one unit

# of grid points (after initial pruning)     ...  48308 (   0.0 sec)
# of grid points (after weights+screening)   ...  46676 (   0.0 sec)
nearest neighbour list constructed           ...    0.0 sec
Grid point re-assignment to atoms done       ...    0.0 sec
Grid point division into batches done        ...    0.3 sec
Reduced shell lists constructed in    0.3 sec

Total number of grid points                  ...    46676
Total number of batches                      ...      733
Average number of points per batch           ...       63
Average number of grid points per atom       ...     7779
Average number of shells per batch           ...    33.11 (87.14%)
Average number of basis functions per batch  ...    76.78 (89.28%)
Average number of large shells per batch     ...    30.62 (92.47%)
Average number of large basis fcns per batch ...    72.31 (94.18%)
Maximum spatial batch extension              ...  15.77, 14.99, 16.58 au
Average spatial batch extension              ...   0.41,  0.41,  0.43 au

Time for grid setup =    0.426 sec

------------------------------
INITIAL GUESS: MODEL POTENTIAL
------------------------------
Loading Hartree-Fock densities                     ... done
Calculating cut-offs                               ... done
Setting up the integral package                    ... done
Initializing the effective Hamiltonian             ... done
Starting the Coulomb interaction                   ... done (   0.0 sec)
Reading the grid                                   ... done
Mapping shells                                     ... done
Starting the XC term evaluation                    ... done (   0.1 sec)
  promolecular density results
     # of electrons  =     17.998045205
     EX              =    -14.430129083
     EC              =     -0.575100544
     EX+EC           =    -15.005229627
Transforming the Hamiltonian                       ... done (   0.0 sec)
Diagonalizing the Hamiltonian                      ... done (   0.0 sec)
Back transforming the eigenvectors                 ... done (   0.0 sec)
Now organizing SCF variables                       ... done
                      ------------------
                      INITIAL GUESS DONE (   0.6 sec)
                      ------------------
--------------
SCF ITERATIONS
--------------
ITER       Energy         Delta-E        Max-DP      RMS-DP      [F,P]     Damp
               ***  Starting incremental Fock matrix formation  ***
  0   -115.6512363113   0.000000000000 0.03697114  0.00147455  0.2523769 0.7000
  1   -115.6882956591  -0.037059347737 0.02203137  0.00104065  0.1262518 0.7000
                               ***Turning on DIIS***
  2   -115.7053529516  -0.017057292559 0.03156338  0.00188064  0.0490875 0.0000
  3   -115.7330767789  -0.027723827249 0.01774040  0.00068019  0.0611388 0.0000
  4   -115.7376007600  -0.004523981117 0.00406417  0.00013181  0.0065496 0.0000
                      *** Initiating the SOSCF procedure ***
                           *** Shutting down DIIS ***
                      *** Re-Reading the Fockian *** 
                      *** Removing any level shift *** 
ITER      Energy       Delta-E        Grad      Rot      Max-DP    RMS-DP
  5   -115.73769491  -0.0000941529  0.000489  0.000489  0.000678  0.000043
               *** Restarting incremental Fock matrix formation ***
  6   -115.73770305  -0.0000081403  0.000152  0.000203  0.000489  0.000026
  7   -115.73770378  -0.0000007226  0.000056  0.000109  0.000208  0.000011
  8   -115.73770383  -0.0000000575  0.000019  0.000017  0.000030  0.000001
  9   -115.73770384  -0.0000000056  0.000011  0.000008  0.000015  0.000001
 10   -115.73770384  -0.0000000015  0.000003  0.000003  0.000003  0.000000
                  ***Gradient check signals convergence***
              ***Rediagonalizing the Fockian in SOSCF/NRSCF***

               *****************************************************
               *                     SUCCESS                       *
               *           SCF CONVERGED AFTER  11 CYCLES          *
               *****************************************************

Setting up the final grid:

General Integration Accuracy     IntAcc      ...  5.340
Radial Grid Type                 RadialGrid  ... Gauss-Chebyshev
Angular Grid (max. acc.)         AngularGrid ... Lebedev-590
Angular grid pruning method      GridPruning ... 3 (G Style)
Weight generation scheme         WeightScheme... Becke
Basis function cutoff            BFCut       ...    1.0000e-11
Integration weight cutoff        WCut        ...    1.0000e-14
Grids for H and He will be reduced by one unit

# of grid points (after initial pruning)     ...  77324 (   0.0 sec)
# of grid points (after weights+screening)   ...  74512 (   0.0 sec)
nearest neighbour list constructed           ...    0.0 sec
Grid point re-assignment to atoms done       ...    0.0 sec
Grid point division into batches done        ...    0.8 sec
Reduced shell lists constructed in    0.8 sec

Total number of grid points                  ...    74512
Total number of batches                      ...     1167
Average number of points per batch           ...       63
Average number of grid points per atom       ...    12419
Average number of shells per batch           ...    32.92 (86.64%)
Average number of basis functions per batch  ...    76.35 (88.78%)
Average number of large shells per batch     ...    30.31 (92.07%)
Average number of large basis fcns per batch ...    71.52 (93.67%)
Maximum spatial batch extension              ...  13.18, 14.25, 15.48 au
Average spatial batch extension              ...   0.34,  0.36,  0.37 au

Final grid set up in    0.9 sec
Final integration                            ... done (   0.2 sec)
Change in XC energy                          ...    -0.000107531
Integrated number of electrons               ...    18.000000739
Previous integrated no of electrons          ...    18.000002264

----------------
TOTAL SCF ENERGY
----------------

Total Energy       :         -115.73781137 Eh           -3149.38596 eV

Components:
Nuclear Repulsion  :           40.43445488 Eh            1100.27745 eV
Electronic Energy  :         -156.17226625 Eh           -4249.66341 eV
One Electron Energy:         -237.28836317 Eh           -6456.94463 eV
Two Electron Energy:           81.11609692 Eh            2207.28121 eV

Virial components:
Potential Energy   :         -230.98704811 Eh           -6285.47713 eV
Kinetic Energy     :          115.24923674 Eh            3136.09117 eV
Virial Ratio       :            2.00423929


DFT components:
N(Alpha)           :        9.000000369423 electrons
N(Beta)            :        9.000000369423 electrons
N(Total)           :       18.000000738845 electrons
E(XC)              :      -10.655333893980 Eh       
DFET-embed. en.    :        0.000000000000 Eh       

---------------
SCF CONVERGENCE
---------------

  Last Energy change         ...   -3.4319e-11  Tolerance :   1.0000e-08
  Last MAX-Density change    ...    1.8681e-06  Tolerance :   1.0000e-07
  Last RMS-Density change    ...    7.7913e-08  Tolerance :   5.0000e-09
  Last Orbital Gradient      ...    1.3522e-06  Tolerance :   1.0000e-05
  Last Orbital Rotation      ...    7.8190e-07  Tolerance :   1.0000e-05

             **** THE GBW FILE WAS UPDATED (0_geo_opt.gbw) ****
             **** DENSITY FILE WAS UPDATED (0_geo_opt.scfp.tmp) ****
             **** ENERGY FILE WAS UPDATED (0_geo_opt.en.tmp) ****
----------------
ORBITAL ENERGIES
----------------

  NO   OCC          E(Eh)            E(eV) 
   0   2.0000     -19.228110      -523.2235 
   1   2.0000     -10.315233      -280.6918 
   2   2.0000      -1.136815       -30.9343 
   3   2.0000      -0.795276       -21.6405 
   4   2.0000      -0.611563       -16.6415 
   5   2.0000      -0.541695       -14.7403 
   6   2.0000      -0.526336       -14.3223 
   7   2.0000      -0.433793       -11.8041 
   8   2.0000      -0.373600       -10.1662 
   9   0.0000       0.116627         3.1736 
  10   0.0000       0.156644         4.2625 
  11   0.0000       0.202552         5.5117 
  12   0.0000       0.205035         5.5793 
  13   0.0000       0.226344         6.1591 
  14   0.0000       0.304319         8.2810 
  15   0.0000       0.313380         8.5275 
  16   0.0000       0.404484        11.0066 
  17   0.0000       0.452639        12.3169 
  18   0.0000       0.484954        13.1963 
  19   0.0000       0.535678        14.5766 
  20   0.0000       0.543600        14.7921 
  21   0.0000       0.567550        15.4438 
  22   0.0000       0.598509        16.2863 
  23   0.0000       0.603333        16.4175 
  24   0.0000       0.671317        18.2675 
  25   0.0000       0.779009        21.1979 
  26   0.0000       0.832191        22.6451 
  27   0.0000       0.861289        23.4369 
  28   0.0000       0.989573        26.9277 
  29   0.0000       1.013926        27.5903 
  30   0.0000       1.109778        30.1986 
  31   0.0000       1.382642        37.6236 
  32   0.0000       1.512906        41.1683 
  33   0.0000       1.553593        42.2754 
  34   0.0000       1.602851        43.6158 
  35   0.0000       1.613176        43.8967 
  36   0.0000       1.623898        44.1885 
  37   0.0000       1.660294        45.1789 
  38   0.0000       1.687755        45.9262 
  39   0.0000       1.774588        48.2890 
  40   0.0000       1.952058        53.1182 
  41   0.0000       2.030627        55.2562 
  42   0.0000       2.055216        55.9253 
  43   0.0000       2.094048        56.9819 
  44   0.0000       2.114634        57.5421 
  45   0.0000       2.268298        61.7235 
  46   0.0000       2.333456        63.4966 
  47   0.0000       2.345455        63.8231 
  48   0.0000       2.380979        64.7897 
  49   0.0000       2.429120        66.0997 
  50   0.0000       2.497331        67.9558 
  51   0.0000       2.595934        70.6390 
  52   0.0000       2.639537        71.8255 
  53   0.0000       2.707134        73.6649 
  54   0.0000       2.841630        77.3247 
  55   0.0000       2.871372        78.1340 
  56   0.0000       2.888392        78.5972 
  57   0.0000       2.992920        81.4415 
  58   0.0000       3.095905        84.2438 
  59   0.0000       3.172874        86.3383 
  60   0.0000       3.298998        89.7703 
  61   0.0000       3.408056        92.7379 
  62   0.0000       3.441633        93.6516 
  63   0.0000       3.487952        94.9120 
  64   0.0000       3.612537        98.3021 
  65   0.0000       3.644996        99.1854 
  66   0.0000       3.666929        99.7822 
  67   0.0000       4.005423       108.9931 
  68   0.0000       4.222821       114.9088 
  69   0.0000       4.272980       116.2737 
  70   0.0000       4.455180       121.2316 
  71   0.0000       4.564334       124.2018 
  72   0.0000       5.346015       145.4725 
  73   0.0000       5.425317       147.6304 
  74   0.0000       5.554307       151.1404 
  75   0.0000       5.825987       158.5332 
  76   0.0000       5.834031       158.7521 
  77   0.0000       5.985523       162.8744 
  78   0.0000       6.379572       173.5970 
  79   0.0000       6.530890       177.7146 
  80   0.0000       6.744979       183.5402 
  81   0.0000       6.803997       185.1462 
  82   0.0000       7.039379       191.5513 
  83   0.0000       7.215886       196.3542 
  84   0.0000      22.404691       609.6626 
  85   0.0000      43.664233      1188.1642 

                    ********************************
                    * MULLIKEN POPULATION ANALYSIS *
                    ********************************

-----------------------
MULLIKEN ATOMIC CHARGES
-----------------------
   0 C :   -0.150921
   1 O :   -0.477587
   2 H :    0.313026
   3 H :    0.098681
   4 H :    0.118271
   5 H :    0.098530
Sum of atomic charges:   -0.0000000

--------------------------------
MULLIKEN REDUCED ORBITAL CHARGES
--------------------------------
  0 C s       :     3.223277  s :     3.223277
      pz      :     1.047247  p :     2.825959
      px      :     0.702160
      py      :     1.076552
      dz2     :     0.011114  d :     0.094264
      dxz     :     0.032492
      dyz     :     0.002647
      dx2y2   :     0.012743
      dxy     :     0.035269
      f0      :     0.001356  f :     0.007421
      f+1     :     0.000956
      f-1     :     0.000175
      f+2     :     0.001464
      f-2     :     0.000123
      f+3     :     0.001361
      f-3     :     0.001986
  1 O s       :     3.792781  s :     3.792781
      pz      :     1.759404  p :     4.652544
      px      :     1.313598
      py      :     1.579542
      dz2     :     0.003136  d :     0.030577
      dxz     :     0.006477
      dyz     :     0.005835
      dx2y2   :     0.008936
      dxy     :     0.006192
      f0      :     0.000269  f :     0.001685
      f+1     :     0.000233
      f-1     :     0.000087
      f+2     :     0.000287
      f-2     :     0.000235
      f+3     :     0.000367
      f-3     :     0.000206
  2 H s       :     0.639283  s :     0.639283
      pz      :     0.017006  p :     0.047691
      px      :     0.012719
      py      :     0.017966
  3 H s       :     0.881954  s :     0.881954
      pz      :     0.012073  p :     0.019365
      px      :     0.003007
      py      :     0.004285
  4 H s       :     0.861510  s :     0.861510
      pz      :     0.006297  p :     0.020219
      px      :     0.004194
      py      :     0.009728
  5 H s       :     0.882135  s :     0.882135
      pz      :     0.004917  p :     0.019335
      px      :     0.004967
      py      :     0.009450


                     *******************************
                     * LOEWDIN POPULATION ANALYSIS *
                     *******************************

----------------------
LOEWDIN ATOMIC CHARGES
----------------------
   0 C :   -0.385294
   1 O :   -0.076105
   2 H :    0.165788
   3 H :    0.093378
   4 H :    0.108669
   5 H :    0.093566

-------------------------------
LOEWDIN REDUCED ORBITAL CHARGES
-------------------------------
  0 C s       :     2.863169  s :     2.863169
      pz      :     1.096658  p :     3.052166
      px      :     0.846061
      py      :     1.109446
      dz2     :     0.072412  d :     0.412947
      dxz     :     0.114041
      dyz     :     0.020705
      dx2y2   :     0.082138
      dxy     :     0.123651
      f0      :     0.007819  f :     0.057012
      f+1     :     0.007163
      f-1     :     0.000854
      f+2     :     0.012526
      f-2     :     0.004828
      f+3     :     0.011732
      f-3     :     0.012091
  1 O s       :     3.366292  s :     3.366292
      pz      :     1.699037  p :     4.633602
      px      :     1.381197
      py      :     1.553368
      dz2     :     0.006132  d :     0.071567
      dxz     :     0.017864
      dyz     :     0.008086
      dx2y2   :     0.019340
      dxy     :     0.020145
      f0      :     0.000483  f :     0.004645
      f+1     :     0.000622
      f-1     :     0.000072
      f+2     :     0.001050
      f-2     :     0.000560
      f+3     :     0.000890
      f-3     :     0.000966
  2 H s       :     0.675134  s :     0.675134
      pz      :     0.055755  p :     0.159079
      px      :     0.033903
      py      :     0.069421
  3 H s       :     0.846791  s :     0.846791
      pz      :     0.036190  p :     0.059831
      px      :     0.009713
      py      :     0.013928
  4 H s       :     0.831730  s :     0.831730
      pz      :     0.019213  p :     0.059601
      px      :     0.011609
      py      :     0.028779
  5 H s       :     0.846767  s :     0.846767
      pz      :     0.015548  p :     0.059667
      px      :     0.015158
      py      :     0.028961


                      *****************************
                      * MAYER POPULATION ANALYSIS *
                      *****************************

  NA   - Mulliken gross atomic population
  ZA   - Total nuclear charge
  QA   - Mulliken gross atomic charge
  VA   - Mayer's total valence
  BVA  - Mayer's bonded valence
  FA   - Mayer's free valence

  ATOM       NA         ZA         QA         VA         BVA        FA
  0 C      6.1509     6.0000    -0.1509     3.9349     3.9349    -0.0000
  1 O      8.4776     8.0000    -0.4776     1.8881     1.8881    -0.0000
  2 H      0.6870     1.0000     0.3130     0.9136     0.9136     0.0000
  3 H      0.9013     1.0000     0.0987     0.9596     0.9596     0.0000
  4 H      0.8817     1.0000     0.1183     0.9598     0.9598    -0.0000
  5 H      0.9015     1.0000     0.0985     0.9597     0.9597    -0.0000

  Mayer bond orders larger than 0.1
B(  0-C ,  1-O ) :   0.9987 B(  0-C ,  3-H ) :   0.9755 B(  0-C ,  4-H ) :   0.9749 
B(  0-C ,  5-H ) :   0.9755 B(  1-O ,  2-H ) :   0.9002 

-------
TIMINGS
-------

Total SCF time: 0 days 0 hours 0 min 8 sec 

Total time                  ....       8.791 sec
Sum of individual times     ....       8.398 sec  ( 95.5%)

Fock matrix formation       ....       6.788 sec  ( 77.2%)
  XC integration            ....       1.942 sec  ( 28.6% of F)
    Basis function eval.    ....       0.408 sec  ( 21.0% of XC)
    Density eval.           ....       0.263 sec  ( 13.5% of XC)
    XC-Functional eval.     ....       0.689 sec  ( 35.5% of XC)
    XC-Potential eval.      ....       0.272 sec  ( 14.0% of XC)
Diagonalization             ....       0.014 sec  (  0.2%)
Density matrix formation    ....       0.002 sec  (  0.0%)
Population analysis         ....       0.015 sec  (  0.2%)
Initial guess               ....       0.202 sec  (  2.3%)
Orbital Transformation      ....       0.000 sec  (  0.0%)
Orbital Orthonormalization  ....       0.000 sec  (  0.0%)
DIIS solution               ....       0.022 sec  (  0.3%)
SOSCF solution              ....       0.031 sec  (  0.3%)
Grid generation             ....       1.324 sec  ( 15.1%)


-------------------------------------------------------------------------------
                          DFT DISPERSION CORRECTION                            
                                                                               
                              DFTD3 V3.1  Rev 1                                
                              USING zero damping                               
-------------------------------------------------------------------------------
The omegaB97X-D3 functional is recognized. Fit by Chai et al.
Active option DFTDOPT                   ...         3   

molecular C6(AA) [au] = 208.716874 


            DFT-D V3
 parameters
 s6 scaling factor         :     1.0000 
 rs6 scaling factor        :     1.2810 
 s8 scaling factor         :     1.0000 
 rs8 scaling factor        :     1.0940 
 Damping factor alpha6     :    14.0000 
 Damping factor alpha8     :    16.0000 
 ad hoc parameters k1-k3   :    16.0000     1.3333    -4.0000 

 Edisp/kcal,au: -0.150255378506  -0.000239447162 
 E6   /kcal   :  -0.029625748 
 E8   /kcal   :  -0.120629631 
 % E8         :  80.283069876 

-------------------------   ----------------
Dispersion correction           -0.000239447
-------------------------   ----------------


-------------------------   --------------------
FINAL SINGLE POINT ENERGY      -115.738050818573
-------------------------   --------------------



           ************************************************************
           *        Program running with 4 parallel MPI-processes     *
           *              working on a common directory               *
           ************************************************************
------------------------------------------------------------------------------
                         ORCA SCF GRADIENT CALCULATION
------------------------------------------------------------------------------

Gradient of the Kohn-Sham DFT energy:
Kohn-Sham wavefunction type      ... RKS
Hartree-Fock exchange scaling    ...    0.196
Number of operators              ...    1
Number of atoms                  ...    6
Basis set dimensions             ...   86
Integral neglect threshold       ... 2.5e-11
Integral primitive cutoff        ... 2.5e-12

Nuclear repulsion gradient       ... done
One Electron Gradient            ... done
Pre-screening matrix             ... done
Starting the two electron gradient:
Two electron gradient done
Exchange-correlation gradient    ... done
Dispersion correction            ... done

------------------
CARTESIAN GRADIENT
------------------

   1   C   :    0.000152957   -0.000444253   -0.000234944
   2   O   :    0.000064799   -0.000036604    0.000032323
   3   H   :    0.000000249    0.000010503   -0.000007479
   4   H   :    0.000014668   -0.000012985   -0.000005646
   5   H   :    0.000046140   -0.000029959    0.000007472
   6   H   :   -0.000278812    0.000513299    0.000208274

Difference to translation invariance:
           :   -0.0000000000   -0.0000000000    0.0000000000

Norm of the cartesian gradient     ...    0.0008190195
RMS gradient                       ...    0.0001930447
MAX gradient                       ...    0.0005132989

-------
TIMINGS
-------

Total SCF gradient time            ...        1.843 sec

One electron gradient       ....       0.012 sec  (  0.6%)
Prescreening matrices       ....       0.024 sec  (  1.3%)
Two electron gradient       ....       0.839 sec  ( 45.5%)
XC gradient                 ....       0.585 sec  ( 31.7%)
------------------------------------------------------------------------------
                         ORCA GEOMETRY RELAXATION STEP
------------------------------------------------------------------------------

Reading the OPT-File                    .... done
Getting information on internals        .... done
Copying old internal coords+grads       .... done
Making the new internal coordinates     .... (new redundants).... done
Validating the new internal coordinates .... (new redundants).... done
Calculating the B-matrix                .... done
Calculating the G,G- and P matrices     .... done
Transforming gradient to internals      .... done
Projecting the internal gradient        .... done
Number of atoms                         ....   6
Number of internal coordinates          ....  15
Current Energy                          ....  -115.738050819 Eh
Current gradient norm                   ....     0.000819019 Eh/bohr
Maximum allowed component of the step   ....  0.300
Current trust radius                    ....  0.300
Evaluating the initial hessian          ....  (Almloef) done
Projecting the Hessian                  .... done
Forming the augmented Hessian           .... done
Diagonalizing the augmented Hessian     .... done
Last element of RFO vector              ....  0.999999933
Lowest eigenvalues of augmented Hessian:
 -0.000000041  0.021176451  0.181774991  0.192285232  0.313280586
Length of the computed step             ....  0.000366930
The final length of the internal step   ....  0.000366930
Converting the step to cartesian space:
 Initial RMS(Int)=    0.0000947410
Transforming coordinates:
 Iter   0:  RMS(Cart)=    0.0000807011 RMS(Int)=    1.6222965597
 Iter   1:  RMS(Cart)=    0.0000000104 RMS(Int)=    0.0000000109
Imposing constraints:
 Iter   0:  RMS(Cart)=    0.0000000003 RMS(Int)=    0.0000000000
CONVERGED
done
Storing new coordinates                 .... done

                                .--------------------.
          ----------------------|Geometry convergence|-------------------------
          Item                value                   Tolerance       Converged
          ---------------------------------------------------------------------
          RMS gradient        0.0000307075            0.0001000000      YES
          MAX gradient        0.0000729756            0.0003000000      YES
          RMS step            0.0000947410            0.0020000000      YES
          MAX step            0.0002403504            0.0040000000      YES
          ........................................................
          Max(Bonds)      0.0001      Max(Angles)    0.01
          Max(Dihed)        0.01      Max(Improp)    0.00
          ---------------------------------------------------------------------

                    ***********************HURRAY********************
                    ***        THE OPTIMIZATION HAS CONVERGED     ***
                    *************************************************


    ---------------------------------------------------------------------------
                         Redundant Internal Coordinates

                          --- Optimized Parameters ---  
                            (Angstroem and degrees)

        Definition                    OldVal   dE/dq     Step     FinalVal
    ----------------------------------------------------------------------------
     1. B(O   1,C   0)                1.4116  0.000068 -0.0001    1.4115   
     2. B(H   2,O   1)                0.9575  0.000011 -0.0000    0.9575   
     3. B(H   3,C   0)                1.0960  0.000005 -0.0000    1.0960   
     4. B(H   4,C   0)                1.0895  0.000010 -0.0000    1.0895   
     5. B(H   5,C   0)                1.0970  0.000620  0.0000    1.0970 C 
     6. A(O   1,C   0,H   4)          107.02 -0.000073    0.01    107.03   
     7. A(O   1,C   0,H   3)          112.23 -0.000011    0.00    112.23   
     8. A(O   1,C   0,H   5)          112.23 -0.000005    0.00    112.23   
     9. A(H   3,C   0,H   5)          108.77  0.000032   -0.01    108.76   
    10. A(H   4,C   0,H   5)          108.22  0.000042   -0.01    108.21   
    11. A(H   3,C   0,H   4)          108.22  0.000016   -0.00    108.22   
    12. A(C   0,O   1,H   2)          108.75 -0.000008    0.00    108.75   
    13. D(H   2,O   1,C   0,H   5)    -61.43 -0.000009    0.00    -61.43   
    14. D(H   2,O   1,C   0,H   3)     61.43  0.000021   -0.01     61.42   
    15. D(H   2,O   1,C   0,H   4)    180.00 -0.000011    0.00    180.00   
    ----------------------------------------------------------------------------
                 *******************************************************
                 *** FINAL ENERGY EVALUATION AT THE STATIONARY POINT ***
                 ***               (AFTER    1 CYCLES)               ***
                 *******************************************************
---------------------------------
CARTESIAN COORDINATES (ANGSTROEM)
---------------------------------
  C      3.011623   -1.181360    0.598360
  O      4.394923   -1.128432    0.874132
  H      4.772407   -0.379403    0.412313
  H      2.806692   -1.319344   -0.469474
  H      2.611763   -2.040643    1.135735
  H      2.484551   -0.284143    0.945800

----------------------------
CARTESIAN COORDINATES (A.U.)
----------------------------
  NO LB      ZA    FRAG     MASS         X           Y           Z
   0 C     6.0000    0    12.011    5.691143   -2.232447    1.130736
   1 O     8.0000    0    15.999    8.305200   -2.132428    1.651871
   2 H     1.0000    0     1.008    9.018543   -0.716968    0.779158
   3 H     1.0000    0     1.008    5.303880   -2.493199   -0.887177
   4 H     1.0000    0     1.008    4.935517   -3.856257    2.146228
   5 H     1.0000    0     1.008    4.695122   -0.536952    1.787303

--------------------------------
INTERNAL COORDINATES (ANGSTROEM)
--------------------------------
 C      0   0   0     0.000000000000     0.00000000     0.00000000
 O      1   0   0     1.411513233038     0.00000000     0.00000000
 H      2   1   0     0.957505508277   108.75115329     0.00000000
 H      1   2   3     1.096040717339   112.22859653    61.42087484
 H      1   2   3     1.089508053047   107.03066690   180.00142670
 H      1   2   3     1.097049547438   112.22834819   298.57213518

---------------------------
INTERNAL COORDINATES (A.U.)
---------------------------
 C      0   0   0     0.000000000000     0.00000000     0.00000000
 O      1   0   0     2.667373444847     0.00000000     0.00000000
 H      2   1   0     1.809423182365   108.75115329     0.00000000
 H      1   2   3     2.071216787398   112.22859653    61.42087484
 H      1   2   3     2.058871840961   107.03066690   180.00142670
 H      1   2   3     2.073123200000   112.22834819   298.57213518

---------------------
BASIS SET INFORMATION
---------------------
There are 3 groups of distinct atoms

 Group   1 Type C   : 11s6p2d1f contracted to 5s3p2d1f pattern {62111/411/11/1}
 Group   2 Type O   : 11s6p2d1f contracted to 5s3p2d1f pattern {62111/411/11/1}
 Group   3 Type H   : 5s1p contracted to 3s1p pattern {311/1}

Atom   0C    basis set group =>   1
Atom   1O    basis set group =>   2
Atom   2H    basis set group =>   3
Atom   3H    basis set group =>   3
Atom   4H    basis set group =>   3
Atom   5H    basis set group =>   3


           ************************************************************
           *        Program running with 4 parallel MPI-processes     *
           *              working on a common directory               *
           ************************************************************
------------------------------------------------------------------------------
                           ORCA GTO INTEGRAL CALCULATION
------------------------------------------------------------------------------

                         BASIS SET STATISTICS AND STARTUP INFO

 # of primitive gaussian shells          ...   64
 # of primitive gaussian functions       ...  124
 # of contracted shells                  ...   38
 # of contracted basis functions         ...   86
 Highest angular momentum                ...    3
 Maximum contraction depth               ...    6
 Integral package used                   ... LIBINT
 Integral threshhold            Thresh   ...  2.500e-11
 Primitive cut-off              TCut     ...  2.500e-12


------------------------------ INTEGRAL EVALUATION ----------------------------


 * One electron integrals 
 Pre-screening matrix                    ... done
 Shell pair data                         ... done (   0.000 sec)



           ************************************************************
           *        Program running with 4 parallel MPI-processes     *
           *              working on a common directory               *
           ************************************************************
-------------------------------------------------------------------------------
                                 ORCA SCF
-------------------------------------------------------------------------------

------------
SCF SETTINGS
------------
Hamiltonian:
 Density Functional     Method          .... DFT(GTOs)
 Exchange Functional    Exchange        .... WB97X-D3
 Correlation Functional Correlation     .... WB97X-D3
 Gradients option       PostSCFGGA      .... off
 Hybrid DFT is turned on
   Fraction HF Exchange ScalHFX         ....  0.195728
   Scaling of DF-GGA-X  ScalDFX         ....  0.000000
   Scaling of DF-GGA-C  ScalDFC         ....  1.000000
   Scaling of DF-LDA-C  ScalLDAC        ....  1.000000
   Perturbative correction              ....  0.000000
   Density functional embedding theory  .... OFF
 Long-range corrected/Screened/Range-Separated Hybrid DFT is turned on
   Amount of maximum screened exact exchange              ....  0.804272
   Range separation parameter mu (erf(mu*r12)/r12)        ....  0.250000


General Settings:
 Integral files         IntName         .... 0_geo_opt
 Hartree-Fock type      HFTyp           .... RHF
 Total Charge           Charge          ....    0
 Multiplicity           Mult            ....    1
 Number of Electrons    NEL             ....   18
 Basis Dimension        Dim             ....   86
 Nuclear Repulsion      ENuc            ....     40.4355305639 Eh

Convergence Acceleration:
 DIIS                   CNVDIIS         .... on
   Start iteration      DIISMaxIt       ....    12
   Startup error        DIISStart       ....  0.200000
   # of expansion vecs  DIISMaxEq       ....     5
   Bias factor          DIISBfac        ....   1.050
   Max. coefficient     DIISMaxC        ....  10.000
 Newton-Raphson         CNVNR           .... off
 SOSCF                  CNVSOSCF        .... on
   Start iteration      SOSCFMaxIt      ....   150
   Startup grad/error   SOSCFStart      ....  0.003300
 Level Shifting         CNVShift        .... on
   Level shift para.    LevelShift      ....    0.2500
   Turn off err/grad.   ShiftErr        ....    0.0010
 Zerner damping         CNVZerner       .... off
 Static damping         CNVDamp         .... on
   Fraction old density DampFac         ....    0.7000
   Max. Damping (<1)    DampMax         ....    0.9800
   Min. Damping (>=0)   DampMin         ....    0.0000
   Turn off err/grad.   DampErr         ....    0.1000
 Fernandez-Rico         CNVRico         .... off

SCF Procedure:
 Maximum # iterations   MaxIter         ....   125
 SCF integral mode      SCFMode         .... Direct
   Integral package                     .... LIBINT
 Reset frequency        DirectResetFreq ....    20
 Integral Threshold     Thresh          ....  2.500e-11 Eh
 Primitive CutOff       TCut            ....  2.500e-12 Eh

Convergence Tolerance:
 Convergence Check Mode ConvCheckMode   .... Total+1el-Energy
 Convergence forced     ConvForced      .... 0
 Energy Change          TolE            ....  1.000e-08 Eh
 1-El. energy change                    ....  1.000e-05 Eh
 Orbital Gradient       TolG            ....  1.000e-05
 Orbital Rotation angle TolX            ....  1.000e-05
 DIIS Error             TolErr          ....  5.000e-07


Diagonalization of the overlap matrix:
Smallest eigenvalue                        ... 1.652e-03
Time for diagonalization                   ...    0.002 sec
Threshold for overlap eigenvalues          ... 1.000e-08
Number of eigenvalues below threshold      ... 0
Time for construction of square roots      ...    0.003 sec
Total time needed                          ...    0.006 sec

---------------------
INITIAL GUESS: MOREAD
---------------------
Guess MOs are being read from file: 0_geo_opt.gbw
Input Geometry matches current geometry (good)
Input basis set matches current basis set (good)
MOs were renormalized
MOs were reorthogonalized (Cholesky)
                      ------------------
                      INITIAL GUESS DONE (   0.0 sec)
                      ------------------
-------------------
DFT GRID GENERATION
-------------------

General Integration Accuracy     IntAcc      ...  5.010
Radial Grid Type                 RadialGrid  ... Gauss-Chebyshev
Angular Grid (max. acc.)         AngularGrid ... Lebedev-434
Angular grid pruning method      GridPruning ... 3 (G Style)
Weight generation scheme         WeightScheme... Becke
Basis function cutoff            BFCut       ...    1.0000e-11
Integration weight cutoff        WCut        ...    1.0000e-14
Grids for H and He will be reduced by one unit

# of grid points (after initial pruning)     ...  48308 (   0.0 sec)
# of grid points (after weights+screening)   ...  46678 (   0.0 sec)
nearest neighbour list constructed           ...    0.0 sec
Grid point re-assignment to atoms done       ...    0.0 sec
Grid point division into batches done        ...    0.3 sec
Reduced shell lists constructed in    0.3 sec

Total number of grid points                  ...    46678
Total number of batches                      ...      733
Average number of points per batch           ...       63
Average number of grid points per atom       ...     7780
Average number of shells per batch           ...    33.14 (87.20%)
Average number of basis functions per batch  ...    76.84 (89.35%)
Average number of large shells per batch     ...    30.61 (92.38%)
Average number of large basis fcns per batch ...    72.33 (94.13%)
Maximum spatial batch extension              ...  15.77, 14.99, 16.58 au
Average spatial batch extension              ...   0.41,  0.42,  0.42 au

Time for grid setup =    0.442 sec

--------------
SCF ITERATIONS
--------------
ITER       Energy         Delta-E        Max-DP      RMS-DP      [F,P]     Damp
               ***  Starting incremental Fock matrix formation  ***
                      *** Initiating the SOSCF procedure ***
                      *** Re-Reading the Fockian *** 
                      *** Removing any level shift *** 
ITER      Energy       Delta-E        Grad      Rot      Max-DP    RMS-DP
  0   -115.73770385 -115.7377038450  0.000012  0.000012  0.000012  0.000001
               *** Restarting incremental Fock matrix formation ***
  1   -115.73770385  -0.0000000047  0.000006  0.000006  0.000007  0.000000
  2   -115.73770385  -0.0000000006  0.000004  0.000003  0.000004  0.000000
                 **** Energy Check signals convergence ****
              ***Rediagonalizing the Fockian in SOSCF/NRSCF***

               *****************************************************
               *                     SUCCESS                       *
               *           SCF CONVERGED AFTER   3 CYCLES          *
               *****************************************************

Setting up the final grid:

General Integration Accuracy     IntAcc      ...  5.340
Radial Grid Type                 RadialGrid  ... Gauss-Chebyshev
Angular Grid (max. acc.)         AngularGrid ... Lebedev-590
Angular grid pruning method      GridPruning ... 3 (G Style)
Weight generation scheme         WeightScheme... Becke
Basis function cutoff            BFCut       ...    1.0000e-11
Integration weight cutoff        WCut        ...    1.0000e-14
Grids for H and He will be reduced by one unit

# of grid points (after initial pruning)     ...  77324 (   0.0 sec)
# of grid points (after weights+screening)   ...  74512 (   0.0 sec)
nearest neighbour list constructed           ...    0.0 sec
Grid point re-assignment to atoms done       ...    0.0 sec
Grid point division into batches done        ...    0.8 sec
Reduced shell lists constructed in    0.8 sec

Total number of grid points                  ...    74512
Total number of batches                      ...     1167
Average number of points per batch           ...       63
Average number of grid points per atom       ...    12419
Average number of shells per batch           ...    32.93 (86.65%)
Average number of basis functions per batch  ...    76.37 (88.80%)
Average number of large shells per batch     ...    30.31 (92.05%)
Average number of large basis fcns per batch ...    71.51 (93.63%)
Maximum spatial batch extension              ...  13.18, 14.25, 15.48 au
Average spatial batch extension              ...   0.34,  0.36,  0.37 au

Final grid set up in    0.9 sec
Final integration                            ... done (   0.2 sec)
Change in XC energy                          ...    -0.000107568
Integrated number of electrons               ...    18.000000739
Previous integrated no of electrons          ...    18.000002262

----------------
TOTAL SCF ENERGY
----------------

Total Energy       :         -115.73781142 Eh           -3149.38596 eV

Components:
Nuclear Repulsion  :           40.43553056 Eh            1100.30673 eV
Electronic Energy  :         -156.17334198 Eh           -4249.69269 eV
One Electron Energy:         -237.29043345 Eh           -6457.00096 eV
Two Electron Energy:           81.11709147 Eh            2207.30828 eV

Virial components:
Potential Energy   :         -230.98723705 Eh           -6285.48227 eV
Kinetic Energy     :          115.24942563 Eh            3136.09631 eV
Virial Ratio       :            2.00423764


DFT components:
N(Alpha)           :        9.000000369369 electrons
N(Beta)            :        9.000000369369 electrons
N(Total)           :       18.000000738738 electrons
E(XC)              :      -10.655373025312 Eh       
DFET-embed. en.    :        0.000000000000 Eh       

---------------
SCF CONVERGENCE
---------------

  Last Energy change         ...   -2.0491e-10  Tolerance :   1.0000e-08
  Last MAX-Density change    ...    1.0129e-06  Tolerance :   1.0000e-07
  Last RMS-Density change    ...    6.5624e-08  Tolerance :   5.0000e-09
  Last Orbital Gradient      ...    7.0771e-07  Tolerance :   1.0000e-05
  Last Orbital Rotation      ...    7.3293e-07  Tolerance :   1.0000e-05

             **** THE GBW FILE WAS UPDATED (0_geo_opt.gbw) ****
             **** DENSITY FILE WAS UPDATED (0_geo_opt.scfp.tmp) ****
             **** ENERGY FILE WAS UPDATED (0_geo_opt.en.tmp) ****
----------------
ORBITAL ENERGIES
----------------

  NO   OCC          E(Eh)            E(eV) 
   0   2.0000     -19.228106      -523.2234 
   1   2.0000     -10.315221      -280.6914 
   2   2.0000      -1.136837       -30.9349 
   3   2.0000      -0.795278       -21.6406 
   4   2.0000      -0.611579       -16.6419 
   5   2.0000      -0.541691       -14.7402 
   6   2.0000      -0.526357       -14.3229 
   7   2.0000      -0.433786       -11.8039 
   8   2.0000      -0.373594       -10.1660 
   9   0.0000       0.116629         3.1736 
  10   0.0000       0.156645         4.2625 
  11   0.0000       0.202564         5.5120 
  12   0.0000       0.205039         5.5794 
  13   0.0000       0.226354         6.1594 
  14   0.0000       0.304336         8.2814 
  15   0.0000       0.313376         8.5274 
  16   0.0000       0.404513        11.0074 
  17   0.0000       0.452659        12.3175 
  18   0.0000       0.484941        13.1959 
  19   0.0000       0.535671        14.5764 
  20   0.0000       0.543602        14.7922 
  21   0.0000       0.567567        15.4443 
  22   0.0000       0.598513        16.2864 
  23   0.0000       0.603358        16.4182 
  24   0.0000       0.671309        18.2672 
  25   0.0000       0.779018        21.1981 
  26   0.0000       0.832183        22.6449 
  27   0.0000       0.861301        23.4372 
  28   0.0000       0.989575        26.9277 
  29   0.0000       1.013912        27.5900 
  30   0.0000       1.109799        30.1992 
  31   0.0000       1.382654        37.6239 
  32   0.0000       1.512909        41.1683 
  33   0.0000       1.553607        42.2758 
  34   0.0000       1.602848        43.6157 
  35   0.0000       1.613180        43.8969 
  36   0.0000       1.623935        44.1895 
  37   0.0000       1.660276        45.1784 
  38   0.0000       1.687777        45.9267 
  39   0.0000       1.774614        48.2897 
  40   0.0000       1.952074        53.1186 
  41   0.0000       2.030575        55.2548 
  42   0.0000       2.055223        55.9255 
  43   0.0000       2.094083        56.9829 
  44   0.0000       2.114608        57.5414 
  45   0.0000       2.268284        61.7231 
  46   0.0000       2.333497        63.4977 
  47   0.0000       2.345478        63.8237 
  48   0.0000       2.381031        64.7912 
  49   0.0000       2.429200        66.1019 
  50   0.0000       2.497364        67.9567 
  51   0.0000       2.595917        70.6385 
  52   0.0000       2.639545        71.8257 
  53   0.0000       2.707196        73.6666 
  54   0.0000       2.841737        77.3276 
  55   0.0000       2.871399        78.1347 
  56   0.0000       2.888350        78.5960 
  57   0.0000       2.992898        81.4409 
  58   0.0000       3.095926        84.2444 
  59   0.0000       3.172890        86.3387 
  60   0.0000       3.298927        89.7684 
  61   0.0000       3.407961        92.7353 
  62   0.0000       3.441746        93.6547 
  63   0.0000       3.487996        94.9132 
  64   0.0000       3.612578        98.3033 
  65   0.0000       3.645062        99.1872 
  66   0.0000       3.666957        99.7830 
  67   0.0000       4.005498       108.9952 
  68   0.0000       4.222891       114.9107 
  69   0.0000       4.273021       116.2748 
  70   0.0000       4.455067       121.2285 
  71   0.0000       4.564318       124.2014 
  72   0.0000       5.346049       145.4734 
  73   0.0000       5.425355       147.6314 
  74   0.0000       5.554339       151.1413 
  75   0.0000       5.826105       158.5364 
  76   0.0000       5.834107       158.7541 
  77   0.0000       5.985630       162.8773 
  78   0.0000       6.379613       173.5981 
  79   0.0000       6.530906       177.7150 
  80   0.0000       6.744981       183.5403 
  81   0.0000       6.804040       185.1473 
  82   0.0000       7.039371       191.5510 
  83   0.0000       7.215910       196.3549 
  84   0.0000      22.404925       609.6690 
  85   0.0000      43.664237      1188.1643 

                    ********************************
                    * MULLIKEN POPULATION ANALYSIS *
                    ********************************

-----------------------
MULLIKEN ATOMIC CHARGES
-----------------------
   0 C :   -0.150919
   1 O :   -0.477574
   2 H :    0.313037
   3 H :    0.098671
   4 H :    0.118267
   5 H :    0.098517
Sum of atomic charges:    0.0000000

--------------------------------
MULLIKEN REDUCED ORBITAL CHARGES
--------------------------------
  0 C s       :     3.223250  s :     3.223250
      pz      :     1.047247  p :     2.825972
      px      :     0.702161
      py      :     1.076564
      dz2     :     0.011114  d :     0.094275
      dxz     :     0.032498
      dyz     :     0.002647
      dx2y2   :     0.012740
      dxy     :     0.035276
      f0      :     0.001356  f :     0.007422
      f+1     :     0.000956
      f-1     :     0.000175
      f+2     :     0.001464
      f-2     :     0.000123
      f+3     :     0.001361
      f-3     :     0.001986
  1 O s       :     3.792766  s :     3.792766
      pz      :     1.759394  p :     4.652544
      px      :     1.313624
      py      :     1.579525
      dz2     :     0.003136  d :     0.030579
      dxz     :     0.006478
      dyz     :     0.005835
      dx2y2   :     0.008938
      dxy     :     0.006192
      f0      :     0.000269  f :     0.001685
      f+1     :     0.000233
      f-1     :     0.000087
      f+2     :     0.000287
      f-2     :     0.000235
      f+3     :     0.000367
      f-3     :     0.000206
  2 H s       :     0.639271  s :     0.639271
      pz      :     0.017007  p :     0.047692
      px      :     0.012719
      py      :     0.017967
  3 H s       :     0.881964  s :     0.881964
      pz      :     0.012073  p :     0.019365
      px      :     0.003008
      py      :     0.004285
  4 H s       :     0.861513  s :     0.861513
      pz      :     0.006297  p :     0.020220
      px      :     0.004195
      py      :     0.009727
  5 H s       :     0.882147  s :     0.882147
      pz      :     0.004918  p :     0.019335
      px      :     0.004968
      py      :     0.009450


                     *******************************
                     * LOEWDIN POPULATION ANALYSIS *
                     *******************************

----------------------
LOEWDIN ATOMIC CHARGES
----------------------
   0 C :   -0.385349
   1 O :   -0.076046
   2 H :    0.165795
   3 H :    0.093374
   4 H :    0.108662
   5 H :    0.093563

-------------------------------
LOEWDIN REDUCED ORBITAL CHARGES
-------------------------------
  0 C s       :     2.863137  s :     2.863137
      pz      :     1.096651  p :     3.052183
      px      :     0.846084
      py      :     1.109448
      dz2     :     0.072418  d :     0.413005
      dxz     :     0.114065
      dyz     :     0.020700
      dx2y2   :     0.082139
      dxy     :     0.123682
      f0      :     0.007821  f :     0.057023
      f+1     :     0.007164
      f-1     :     0.000854
      f+2     :     0.012526
      f-2     :     0.004829
      f+3     :     0.011735
      f-3     :     0.012093
  1 O s       :     3.366241  s :     3.366241
      pz      :     1.699012  p :     4.633583
      px      :     1.381233
      py      :     1.553338
      dz2     :     0.006133  d :     0.071577
      dxz     :     0.017867
      dyz     :     0.008087
      dx2y2   :     0.019344
      dxy     :     0.020147
      f0      :     0.000483  f :     0.004645
      f+1     :     0.000623
      f-1     :     0.000072
      f+2     :     0.001051
      f-2     :     0.000560
      f+3     :     0.000890
      f-3     :     0.000966
  2 H s       :     0.675123  s :     0.675123
      pz      :     0.055756  p :     0.159082
      px      :     0.033903
      py      :     0.069423
  3 H s       :     0.846794  s :     0.846794
      pz      :     0.036190  p :     0.059832
      px      :     0.009714
      py      :     0.013928
  4 H s       :     0.831734  s :     0.831734
      pz      :     0.019214  p :     0.059604
      px      :     0.011613
      py      :     0.028777
  5 H s       :     0.846771  s :     0.846771
      pz      :     0.015548  p :     0.059666
      px      :     0.015158
      py      :     0.028960


                      *****************************
                      * MAYER POPULATION ANALYSIS *
                      *****************************

  NA   - Mulliken gross atomic population
  ZA   - Total nuclear charge
  QA   - Mulliken gross atomic charge
  VA   - Mayer's total valence
  BVA  - Mayer's bonded valence
  FA   - Mayer's free valence

  ATOM       NA         ZA         QA         VA         BVA        FA
  0 C      6.1509     6.0000    -0.1509     3.9349     3.9349     0.0000
  1 O      8.4776     8.0000    -0.4776     1.8881     1.8881    -0.0000
  2 H      0.6870     1.0000     0.3130     0.9136     0.9136    -0.0000
  3 H      0.9013     1.0000     0.0987     0.9596     0.9596     0.0000
  4 H      0.8817     1.0000     0.1183     0.9598     0.9598    -0.0000
  5 H      0.9015     1.0000     0.0985     0.9596     0.9596     0.0000

  Mayer bond orders larger than 0.1
B(  0-C ,  1-O ) :   0.9987 B(  0-C ,  3-H ) :   0.9755 B(  0-C ,  4-H ) :   0.9749 
B(  0-C ,  5-H ) :   0.9755 B(  1-O ,  2-H ) :   0.9002 

-------
TIMINGS
-------

Total SCF time: 0 days 0 hours 0 min 4 sec 

Total time                  ....       4.220 sec
Sum of individual times     ....       3.889 sec  ( 92.1%)

Fock matrix formation       ....       2.513 sec  ( 59.6%)
  XC integration            ....       0.779 sec  ( 31.0% of F)
    Basis function eval.    ....       0.169 sec  ( 21.7% of XC)
    Density eval.           ....       0.109 sec  ( 14.0% of XC)
    XC-Functional eval.     ....       0.271 sec  ( 34.7% of XC)
    XC-Potential eval.      ....       0.105 sec  ( 13.4% of XC)
Diagonalization             ....       0.002 sec  (  0.1%)
Density matrix formation    ....       0.002 sec  (  0.0%)
Population analysis         ....       0.030 sec  (  0.7%)
Initial guess               ....       0.004 sec  (  0.1%)
Orbital Transformation      ....       0.000 sec  (  0.0%)
Orbital Orthonormalization  ....       0.002 sec  (  0.0%)
DIIS solution               ....       0.000 sec  (  0.0%)
SOSCF solution              ....       0.006 sec  (  0.1%)
Grid generation             ....       1.331 sec  ( 31.5%)


-------------------------------------------------------------------------------
                          DFT DISPERSION CORRECTION                            
                                                                               
                              DFTD3 V3.1  Rev 1                                
                              USING zero damping                               
-------------------------------------------------------------------------------
The omegaB97X-D3 functional is recognized. Fit by Chai et al.
Active option DFTDOPT                   ...         3   

molecular C6(AA) [au] = 208.716772 


            DFT-D V3
 parameters
 s6 scaling factor         :     1.0000 
 rs6 scaling factor        :     1.2810 
 s8 scaling factor         :     1.0000 
 rs8 scaling factor        :     1.0940 
 Damping factor alpha6     :    14.0000 
 Damping factor alpha8     :    16.0000 
 ad hoc parameters k1-k3   :    16.0000     1.3333    -4.0000 

 Edisp/kcal,au: -0.150243537524  -0.000239428292 
 E6   /kcal   :  -0.029625335 
 E8   /kcal   :  -0.120618202 
 % E8         :  80.281790643 

-------------------------   ----------------
Dispersion correction           -0.000239428
-------------------------   ----------------


-------------------------   --------------------
FINAL SINGLE POINT ENERGY      -115.738050846592
-------------------------   --------------------

                                *** OPTIMIZATION RUN DONE ***

                            ***************************************
                            *     ORCA property calculations      *
                            ***************************************

                                    ---------------------
                                    Active property flags
                                    ---------------------
   (+) Dipole Moment


------------------------------------------------------------------------------
                       ORCA ELECTRIC PROPERTIES CALCULATION
------------------------------------------------------------------------------

Dipole Moment Calculation                       ... on
Quadrupole Moment Calculation                   ... off
Polarizability Calculation                      ... off
GBWName                                         ... 0_geo_opt.gbw
Electron density file                           ... 0_geo_opt.scfp.tmp
The origin for moment calculation is the CENTER OF MASS  = ( 7.033765, -2.140779  1.369005)

-------------
DIPOLE MOMENT
-------------
                                X             Y             Z
Electronic contribution:      1.75680      -0.02926       0.41946
Nuclear contribution   :     -2.06625       0.47654      -0.81720
                        -----------------------------------------
Total Dipole Moment    :     -0.30945       0.44728      -0.39774
                        -----------------------------------------
Magnitude (a.u.)       :      0.67381
Magnitude (Debye)      :      1.71268



--------------------
Rotational spectrum 
--------------------
 
Rotational constants in cm-1:     4.290996     0.833757     0.804904 
Rotational constants in MHz : 128640.832212 24995.391278 24130.414058 

 Dipole components along the rotational axes: 
x,y,z [a.u.] :    -0.332589     0.586004     0.000941 
x,y,z [Debye]:    -0.845373     1.489503     0.002391 

 
------------------------------------------------------------------------------
                      ORCA CHELPG CHARGES GENERATION
------------------------------------------------------------------------------

GBW file                           ... 0_geo_opt.gbw

Reading the GBW file               ... done

Grid spacing                       ...     0.300000
Point Cut-Off                      ...     2.800000
Van-der-Waals Radii                ...        COSMO
Total charge                       ...            0


Number of points X direction       ...           26
Number of points Y direction       ...           24
Number of points Z direction       ...           24
Maximum number of possible points  ...        14976
Final number of points             ...         5946


CHELPG Charges            
--------------------------------
  0   C   :       0.094887
  1   O   :      -0.607117
  2   H   :       0.403938
  3   H   :       0.014126
  4   H   :       0.080876
  5   H   :       0.013289
--------------------------------
Total charge:     0.000000
--------------------------------

CHELPG charges calculated...

Timings for individual parts in CHELPG calculation:
Grid generation                 ...        0.002 sec (=   0.000 min)
Potential calculation           ...        0.667 sec (=   0.011 min)
Fit to the potential            ...        0.373 sec (=   0.006 min)
------------------------------------------------------------------------------


Timings for individual modules:

Sum of individual times         ...       31.090 sec (=   0.518 min)
GTO integral calculation        ...        5.952 sec (=   0.099 min)  19.1 %
SCF iterations                  ...       16.966 sec (=   0.283 min)  54.6 %
SCF Gradient evaluation         ...        2.362 sec (=   0.039 min)   7.6 %
Geometry relaxation             ...        3.163 sec (=   0.053 min)  10.2 %
CHELPG charge generation        ...        2.647 sec (=   0.044 min)   8.5 %
                             ****ORCA TERMINATED NORMALLY****
TOTAL RUN TIME: 0 days 0 hours 0 minutes 35 seconds 337 msec
