LAMMPS data file via vdw_self_gen.py, on 2021-08-05 13:24:11.941131

8000 atoms
6 atom types
7500 bonds
6 bond types
13000 angles
9 angle types
16500 dihedrals
9 dihedral types

-44.9724401566092453  44.9724401566092382 xlo xhi
-44.9724401566092453  44.9724401566092382 ylo yhi
-44.9724401566092453  44.9724401566092382 zlo zhi

Masses

1  1.007940
2  1.007940
3  1.007940
4  12.011000
5  12.011000
6  15.999400

Atoms

1         0    6   -0.6441380000000000  -34.9983109666313368  36.0076871763445041  33.4018162788545965 0 0 0
2         0    4    0.2691680000000000  -35.1487013357809914  34.5952198671764464  33.4862983591946062 0 0 0
3         0    5   -0.0368270000000000  -34.3542222198224110  34.0494694541684311  34.6675932644605425 0 0 0
4         0    5   -0.0368270000000000  -34.9898643766822843  34.2944334143136658  36.0457107426722132 0 0 0
5         0    4    0.2691680000000000  -34.9804601939119664  35.7407535566691550  36.5337933185374126 0 0 0
6         0    6   -0.6441380000000000  -35.8554553350387550  36.5604312311234381  35.7791017780351197 0 0 0
7         0    3    0.4025730000000000  -35.5248045642876846  36.2949372145292202  32.6327657399498037 0 0 0
8         0    2   -0.0094320000000000  -34.7711135477781070  34.1618249971408545  32.5548774490374839 0 0 0
9         0    2   -0.0094320000000000  -36.2132568258359981  34.3561431841156804  33.5784286539428649 0 0 0
10        0    1    0.0140440000000000  -33.3404031463980317  34.4648290486745523  34.6621004498224110 0 0 0
11        0    1    0.0140440000000000  -34.2660788561638014  32.9636918694633962  34.5389793787598194 0 0 0
12        0    1    0.0140440000000000  -34.4317314956338691  33.6941434747663990  36.7763293417175277 0 0 0
13        0    1    0.0140440000000000  -36.0177067737686158  33.9147442028340222  36.0355693010691027 0 0 0
14        0    2   -0.0094320000000000  -33.9751518356619187  36.1674883452276461  36.5077838670527584 0 0 0
15        0    2   -0.0094320000000000  -35.3294048552743334  35.7704648999700154  37.5717509272507755 0 0 0
16        0    3    0.4025730000000000  -35.4603667313560464  36.6207711235087245  34.8841342096691065 0 0 0
17        1    6   -0.6441380000000000  -23.5885309180644782  14.1242896047355746 -24.0651795177555776 0 0 0
18        1    4    0.2691680000000000  -24.5776304530164786  13.4991641220298391 -24.8749440670720148 0 0 0
19        1    5   -0.0368270000000000  -25.8857691125853364  14.2793288074199118 -24.8070136378697441 0 0 0
20        1    5   -0.0368270000000000  -25.9069852191115295  15.5827302876011693 -25.6218452372724528 0 0 0
21        1    4    0.2691680000000000  -25.0441329847147394  16.7191529045300165 -25.0794573216354593 0 0 0
22        1    6   -0.6441380000000000  -23.6607644060152218  16.4429088777631591 -25.2099483996542375 0 0 0
23        1    3    0.4025730000000000  -22.7818182902215547  13.5826741538645912 -24.1489307186818003 0 0 0
24        1    2   -0.0094320000000000  -24.7315609016997726  12.4851553254879306 -24.4927920810719542 0 0 0
25        1    2   -0.0094320000000000  -24.2061434733278489  13.4342142785231928 -25.9029046620124426 0 0 0
26        1    1    0.0140440000000000  -26.1344624011744529  14.5050747510093174 -23.7641458156776579 0 0 0
27        1    1    0.0140440000000000  -26.6806294467258738  13.6356101409848698 -25.2033052922015948 0 0 0
28        1    1    0.0140440000000000  -26.9457398033361812  15.9377405791735409 -25.6467544389852833 0 0 0
29        1    1    0.0140440000000000  -25.6181512458544525  15.3605608708127832 -26.6552582358051993 0 0 0
30        1    2   -0.0094320000000000  -25.2716133527798910  16.9324186817601685 -24.0324643145397268 0 0 0
31        1    2   -0.0094320000000000  -25.2450489525232307  17.6280570529391838 -25.6569754260998799 0 0 0
32        1    3    0.4025730000000000  -23.4760426531533248  15.7039337299473463 -24.5931044479693561 0 0 0
33        2    6   -0.6441380000000000   34.0781629312055117  5.8560732030143567  -3.5838625405121256  0 0 0
34        2    4    0.2691680000000000   33.4952443530058801  4.9858499965558503  -4.5470530131761713  0 0 0
35        2    5   -0.0368270000000000   34.2291434989928973  5.1043652811880289  -5.8781594713635252  0 0 0
36        2    5   -0.0368270000000000   35.5952833446590091  4.4014039002451000  -5.9307265341136990  0 0 0
37        2    4    0.2691680000000000   36.7063385017786601  5.0466380596503821  -5.1064788097769203  0 0 0
38        2    6   -0.6441380000000000   36.4817828530148489  4.9088369346551142  -3.7144899740248887  0 0 0
39        2    3    0.4025730000000000   33.5688366738019539  5.7362085609419982  -2.7608400284869994  0 0 0
40        2    2   -0.0094320000000000   32.4487083619220442  5.2799777131109193  -4.6743317176804453  0 0 0
41        2    2   -0.0094320000000000   33.5276048878646193  3.9602515821426292  -4.1649211888841604  0 0 0
42        2    1    0.0140440000000000   34.3592080929158072  6.1596520088856010  -6.1424244920397868  0 0 0
43        2    1    0.0140440000000000   33.5985120326913318  4.6467357388834145  -6.6502364774454339  0 0 0
44        2    1    0.0140440000000000   35.9212289648418022  4.3947868600241016  -6.9792395426941196  0 0 0
45        2    1    0.0140440000000000   35.4691362132964798  3.3562836420849749  -5.6265271149289777  0 0 0
46        2    2   -0.0094320000000000   36.8242331301433197  6.1052253171611843  -5.3492087859614053  0 0 0
47        2    2   -0.0094320000000000   37.6544431576442307  4.5450967203360211  -5.3290882987588164  0 0 0
48        2    3    0.4025730000000000   35.6991660622477411  5.4636192039811498  -3.5134167330134574  0 0 0
49        3    6   -0.6441380000000000   35.8405332234653073 -16.3822356907627125 -5.9278365175121293  0 0 0
50        3    4    0.2691680000000000   35.3570857347195684 -15.1675575068499011 -6.4896672924361285  0 0 0
51        3    5   -0.0368270000000000   34.1279920778431887 -14.6856050625357675 -5.7270737858771721  0 0 0
52        3    5   -0.0368270000000000   34.4218107911710689 -14.0466800625764527 -4.3600692192332513  0 0 0
53        3    4    0.2691680000000000   34.8918569423921312 -15.0031542841088168 -3.2671974641922938  0 0 0
54        3    6   -0.6441380000000000   36.1938854410143449 -15.5000470955286218 -3.5218867475060973  0 0 0
55        3    3    0.4025730000000000   36.6202381750892130 -16.6380155887148504 -6.4548883711439657  0 0 0
56        3    2   -0.0094320000000000   35.0914630474598681 -15.3635187420969732 -7.5332152526149558  0 0 0
57        3    2   -0.0094320000000000   36.1580655501940811 -14.4213852107780074 -6.4655367562380901  0 0 0
58        3    1    0.0140440000000000   33.4222823555780124 -15.5126134170527408 -5.5913761556121475  0 0 0
59        3    1    0.0140440000000000   33.6300104213843554 -13.9249447471115158 -6.3407788469359812  0 0 0
60        3    1    0.0140440000000000   33.4934749342696421 -13.5751669101665762 -4.0114551839512824  0 0 0
61        3    1    0.0140440000000000   35.1587604909895433 -13.2466573245493677 -4.4927172421251012  0 0 0
62        3    2   -0.0094320000000000   34.2036927134317281 -15.8426240079186762 -3.1441342963233616  0 0 0
63        3    2   -0.0094320000000000   34.9354467379252256 -14.4642837616142099 -2.3144542522974159  0 0 0
64        3    3    0.4025730000000000   36.1104344230988943 -16.0785247562174725 -4.3087173388615847  0 0 0
65        4    6   -0.6441380000000000  -15.2935595995650164  26.7971094084278505 -25.3959010068063371 0 0 0
66        4    4    0.2691680000000000  -14.0665094034277107  26.0932405398053220 -25.5499620870421538 0 0 0
67        4    5   -0.0368270000000000  -13.9423292310964975  25.0094008400787047 -24.4848944730869107 0 0 0
68        4    5   -0.0368270000000000  -14.8003525084090306  23.7575913398514409 -24.7298946931493049 0 0 0
69        4    4    0.2691680000000000  -16.3062659522643330  23.9410274320077541 -24.5603927951945629 0 0 0
70        4    6   -0.6441380000000000  -16.8605011227964994  24.7475432212557394 -25.5847965074774031 0 0 0
71        4    3    0.4025730000000000  -15.3139203506884556  27.4719108246854127 -26.0997300433134107 0 0 0
72        4    2   -0.0094320000000000  -13.2505611173826647  26.8144818484985805 -25.4404726718706229 0 0 0
73        4    2   -0.0094320000000000  -14.0254460343206944  25.6671390563972679 -26.5577692950710649 0 0 0
74        4    1    0.0140440000000000  -14.1845951701903132  25.4221255221470130 -23.4993243695597123 0 0 0
75        4    1    0.0140440000000000  -12.8948508330872489  24.6849390511320586 -24.4577411893532108 0 0 0
76        4    1    0.0140440000000000  -14.4766401797039759  22.9918603594917492 -24.0125870494832689 0 0 0
77        4    1    0.0140440000000000  -14.5859778937713624  23.3703928362737514 -25.7323155542780846 0 0 0
78        4    2   -0.0094320000000000  -16.5517191782413668  24.3745899913206010 -23.5881787305361819 0 0 0
79        4    2   -0.0094320000000000  -16.7952588519891322  22.9627898676746760 -24.6231490685575984 0 0 0
80        4    3    0.4025730000000000  -16.5045267416483554  25.6488814752563528 -25.4379140795245782 0 0 0
81        5    6   -0.6441380000000000   25.7310052927165671 -3.4764501513886872  -15.8134601560690644 0 0 0
82        5    4    0.2691680000000000   24.3992344705341786 -3.9512625079485151  -15.9739534199206368 0 0 0
83        5    5   -0.0368270000000000   24.3618158518603920 -5.4703578206087728  -15.8496654067005807 0 0 0
84        5    5   -0.0368270000000000   24.4807552682957947 -6.0070502074808374  -14.4140224238557639 0 0 0
85        5    4    0.2691680000000000   25.8505268882709274 -5.8520104154840213  -13.7583980148316201 0 0 0
86        5    6   -0.6441380000000000   26.1516418022846153 -4.4971960699756419  -13.4740475162155295 0 0 0
87        5    3    0.4025730000000000   25.6899224307461580 -2.5062136864182376  -15.9034614043602076 0 0 0
88        5    2   -0.0094320000000000   24.0549323630949559 -3.6530856223628074  -16.9691896565073748 0 0 0
89        5    2   -0.0094320000000000   23.7593872695899222 -3.4749099099621787  -15.2238815534735217 0 0 0
90        5    1    0.0140440000000000   25.1505538087137488 -5.9168769773879433  -16.4652106572289405 0 0 0
91        5    1    0.0140440000000000   23.3991714781153455 -5.8152837932597006  -16.2466107816425520 0 0 0
92        5    1    0.0140440000000000   24.2466820564510215 -7.0794267535298285  -14.4437232097156194 0 0 0
93        5    1    0.0140440000000000   23.7168644367717114 -5.5282389991267387  -13.7911762440746326 0 0 0
94        5    2   -0.0094320000000000   26.6437873100281131 -6.2745916262743240  -14.3793545270453347 0 0 0
95        5    2   -0.0094320000000000   25.8526984792434646 -6.3878703453119901  -12.8029658833343554 0 0 0
96        5    3    0.4025730000000000   26.2660444075873336 -4.0601798363406907  -14.3438933136069213 0 0 0
97        6    6   -0.6441380000000000   33.4934827060748503 -14.1884790845175353 -35.8130763796636487 0 0 0
98        6    4    0.2691680000000000   33.8914702977191027 -14.0162392656296202 -34.4578060353460813 0 0 0
99        6    5   -0.0368270000000000   34.5560373113430401 -15.2858734931835087 -33.9373467719770758 0 0 0
100       6    5   -0.0368270000000000   35.9944080545325775 -15.5139546205841867 -34.4296116209760754 0 0 0
101       6    4    0.2691680000000000   36.1415059013145807 -15.8797818116045573 -35.9042938523338080 0 0 0
102       6    6   -0.6441380000000000   35.8264112838509021 -14.7911200313518769 -36.7543398620076829 0 0 0
103       6    3    0.4025730000000000   33.0776753030617314 -13.3497214723294775 -36.0864565102439059 0 0 0
104       6    2   -0.0094320000000000   32.9937514917214543 -13.8010531403142149 -33.8698056614262057 0 0 0
105       6    2   -0.0094320000000000   34.5679459487953196 -13.1577269904874843 -34.3925265597716248 0 0 0
106       6    1    0.0140440000000000   33.9472914378134618 -16.1601434091734966 -34.1932050391008318 0 0 0
107       6    1    0.0140440000000000   34.5939376957987363 -15.2196776471732456 -32.8430865568412500 0 0 0
108       6    1    0.0140440000000000   36.4167548800044614 -16.3381186545913302 -33.8396619063707789 0 0 0
109       6    1    0.0140440000000000   36.5911850873148126 -14.6217877211355809 -34.2091073442105085 0 0 0
110       6    2   -0.0094320000000000   35.5181142592170076 -16.7365586768668528 -36.1702642082274934 0 0 0
111       6    2   -0.0094320000000000   37.1841247164380064 -16.1503652363473407 -36.1036221110054925 0 0 0
112       6    3    0.4025730000000000   34.8629366850261135 -14.6424129132923220 -36.6528226405236879 0 0 0
113       7    6   -0.6441380000000000   13.5923798224315071 -3.7878367346650075  -5.3548157405567238  0 0 0
114       7    4    0.2691680000000000   13.4592142790611113 -5.0795872367650015  -4.7730374641633260  0 0 0
115       7    5   -0.0368270000000000   14.5330685403601230 -6.0161133148399335  -5.3154894553805629  0 0 0
116       7    5   -0.0368270000000000   15.9394633451509069 -5.7959801388021761  -4.7351006934588549  0 0 0
117       7    4    0.2691680000000000   16.6450767279709382 -4.5147489404624563  -5.1718058160372546  0 0 0
118       7    6   -0.6441380000000000   16.0359037648678715 -3.3602420231157684  -4.6212884347286627  0 0 0
119       7    3    0.4025730000000000   12.8828620262877074 -3.2391267095092071  -4.9718684472528354  0 0 0
120       7    2   -0.0094320000000000   12.4678659414528266 -5.4636031497702016  -5.0332466395974169  0 0 0
121       7    2   -0.0094320000000000   13.5251101296975680 -4.9872719826897427  -3.6839737958069199  0 0 0
122       7    1    0.0140440000000000   14.5805721977077969 -5.9402379498100588  -6.4074460520089165  0 0 0
123       7    1    0.0140440000000000   14.2372207031481768 -7.0432658194798172  -5.0692060068318741  0 0 0
124       7    1    0.0140440000000000   16.5622812172589811 -6.6425582669961258  -5.0530114242409017  0 0 0
125       7    1    0.0140440000000000   15.8821829562329242 -5.8316703292192082  -3.6414042516828866  0 0 0
126       7    2   -0.0094320000000000   16.6741641475641345 -4.4224698013990746  -6.2599521522508814  0 0 0
127       7    2   -0.0094320000000000   17.6789671265006803 -4.5345422108577234  -4.8103089164999782  0 0 0
128       7    3    0.4025730000000000   15.1566812428893360 -3.2917501144794330  -5.0490494323629207  0 0 0
129       8    6   -0.6441380000000000   14.2388895135270594 -23.2588916360664371 -5.0399780238990450  0 0 0
130       8    4    0.2691680000000000   15.6227854174276324 -23.5760504874764614 -5.1351661252535932  0 0 0
131       8    5   -0.0368270000000000   15.9322392127641379 -24.8350155023181074 -4.3328297418353836  0 0 0
132       8    5   -0.0368270000000000   15.4885275627870378 -26.1505486221730514 -4.9929423529399646  0 0 0
133       8    4    0.2691680000000000   13.9821677557711030 -26.3917666938017135 -5.0463180723884253  0 0 0
134       8    6   -0.6441380000000000   13.3354104967476772 -25.5076497604704251 -5.9446997309263647  0 0 0
135       8    3    0.4025730000000000   14.1048549675891302 -22.4505330370888458 -5.5688806048666599  0 0 0
136       8    2   -0.0094320000000000   16.1887061418731193 -22.7311682630786365 -4.7303744214852275  0 0 0
137       8    2   -0.0094320000000000   15.8866772284436895 -23.7019480140339489 -6.1903604049411616  0 0 0
138       8    1    0.0140440000000000   15.4823723216495317 -24.7650632050341670 -3.3362810306408046  0 0 0
139       8    1    0.0140440000000000   17.0197852101551952 -24.8888399741957329 -4.2002764416659932  0 0 0
140       8    1    0.0140440000000000   15.9360808251749582 -26.9731199217789808 -4.4195869691765282  0 0 0
141       8    1    0.0140440000000000   15.9064125895416666 -26.1991003772672748 -6.0047435047932165  0 0 0
142       8    2   -0.0094320000000000   13.5248409672364254 -26.2996569770146706 -4.0584962387250982  0 0 0
143       8    2   -0.0094320000000000   13.7951786708588635 -27.4088530211826296 -5.4076650287592694  0 0 0
144       8    3    0.4025730000000000   13.4080852870353855 -24.6168181213232842 -5.5424060305642353  0 0 0
145       9    6   -0.6441380000000000  -25.6181962691947014 -15.8139416122326608 -13.4202253235378066 0 0 0
146       9    4    0.2691680000000000  -24.5964901472103250 -14.8266681608837914 -13.4991310714991286 0 0 0
147       9    5   -0.0368270000000000  -23.8368507404584236 -14.9570827117926335 -14.8145923019505883 0 0 0
148       9    5   -0.0368270000000000  -24.5804368773858108 -14.4219365320306849 -16.0490777414579107 0 0 0
149       9    4    0.2691680000000000  -25.7838968596470899 -15.2419579348034571 -16.5066845200246597 0 0 0
150       9    6   -0.6441380000000000  -26.8618615797844100 -15.1572252918851316 -15.5913377280035483 0 0 0
151       9    3    0.4025730000000000  -26.0642178119875929 -15.6804429088962838 -12.5632599194682140 0 0 0
152       9    2   -0.0094320000000000  -23.9121884790310979 -14.9849196694840856 -12.6597049283198295 0 0 0
153       9    2   -0.0094320000000000  -25.0514566459139907 -13.8357500445553363 -13.3990770121642377 0 0 0
154       9    1    0.0140440000000000  -23.5628018166040718 -16.0036674226546438 -14.9876255580725015 0 0 0
155       9    1    0.0140440000000000  -22.9062294513140436 -14.3838158210978779 -14.7222189517654538 0 0 0
156       9    1    0.0140440000000000  -23.8622360869993067 -14.3952133500157462 -16.8792207158491721 0 0 0
157       9    1    0.0140440000000000  -24.8892175772518129 -13.3881628418201277 -15.8575231116033297 0 0 0
158       9    2   -0.0094320000000000  -25.5214013020899202 -16.2915684965482761 -16.6578060520328002 0 0 0
159       9    2   -0.0094320000000000  -26.1437935268118125 -14.8464541697750221 -17.4627453438805702 0 0 0
160       9    3    0.4025730000000000  -26.5637484426199784 -15.6242072001068841 -14.7827838889528937 0 0 0
161       10   6   -0.6441380000000000   13.2549201514177000  34.3250974922657406  15.3152727692795718 0 0 0
162       10   4    0.2691680000000000   13.7474255029720851  34.8261297990807037  14.0778466136169538 0 0 0
163       10   5   -0.0368270000000000   14.7913773531170651  35.9094606147167354  14.3249439844492557 0 0 0
164       10   5   -0.0368270000000000   16.1685929792970384  35.3934164699494289  14.7724164827740871 0 0 0
165       10   4    0.2691680000000000   16.2353151549859547  34.8175324814758937  16.1845286514034505 0 0 0
166       10   6   -0.6441380000000000   15.5356415989646468  33.5901777340925420  16.2899067676328038 0 0 0
167       10   3    0.4025730000000000   12.5957336993409577  33.6416953605871356  15.0926035706560846 0 0 0
168       10   2   -0.0094320000000000   12.9010260532273247  35.2471746431318778  13.5262328232983080 0 0 0
169       10   2   -0.0094320000000000   14.1652244480773799  33.9956668793355377  13.4993144853844420 0 0 0
170       10   1    0.0140440000000000   14.4200511775117963  36.6266950479954616  15.0652645342313836 0 0 0
171       10   1    0.0140440000000000   14.9385167741330047  36.4536738487239091  13.3839839989479845 0 0 0
172       10   1    0.0140440000000000   16.8673737115934337  36.2391037991514011  14.7257014841277769 0 0 0
173       10   1    0.0140440000000000   16.5194149323669564  34.6461337395646893  14.0518478063018488 0 0 0
174       10   2   -0.0094320000000000   15.8440194475738352  35.5198152156531535  16.9241978998769618 0 0 0
175       10   2   -0.0094320000000000   17.2810646671464028  34.6128146520618145  16.4384965750397889 0 0 0
176       10   3    0.4025730000000000   14.5873165168570136  33.8124452822401054  16.1804557215618843 0 0 0
177       11   6   -0.6441380000000000  -36.2341576746993397  25.5729584476615877 -16.2648005924371510 0 0 0
178       11   4    0.2691680000000000  -35.7766145522313010  24.2370298115214631 -16.0893943362118286 0 0 0
179       11   5   -0.0368270000000000  -34.3332331650637741  24.2335661039393884 -15.5983379177545167 0 0 0
180       11   5   -0.0368270000000000  -34.1519244854826880  24.5908243343086959 -14.1141715535480170 0 0 0
181       11   4    0.2691680000000000  -34.4163299219000223  26.0481464385433945 -13.7447706285330931 0 0 0
182       11   6   -0.6441380000000000  -35.7897408756117628  26.3801231037133874 -13.8476353664524794 0 0 0
183       11   3    0.4025730000000000  -37.1555284389856695  25.5093294940545618 -16.5781280492316476 0 0 0
184       11   2   -0.0094320000000000  -35.8387930795406575  23.7317040908198642 -17.0582742615065257 0 0 0
185       11   2   -0.0094320000000000  -36.4382561861175702  23.7247020150656702 -15.3832253618954411 0 0 0
186       11   1    0.0140440000000000  -33.7280557145266187  24.9145585176073396 -16.2069366881180947 0 0 0
187       11   1    0.0140440000000000  -33.9336683190666548  23.2218836889783802 -15.7400078605863385 0 0 0
188       11   1    0.0140440000000000  -33.1114083264262078  24.3642879781323565 -13.8464566608493236 0 0 0
189       11   1    0.0140440000000000  -34.7894100095302008  23.9352607926024525 -13.5103707678451119 0 0 0
190       11   2   -0.0094320000000000  -33.8329488187441143  26.7325069916588589 -14.3650456387665368 0 0 0
191       11   2   -0.0094320000000000  -34.1246601596871457  26.2115032439386404 -12.7015810762264554 0 0 0
192       11   3    0.4025730000000000  -36.0023033324124526  26.3466385617582119 -14.8038774086201013 0 0 0
193       12   6   -0.6441380000000000   23.1781435635795958 -15.4887690956143089  14.8062809689035895 0 0 0
194       12   4    0.2691680000000000   23.7725161293523115 -14.2873881423910660  14.3285535960336912 0 0 0
195       12   5   -0.0368270000000000   24.9114792486280123 -13.8601487818106364  15.2476443281709386 0 0 0
196       12   5   -0.0368270000000000   26.2073770727696314 -14.6731105844386942  15.0959933672351614 0 0 0
197       12   4    0.2691680000000000   26.1534620407187326 -16.1103215311917083  15.6075330602720008 0 0 0
198       12   6   -0.6441380000000000   25.3265714686790702 -16.9295767883825299  14.7999935171305328 0 0 0
199       12   3    0.4025730000000000   22.4618899663046960 -15.7085747814461723  14.1819308515281222 0 0 0
200       12   2   -0.0094320000000000   22.9987183285046655 -13.5134486676507795  14.3142982201325371 0 0 0
201       12   2   -0.0094320000000000   24.1264965276597465 -14.4486954549366278  13.3050293552199062 0 0 0
202       12   1    0.0140440000000000   24.5850121821306331 -13.8986705593130164  16.2927846080141094 0 0 0
203       12   1    0.0140440000000000   25.1544164252236264 -12.8157028622001157  15.0166941239348386 0 0 0
204       12   1    0.0140440000000000   26.9913380206584819 -14.1497507989018381  15.6591661904146946 0 0 0
205       12   1    0.0140440000000000   26.5095099846246072 -14.6670695411499423  14.0427099539175355 0 0 0
206       12   2   -0.0094320000000000   25.8056308260587031 -16.1562290517684062  16.6421005603234171 0 0 0
207       12   2   -0.0094320000000000   27.1605251323583303 -16.5400997947031243  15.5741307883375448 0 0 0
208       12   3    0.4025730000000000   24.4119366970534024 -16.6054577326836963  14.9381706790139557 0 0 0
209       13   6   -0.6441380000000000  -13.8577181521705590 -24.0322309689420166  26.1485349132321119 0 0 0
210       13   4    0.2691680000000000  -13.9529234759364247 -25.4477551325682150  26.0387821318687713 0 0 0
211       13   5   -0.0368270000000000  -15.3718027694564601 -25.8532802521514107  25.6555991990454189 0 0 0
212       13   5   -0.0368270000000000  -15.7375078867691514 -25.6196846860176350  24.1808283843918517 0 0 0
213       13   4    0.2691680000000000  -15.8956728730704793 -24.1612570907295634  23.7587765154106521 0 0 0
214       13   6   -0.6441380000000000  -14.6567955811221253 -23.4740968847027816  23.7523566207107528 0 0 0
215       13   3    0.4025730000000000  -12.9344446766399486 -23.8368113645929718  26.3945513594662984 0 0 0
216       13   2   -0.0094320000000000  -13.6956739242406194 -25.8772740894899442  27.0120676484039670 0 0 0
217       13   2   -0.0094320000000000  -13.2258173191100781 -25.7963866075521508  25.2980414388082764 0 0 0
218       13   1    0.0140440000000000  -16.0958935138391475 -25.3313379583535792  26.2909351048813740 0 0 0
219       13   1    0.0140440000000000  -15.4771610093933774 -26.9276649382341766  25.8500752520397299 0 0 0
220       13   1    0.0140440000000000  -16.6950471781567593 -26.1242440231233211  23.9958899014080167 0 0 0
221       13   1    0.0140440000000000  -14.9888169579660335 -26.1083849799575596  23.5472980731746482 0 0 0
222       13   2   -0.0094320000000000  -16.5989453086247920 -23.6298160674529782  24.4040689194169680 0 0 0
223       13   2   -0.0094320000000000  -16.2872561623857024 -24.1250201657789844  22.7363526547250885 0 0 0
224       13   3    0.4025730000000000  -14.3815373797009673 -23.4097784046570858  24.6908654973203454 0 0 0
225       14   6   -0.6441380000000000  -26.6119428915855352 -15.9075397563149643 -24.7453651707102615 0 0 0
226       14   4    0.2691680000000000  -26.4272041029022127 -14.4972006241805644 -24.7049486292178599 0 0 0
227       14   5   -0.0368270000000000  -25.0384712493063795 -14.1617476078532150 -24.1726042224843667 0 0 0
228       14   5   -0.0368270000000000  -23.8906633963729504 -14.3784576392177321 -25.1720190373387069 0 0 0
229       14   4    0.2691680000000000  -23.5614653247844252 -15.8324420170454214 -25.5002157045908220 0 0 0
230       14   6   -0.6441380000000000  -24.5859442415456151 -16.4492964094257204 -26.2598083032994758 0 0 0
231       14   3    0.4025730000000000  -27.5115627544538910 -16.0574073200470089 -25.0908657349265205 0 0 0
232       14   2   -0.0094320000000000  -27.1891682797373164 -14.0784530953543623 -24.0401105562843398 0 0 0
233       14   2   -0.0094320000000000  -26.5767498692740283 -14.0903228883200331 -25.7104388652824767 0 0 0
234       14   1    0.0140440000000000  -24.8354026300827044 -14.7388177354755250 -23.2636839393502690 0 0 0
235       14   1    0.0140440000000000  -25.0329014283273636 -13.1000660903837822 -23.8968777635471099 0 0 0
236       14   1    0.0140440000000000  -22.9892073717418732 -13.9234528070246810 -24.7407285319513512 0 0 0
237       14   1    0.0140440000000000  -24.1158016210188642 -13.8332452629689104 -26.0954815346759901 0 0 0
238       14   2   -0.0094320000000000  -23.3814025552489220 -16.4180842562287204 -24.5957686175749011 0 0 0
239       14   2   -0.0094320000000000  -22.6496324715634181 -15.8648802521268326 -26.1064415262048612 0 0 0
240       14   3    0.4025730000000000  -25.3575034263589139 -16.5216004066151854 -25.6596654768650829 0 0 0
241       15   6   -0.6441380000000000  -5.3624237216780566   26.8317830401935922  34.9953569425595319 0 0 0
242       15   4    0.2691680000000000  -6.3136176474270069   25.7876643773691541  34.8225428283789711 0 0 0
243       15   5   -0.0368270000000000  -5.6712143558100205   24.6002580306905294  34.1141062320720323 0 0 0
244       15   5   -0.0368270000000000  -4.7478827133258044   23.7418276083153508  34.9937720578423423 0 0 0
245       15   4    0.2691680000000000  -3.4257199608161826   24.3888523933972756  35.3979991933315929 0 0 0
246       15   6   -0.6441380000000000  -3.6147330392407220   25.4534063245087694  36.3134478768958644 0 0 0
247       15   3    0.4025730000000000  -5.8297717367468769   27.5573415218023534  35.4495568399360366 0 0 0
248       15   2   -0.0094320000000000  -7.1353083105695827   26.1801857705646945  34.2153361313736184 0 0 0
249       15   2   -0.0094320000000000  -6.7077813005321643   25.5002902259798496  35.8028362307254682 0 0 0
250       15   1    0.0140440000000000  -5.1118373537258561   24.9441871352294839  33.2370697345473403 0 0 0
251       15   1    0.0140440000000000  -6.4770610444627632   23.9479594451779221  33.7558585282054509 0 0 0
252       15   1    0.0140440000000000  -4.5120681424164975   22.8295067775069072  34.4301001217662019 0 0 0
253       15   1    0.0140440000000000  -5.2972533052839204   23.4330720861317339  35.8902031592733053 0 0 0
254       15   2   -0.0094320000000000  -2.8747479457877070   24.7549911826975020  34.5286337971228221 0 0 0
255       15   2   -0.0094320000000000  -2.8005610772874494   23.6422366600798846  35.8997386229243034 0 0 0
256       15   3    0.4025730000000000  -4.0690230677503569   26.1614610346592826  35.8104747630712907 0 0 0
257       16   6   -0.6441380000000000  -25.7964028403132311  16.4974119586583008  25.7701186484418088 0 0 0
258       16   4    0.2691680000000000  -25.8857697207878168  16.1103255842179109  24.4037379972699497 0 0 0
259       16   5   -0.0368270000000000  -24.6043312011620330  15.4077621468299313  23.9692058706500113 0 0 0
260       16   5   -0.0368270000000000  -24.4565877554639570  13.9609834635927186  24.4674622234280221 0 0 0
261       16   4    0.2691680000000000  -24.1996944382863290  13.7966520657758380  25.9631747656569765 0 0 0
262       16   6   -0.6441380000000000  -25.3347494023924966  14.1429012050492346  26.7370023112447441 0 0 0
263       16   3    0.4025730000000000  -26.6387568797441077  16.9386043865662721  25.9867652224076942 0 0 0
264       16   2   -0.0094320000000000  -26.0309460296550199  17.0166886569555196  23.8076017858036906 0 0 0
265       16   2   -0.0094320000000000  -26.7584412737552988  15.4617278215391849  24.2745507460046959 0 0 0
266       16   1    0.0140440000000000  -23.7314181791342165  15.9874294884234480  24.2891925992250997 0 0 0
267       16   1    0.0140440000000000  -24.5949214470102220  15.3762027341380616  22.8727847801937187 0 0 0
268       16   1    0.0140440000000000  -23.6068289484046083  13.5149389923402499  23.9339660555034968 0 0 0
269       16   1    0.0140440000000000  -25.3494437234670649  13.3937112324258010  24.1815650818750534 0 0 0
270       16   2   -0.0094320000000000  -23.3444704795998952  14.3914745411475273  26.2921157478732539 0 0 0
271       16   2   -0.0094320000000000  -23.9766298496477184  12.7452012072002354  26.1745853126883254 0 0 0