LAMMPS data file via vdw_self_gen.py, on 2021-08-05 13:24:59.107238

4500 atoms
3 atom types
4000 bonds
2 bond types
6500 angles
3 angle types
3000 dihedrals
1 dihedral types

-36.3166926048030660  36.3166926048030660 xlo xhi
-36.3166926048030660  36.3166926048030660 ylo yhi
-36.3166926048030660  36.3166926048030660 zlo zhi

Masses

1  1.007940
2  12.011000
3  15.999400

Atoms

1         0    2    0.0494508888888889  -12.9941840131923545  19.4521575596962712  28.5075709754506654 0 0 0
2         0    3   -0.2904931111111111  -12.2748387702626047  20.0418497816691961  27.4330114956083584 0 0 0
3         0    2    0.0494508888888889  -11.2336767804086062  20.8864713143524980  27.9046735086123441 0 0 0
4         0    1    0.0319318888888889  -13.7786627618870021  18.8160461285990444  28.0891295350149406 0 0 0
5         0    1    0.0319318888888889  -13.4624377365894308  20.2250954115846824  29.1246117475580704 0 0 0
6         0    1    0.0319318888888889  -12.3303003438867034  18.8329176259376005  29.1185094778940936 0 0 0
7         0    1    0.0319318888888889  -10.7161859876825893  21.3110876355117931  27.0403609319660561 0 0 0
8         0    1    0.0319318888888889  -10.5138270138985952  20.3128298905085884  28.4964391459264910 0 0 0
9         0    1    0.0319318888888889  -11.6459644066013226  21.7050076761556738  28.5025414155904642 0 0 0
10        1    2    0.0494508888888889   3.4084425066128912  -19.9791587194128262 -5.0099842463545405  0 0 0
11        1    3   -0.2904931111111111   4.1924810231492176  -20.9489019313811866 -4.3282553571846591  0 0 0
12        1    2    0.0494508888888889   4.6774827027896348  -20.4491220592402492 -3.0893597492948093  0 0 0
13        1    1    0.0319318888888889   3.0632311207022012  -20.4149395898149386 -5.9512929263470298  0 0 0
14        1    1    0.0319318888888889   4.0075896276254488  -19.0913918888270651 -5.2343200854308565  0 0 0
15        1    1    0.0319318888888889   2.5351643801756412  -19.7031363247265894 -4.4111166255751924  0 0 0
16        1    1    0.0319318888888889   5.2707737250264932  -21.2324657674184607 -2.6102873448602057  0 0 0
17        1    1    0.0319318888888889   3.8445511356358653  -20.1880455895467783 -2.4294364049500561  0 0 0
18        1    1    0.0319318888888889   5.3169763830856773  -19.5763011536472575 -3.2526398648057198  0 0 0
19        2    2    0.0494508888888889   12.3794867986182382 -21.3136629449908277  3.9242183908226891  0 0 0
20        2    3   -0.2904931111111111   11.5051568742826653 -20.2949315631703620  3.4577356730232927  0 0 0
21        2    2    0.0494508888888889   11.7722948875892541 -19.0499790760459433  4.0890830130425027  0 0 0
22        2    1    0.0319318888888889   12.1305236174204385 -22.2445475675774347  3.4078763986898921  0 0 0
23        2    1    0.0319318888888889   12.2510301288996235 -21.4652507191744490  5.0003010166107176  0 0 0
24        2    1    0.0319318888888889   13.4196335332099057 -21.0571792600610301  3.7011570414518991  0 0 0
25        2    1    0.0319318888888889   11.0742897277859917 -18.3067768668653628  3.6946578058648578  0 0 0
26        2    1    0.0319318888888889   12.7931328254566878 -18.7215317835082580  3.8712596450691996  0 0 0
27        2    1    0.0319318888888889   11.6245294211464003 -19.1296032426216733  5.1704036202280168  0 0 0
28        3    2    0.0494508888888889   20.0294438789665215 -20.9182106601579747 -27.3466864646833052 0 0 0
29        3    3   -0.2904931111111111   20.4291280147366940 -20.8324322115171796 -28.7078503858413789 0 0 0
30        3    2    0.0494508888888889   20.3474603040068374 -19.4985587929766453 -29.1915661757791618 0 0 0
31        3    1    0.0319318888888889   20.1115127146868637 -21.9608711805841210 -27.0284701163474850 0 0 0
32        3    1    0.0319318888888889   18.9892648028999282 -20.5982701860472517 -27.2322339874752828 0 0 0
33        3    1    0.0319318888888889   20.6832061896879189 -20.3075380659815323 -26.7165124414944479 0 0 0
34        3    1    0.0319318888888889   20.6647222336148779 -19.4913314130038806 -30.2377136815832515 0 0 0
35        3    1    0.0319318888888889   21.0113331361018503 -18.8427591968405217 -28.6200467172181732 0 0 0
36        3    1    0.0319318888888889   19.3173917493138596 -19.1334913169062375 -29.1357682631990116 0 0 0
37        4    2    0.0494508888888889  -11.1552021729126203 -11.4357228391104169 -3.8623148282041804  0 0 0
38        4    3   -0.2904931111111111  -12.5764027336213822 -11.4289133172660939 -3.8662093825233859  0 0 0
39        4    2    0.0494508888888889  -13.1024650089891566 -12.7085240303606906 -4.1913613200363278  0 0 0
40        4    1    0.0319318888888889  -10.8064642823322288 -10.4314658785121850 -3.6073878979603591  0 0 0
41        4    1    0.0319318888888889  -10.7709120136026506 -11.6987139643423248 -4.8525625387830900  0 0 0
42        4    1    0.0319318888888889  -10.7777832670529214 -12.1379758569508809 -3.1127541941433812  0 0 0
43        4    1    0.0319318888888889  -14.1938092831207641 -12.6455533508237092 -4.1797708179414679  0 0 0
44        4    1    0.0319318888888889  -12.7869551531138814 -13.4512352348257327 -3.4522616402855837  0 0 0
45        4    1    0.0319318888888889  -12.7800838996636141 -13.0119733422171784 -5.1920699849252934  0 0 0
46        5    2    0.0494508888888889   3.8922047697061406   27.5310571888003857 -21.0977432053598477 0 0 0
47        5    3   -0.2904931111111111   3.9349923900005681   27.5755132579918261 -19.6778610101191376 0 0 0
48        5    2    0.0494508888888889   4.1682700251370095   28.8952723980088564 -19.2049062190590831 0 0 0
49        5    1    0.0319318888888889   3.7111114610964360   26.4976095978656865 -21.4048737791685362 0 0 0
50        5    1    0.0319318888888889   4.8468399963553903   27.8594142725277969 -21.5199836539272020 0 0 0
51        5    1    0.0319318888888889   3.0777087532375589   28.1563464129434955 -21.4759694617558239 0 0 0
52        5    1    0.0319318888888889   4.1913316088174177   28.8707150019279375 -18.1122044900607797 0 0 0
53        5    1    0.0319318888888889   3.3625511786673576   29.5639261219856024 -19.5229535061967781 0 0 0
54        5    1    0.0319318888888889   5.1316824217851904   29.2669939815699038 -19.5669676983681526 0 0 0
55        6    2    0.0494508888888889  -3.9604544679877041   29.4066217370446950 -11.9327429917109118 0 0 0
56        6    3   -0.2904931111111111  -4.8720794867282455   28.3243901741292845 -12.0653598848126862 0 0 0
57        6    2    0.0494508888888889  -4.1926414551552211   27.0937280238582154 -12.2744137301309806 0 0 0
58        6    1    0.0319318888888889  -4.5345747537044820   30.3234348232561324 -11.7747000814620062 0 0 0
59        6    1    0.0319318888888889  -3.3649229144548545   29.5193616712480136 -12.8438223860463214 0 0 0
60        6    1    0.0319318888888889  -3.3047348227618434   29.2513663072773582 -11.0705521925877548 0 0 0
61        6    1    0.0319318888888889  -4.9384773330054408   26.3000618826074017 -12.3690439073655210 0 0 0
62        6    1    0.0319318888888889  -3.5443096396561335   26.8649441251148637 -11.4230862234172292 0 0 0
63        6    1    0.0319318888888889  -3.6044977313491469   27.1329394890855191 -13.1963564168757959 0 0 0
64        7    2    0.0494508888888889  -11.4742584496301596  29.1259924701205684  12.5631489219374348 0 0 0
65        7    3   -0.2904931111111111  -12.0683707550809842  27.8687093985170087  12.8566492068964244 0 0 0
66        7    2    0.0494508888888889  -12.7331957308609738  27.3293178460878430  11.7222183443723154 0 0 0
67        7    1    0.0319318888888889  -10.9794100230963902  29.4925710578391822  13.4664113825673883 0 0 0
68        7    1    0.0319318888888889  -12.2383820500648977  29.8500787993174725  12.2644050551739401 0 0 0
69        7    1    0.0319318888888889  -10.7253895995809607  29.0202558403835553  11.7722881969941326 0 0 0
70        7    1    0.0319318888888889  -13.1693771038416365  26.3671779935246775  12.0035805395486417 0 0 0
71        7    1    0.0319318888888889  -12.0243508258846337  27.1664609344486294  10.9046296543695593 0 0 0
72        7    1    0.0319318888888889  -13.5373432763685706  27.9962838933825466  11.3967465125493685 0 0 0
73        8    2    0.0494508888888889  -11.6046257924877168 -11.3943324175677567  3.2446372131163574  0 0 0
74        8    3   -0.2904931111111111  -11.4130584191441891 -12.5823763179354877  4.0007629983989865  0 0 0
75        8    2    0.0494508888888889  -12.5380535459317866 -12.8639239753909447  4.8223381674404484  0 0 0
76        8    1    0.0319318888888889  -10.7133559521890049 -11.2269333549763228  2.6341017721979645  0 0 0
77        8    1    0.0319318888888889  -11.7400820420331939 -10.5354007385391544  3.9089577396848054  0 0 0
78        8    1    0.0319318888888889  -12.4687682316223825 -11.4978644199690834  2.5813239801222014  0 0 0
79        8    1    0.0319318888888889  -12.3370904822468432 -13.7833531036510077  5.3785718377996847  0 0 0
80        8    1    0.0319318888888889  -13.4318647691716446 -13.0141785839046911  4.2091825682400081  0 0 0
81        8    1    0.0319318888888889  -12.7031785795824543 -12.0517149024747638  5.5368163278026117  0 0 0
82        9    2    0.0494508888888889   27.2180215222532667  12.6131100283384470  19.9175465926381179 0 0 0
83        9    3   -0.2904931111111111   27.9498479027535218  11.3979154143684820  19.8303412609074208 0 0 0
84        9    2    0.0494508888888889   29.2453091458594514  11.5280736498487002  20.4001727083084248 0 0 0
85        9    1    0.0319318888888889   26.2345917667705528  12.4562717852403484  19.4665415144703502 0 0 0
86        9    1    0.0319318888888889   27.7312790417722397  13.4092613580662849  19.3696929939186937 0 0 0
87        9    1    0.0319318888888889   27.0809558270336197  12.9032269227653806  20.9637256683522253 0 0 0
88        9    1    0.0319318888888889   29.7611371120208368  10.5688017979411111  20.3060929848628291 0 0 0
89        9    1    0.0319318888888889   29.1726913502096892  11.7836912112697760  21.4616909874954160 0 0 0
90        9    1    0.0319318888888889   29.8230145649483092  12.2897256465706768  19.8676583130618845 0 0 0
91        10   2    0.0494508888888889  -4.4748676088707020  -28.5247063969172530 -13.1595763185563328 0 0 0
92        10   3   -0.2904931111111111  -3.2887234600530468  -28.1382851883060638 -12.4786847863273849 0 0 0
93        10   2    0.0494508888888889  -3.5217270757081227  -27.9572463983467578 -11.0884318781406268 0 0 0
94        10   1    0.0319318888888889  -4.2386474688695124  -28.6493406515918032 -14.2196726571121932 0 0 0
95        10   1    0.0319318888888889  -5.2423741914741182  -27.7510183786504214 -13.0607113457360011 0 0 0
96        10   1    0.0319318888888889  -4.8471285317101263  -29.4770056825273450 -12.7697130711820126 0 0 0
97        10   1    0.0319318888888889  -2.5806158425545016  -27.6622263621858977 -10.6168337483778785 0 0 0
98        10   1    0.0319318888888889  -3.8636813828994749  -28.8915032394864362 -10.6327278672113934 0 0 0
99        10   1    0.0319318888888889  -4.2589270426634647  -27.1655159356095162 -10.9237261417653819 0 0 0
100       11   2    0.0494508888888889  -20.0367555765626761 -27.1064146104182839 -12.3565860046016809 0 0 0
101       11   3   -0.2904931111111111  -20.5690605390042194 -28.3304086721772848 -12.8448098616987973 0 0 0
102       11   2    0.0494508888888889  -20.3539799088809161 -29.3945309963984158 -11.9276114759937304 0 0 0
103       11   1    0.0319318888888889  -20.2294689329582056 -26.3266492291081136 -13.0981825332997204 0 0 0
104       11   1    0.0319318888888889  -18.9555924795357740 -27.1905032153580173 -12.2101303766917795 0 0 0
105       11   1    0.0319318888888889  -20.5235453029032229 -26.8246004066482620 -11.4179369793623398 0 0 0
106       11   1    0.0319318888888889  -20.7813008289544037 -30.3069196260091331 -12.3519648555309232 0 0 0
107       11   1    0.0319318888888889  -20.8508561392916896 -29.1854593343971089 -10.9753311649503971 0 0 0
108       11   1    0.0319318888888889  -19.2829033159242442 -29.5513621431068678 -11.7675245622798350 0 0 0
109       12   2    0.0494508888888889   11.0538879310874982 -11.9836681702369887  28.7570795982938598 0 0 0
110       12   3   -0.2904931111111111   12.0449248727264990 -12.9329161285445071  28.3874221016083510 0 0 0
111       12   2    0.0494508888888889   13.1512462212267032 -12.3092373227644440  27.7494983615159754 0 0 0
112       12   1    0.0319318888888889   10.2305218419224300 -12.5157356866866998  29.2409290998458040 0 0 0
113       12   1    0.0319318888888889   10.6664641113467731 -11.4702248446184729  27.8718042049414301 0 0 0
114       12   1    0.0319318888888889   11.4647679843554045 -11.2570697714686148  29.4646655114053360 0 0 0
115       12   1    0.0319318888888889   13.8789640782121229 -13.0820797579788639  27.4882068349476540 0 0 0
116       12   1    0.0319318888888889   13.6288023232702038 -11.5929955294803779  28.4250519137634932 0 0 0
117       12   1    0.0319318888888889   12.8304984502615778 -11.8061506026302379  26.8321906072995873 0 0 0
118       13   2    0.0494508888888889  -12.4864961423698055  3.3623444694870517  -3.1497881898819706  0 0 0
119       13   3   -0.2904931111111111  -12.6996575386625334  4.5935644805799631  -3.8269381543026144  0 0 0
120       13   2    0.0494508888888889  -11.7833518846043130  4.7632237001502107  -4.9000031917797253  0 0 0
121       13   1    0.0319318888888889  -13.2150022339302531  3.2846779672877418  -2.3383791142638506  0 0 0
122       13   1    0.0319318888888889  -11.4802874962539221  3.3305348774332546  -2.7208754981427239  0 0 0
123       13   1    0.0319318888888889  -12.6320613908632051  2.5197044940214286  -3.8325869200201805  0 0 0
124       13   1    0.0319318888888889  -11.9918611490977209  5.7215641551384415  -5.3829518742019662  0 0 0
125       13   1    0.0319318888888889  -11.9065669366183702  3.9651240386465734  -5.6384405420437469  0 0 0
126       13   1    0.0319318888888889  -10.7547930420090871  4.7759544220584020  -4.5267291201662951  0 0 0
127       14   2    0.0494508888888889   10.9600457857657823 -28.1531100291857754 -20.4226399742970948 0 0 0
128       14   3   -0.2904931111111111   12.0781855166246057 -29.0281060401421236 -20.4860284116134608 0 0 0
129       14   2    0.0494508888888889   13.2483773681061390 -28.4167955262997936 -19.9598921521786536 0 0 0
130       14   1    0.0319318888888889   10.0922944289837133 -28.6721284256463669 -20.8382905317830236 0 0 0
131       14   1    0.0319318888888889   11.1453004318846531 -27.2516691932810922 -21.0146863595194269 0 0 0
132       14   1    0.0319318888888889   10.7427375213760783 -27.8841982057627327 -19.3844159979070128 0 0 0
133       14   1    0.0319318888888889   14.0729384960373238 -29.1308260456384609 -20.0333178606043667 0 0 0
134       14   1    0.0319318888888889   13.1038176775611657 -28.1562718900733877 -18.9069606872499492 0 0 0
135       14   1    0.0319318888888889   13.5063805880697458 -27.5237428775917508 -20.5372310488623597 0 0 0
136       15   2    0.0494508888888889  -2.9139900935200735   28.5962495976088640  20.1287969002361535 0 0 0
137       15   3   -0.2904931111111111  -4.2472131317941049   29.0462180999540003  20.3285899131585488 0 0 0
138       15   2    0.0494508888888889  -5.1773435502073841   27.9754471216202312  20.2381698169382958 0 0 0
139       15   1    0.0319318888888889  -2.2442694954375075   29.4566115579541936  20.2087313527249037 0 0 0
140       15   1    0.0319318888888889  -2.8031568667181892   28.1579378739283754  19.1322866817632473 0 0 0
141       15   1    0.0319318888888889  -2.6377392047963557   27.8654034995972140  20.8949528264029531 0 0 0
142       15   1    0.0319318888888889  -6.1814650879202917   28.3767033980615366  20.3989967705795792 0 0 0
143       15   1    0.0319318888888889  -4.9730487562436601   27.2248713552829535  21.0078024534256791 0 0 0
144       15   1    0.0319318888888889  -5.1384664181654998   27.5174057296141150  19.2451363087859804 0 0 0
145       16   2    0.0494508888888889   3.7089582352550572  -3.8765405852379411  -27.1282083958170368 0 0 0
146       16   3   -0.2904931111111111   3.2693963904882843  -4.3513723561829556  -28.3935908458401194 0 0 0
147       16   2    0.0494508888888889   4.2857252286584098  -4.2250858130955082  -29.3789822801639531 0 0 0
148       16   1    0.0319318888888889   2.8917781673386163  -3.9970002214551648  -26.4120770449864075 0 0 0
149       16   1    0.0319318888888889   3.9692267371964793  -2.8152900615479113  -27.1868720103050947 0 0 0
150       16   1    0.0319318888888889   4.5685508138870130  -4.4567719609104728  -26.7790986349308184 0 0 0
151       16   1    0.0319318888888889   3.8950860390814022  -4.6033159600351023  -30.3273888124130124 0 0 0
152       16   1    0.0319318888888889   5.1636475347941717  -4.8163987728502802  -29.1014284168953807 0 0 0
153       16   1    0.0319318888888889   4.5643234581036385  -3.1749168734877267  -29.5092017922696606 0 0 0
154       17   2    0.0494508888888889   20.0316409839985319 -27.1479535716238516  28.6394287098904243 0 0 0
155       17   3   -0.2904931111111111   20.1973294786201976 -28.4988380056658315  29.0487343896861709 0 0 0
156       17   2    0.0494508888888889   20.3223517566713596 -29.3696396776856226  27.9325163307485695 0 0 0
157       17   1    0.0319318888888889   19.9410091573077253 -26.5255761892614714  29.5336155834881318 0 0 0
158       17   1    0.0319318888888889   19.1211060824134549 -27.0377020242255099  28.0425999437508153 0 0 0
159       17   1    0.0319318888888889   20.9011490726319806 -26.8122555964514540  28.0660980644804923 0 0 0
160       17   1    0.0319318888888889   20.4467185446675508 -30.3902897284919860  28.3039168513896833 0 0 0
161       17   1    0.0319318888888889   21.2011004689615277 -29.1045735062208450  27.3367182404584348 0 0 0
162       17   1    0.0319318888888889   19.4210574787430126 -29.3300199339949081  27.3132201197287579 0 0 0
163       18   2    0.0494508888888889  -19.3860024726882259 -4.8501851037866128   11.7997234003720912 0 0 0
164       18   3   -0.2904931111111111  -20.7556283387381448 -4.4856542817574407   11.6942964695729508 0 0 0
165       18   2    0.0494508888888889  -21.0231762101602868 -3.2647166183076948   12.3707565464195799 0 0 0
166       18   1    0.0319318888888889  -19.2377666054739151 -5.7916881201461781   11.2642459528011738 0 0 0
167       18   1    0.0319318888888889  -19.1083587090012870 -4.9963967976221433   12.8480410372892120 0 0 0
168       18   1    0.0319318888888889  -18.7500109568719893 -4.0848451907938808   11.3445145635839051 0 0 0
169       18   1    0.0319318888888889  -22.0856983262956703 -3.0337004810326507   12.2575740922064025 0 0 0
170       18   1    0.0319318888888889  -20.4392368263282584 -2.4489772022641079   11.9336996392293013 0 0 0
171       18   1    0.0319318888888889  -20.7975845784575597 -3.3605288090923611   13.4372261129346011 0 0 0
172       19   2    0.0494508888888889   27.7862336603372881 -12.5250859511657051  21.1729789023379418 0 0 0
173       19   3   -0.2904931111111111   28.9897120848786862 -12.0708262204383434  20.5686939119543979 0 0 0
174       19   2    0.0494508888888889   28.7798782963066628 -11.6826107338591836  19.2177211534379246 0 0 0
175       19   1    0.0319318888888889   28.0050574394025027 -12.8092177179537643  22.2057049995280522 0 0 0
176       19   1    0.0319318888888889   27.3989682738833729 -13.4010142517906115  20.6436312666399431 0 0 0
177       19   1    0.0319318888888889   27.0370030622507400 -11.7275655386960374  21.1807363687474144 0 0 0
178       19   1    0.0319318888888889   29.7335449831106153 -11.3436920045385019  18.8044586263488611 0 0 0
179       19   1    0.0319318888888889   28.0622426109094896 -10.8583083414362527  19.1633214485641439 0 0 0
180       19   1    0.0319318888888889   28.4242078225421224 -12.5317570545308161  18.6262163464566690 0 0 0
181       20   2    0.0494508888888889  -3.1748182750002409  -20.5177434439115842  3.3108296964129722  0 0 0
182       20   3   -0.2904931111111111  -3.5680164819610898  -19.5019180820861564  4.2237188327351172  0 0 0
183       20   2    0.0494508888888889  -4.8493831064946944  -19.7675145784315376  4.7781797887639481  0 0 0
184       20   1    0.0319318888888889  -2.1871985313549915  -20.2636186484280820  2.9169188825444481  0 0 0
185       20   1    0.0319318888888889  -3.8800192205115129  -20.5762103565421803  2.4761399136927977  0 0 0
186       20   1    0.0319318888888889  -3.1107372462867042  -21.4849266036864464  3.8186641506467685  0 0 0
187       20   1    0.0319318888888889  -5.1001670309072393  -18.9585649237422267  5.4694394001505113  0 0 0
188       20   1    0.0319318888888889  -4.8385353690308941  -20.7108413171656984  5.3326630884052291  0 0 0
189       20   1    0.0319318888888889  -5.6078173432557046  -19.8021250700214360  3.9901388514512690  0 0 0
190       21   2    0.0494508888888889  -28.0885734540165366  21.3314257906932880  11.9581494872245120 0 0 0
191       21   3   -0.2904931111111111  -28.5818554753568073  20.1536215340242038  11.3341923161826035 0 0 0
192       21   2    0.0494508888888889  -28.4372228224907175  19.0182480572309771  12.1767345056421981 0 0 0
193       21   1    0.0319318888888889  -28.2242578271432265  22.1691730298443161  11.2690143675389365 0 0 0
194       21   1    0.0319318888888889  -27.0217272099683115  21.2294488099608998  12.1792231712325751 0 0 0
195       21   1    0.0319318888888889  -28.6456303142826378  21.5401112258281131  12.8766175156789995 0 0 0
196       21   1    0.0319318888888889  -28.8307547572230867  18.1453075163656088  11.6492504780551140 0 0 0
197       21   1    0.0319318888888889  -29.0053647387272378  19.1533947379675844  13.1021451586503446 0 0 0
198       21   1    0.0319318888888889  -27.3814616344129185  18.8427323221003640  12.4047508142039256 0 0 0
199       22   2    0.0494508888888889  -20.2196686589726795  19.1016339301651321  27.7712226129534869 0 0 0
200       22   3   -0.2904931111111111  -20.3120809385204488  19.8176246949120021  28.9954324668126837 0 0 0
201       22   2    0.0494508888888889  -20.1456662424662625  21.2148304362564417  28.7954546120604356 0 0 0
202       22   1    0.0319318888888889  -20.3543911154149271  18.0376633337173189  27.9832469715179180 0 0 0
203       22   1    0.0319318888888889  -19.2347376355152626  19.2458915852504475  27.3167620593512908 0 0 0
204       22   1    0.0319318888888889  -21.0046121032873891  19.4227627721641909  27.0797130094310816 0 0 0
205       22   1    0.0319318888888889  -20.2256676487930349  21.7136531971915652  29.7649429302256507 0 0 0
206       22   1    0.0319318888888889  -20.9282565744087279  21.6031371306359858  28.1365122606743618 0 0 0
207       22   1    0.0319318888888889  -19.1583821066366085  21.4262659437222531  28.3735613105945745 0 0 0
208       23   2    0.0494508888888889  -11.0570895649179022 -12.6339309023053907 -12.0482042935118105 0 0 0
209       23   3   -0.2904931111111111  -11.8543242497851473 -11.6050574263985169 -11.4774952619380066 0 0 0
210       23   2    0.0494508888888889  -13.1292054865508092 -11.5277250197348700 -12.1008462129459016 0 0 0
211       23   1    0.0319318888888889  -10.0927490814061276 -12.6482711658717495 -11.5334425158892557 0 0 0
212       23   1    0.0319318888888889  -10.8836137326268254 -12.4388682219423501 -13.1108850890193374 0 0 0
213       23   1    0.0319318888888889  -11.5381129247962111 -13.6080651611684758 -11.9173438768050701 0 0 0
214       23   1    0.0319318888888889  -13.6972797657361092 -10.7239827293287195 -11.6250080946317063 0 0 0
215       23   1    0.0319318888888889  -13.6761011003797179 -12.4666870634426310 -11.9716556287269320 0 0 0
216       23   1    0.0319318888888889  -13.0216019082103465 -11.2974901242165053 -13.1651968409411939 0 0 0
217       24   2    0.0494508888888889  -12.7284902762677863 -4.1923729172916708  -5.0195744860618818  0 0 0
218       24   3   -0.2904931111111111  -11.4276359434766537 -3.9148344791677094  -4.5189518825747568  0 0 0
219       24   2    0.0494508888888889  -11.4156308016397219 -3.8661051213136735  -3.0986173433366968  0 0 0
220       24   1    0.0319318888888889  -12.6793321567899913 -4.2181035657756993  -6.1113891736430705  0 0 0
221       24   1    0.0319318888888889  -13.4297029892023208 -3.4078019616129556  -4.7192697516263742  0 0 0
222       24   1    0.0319318888888889  -13.0766151138151407 -5.1662024381352598  -4.6619285193347499  0 0 0
223       24   1    0.0319318888888889  -10.3955553256202062 -3.6505529441070168  -2.7698085036972415  0 0 0
224       24   1    0.0319318888888889  -11.7220136661051111 -4.8295598269606872  -2.6799058561183475  0 0 0
225       24   1    0.0319318888888889  -12.0751015414922840 -3.0711593504383901  -2.7372470884099602  0 0 0
226       25   2    0.0494508888888889   21.2587629707398023 -28.1423389644827537 -27.8008454688786095 0 0 0
227       25   3   -0.2904931111111111   20.3397200960111917 -29.0615242349467167 -28.3755899372057385 0 0 0
228       25   2    0.0494508888888889   19.1093047978456134 -28.4308709176888357 -28.7045632865392868 0 0 0
229       25   1    0.0319318888888889   22.1827289933996639 -28.6785251207112708 -27.5686190839887395 0 0 0
230       25   1    0.0319318888888889   20.8538143877289492 -27.7251991871738710 -26.8737829908847026 0 0 0
231       25   1    0.0319318888888889   21.4886185240442096 -27.3386637312896745 -28.5070451714183299 0 0 0
232       25   1    0.0319318888888889   18.4436623192638010 -29.1804408276873701 -29.1406791101828055 0 0 0
233       25   1    0.0319318888888889   19.2708275356486958 -27.6363748968784044 -29.4394926825284386 0 0 0
234       25   1    0.0319318888888889   18.6360233993334248 -28.0229103527625938 -27.8062305019948255 0 0 0
235       26   2    0.0494508888888889   11.6411105900271927  28.1894492454789045  13.1839006772256528 0 0 0
236       26   3   -0.2904931111111111   12.4661873212173440  27.5006545271872653  12.2540174616538877 0 0 0
237       26   2    0.0494508888888889   12.6056608306243092  28.2294803040517195  11.0418998913449595 0 0 0
238       26   1    0.0319318888888889   11.5688337698006265  27.5866131627796172  14.0930225709526304 0 0 0
239       26   1    0.0319318888888889   10.6356570204075727  28.3274245519226753  12.7746822502811685 0 0 0
240       26   1    0.0319318888888889   12.0799124883794899  29.1584795967404240  13.4405688443917679 0 0 0
241       26   1    0.0319318888888889   13.2467147493994570  27.6562480041097061  10.3669283553330871 0 0 0
242       26   1    0.0319318888888889   13.0751282562625573  29.1997769430844514  11.2304721786683341 0 0 0
243       26   1    0.0319318888888889   11.6308727882906524  28.3687218982667169  10.5645855845577241 0 0 0
244       27   2    0.0494508888888889  -11.1554659070508801  19.7472174737144499 -12.6489522133220724 0 0 0
245       27   3   -0.2904931111111111  -12.4189584390594767  20.3613277532566670 -12.8641910504752577 0 0 0
246       27   2    0.0494508888888889  -13.0866401582455545  20.6229854183145598 -11.6371599729221415 0 0 0
247       27   1    0.0319318888888889  -10.6885170053136971  19.5695779149887308 -13.6213414406082336 0 0 0
248       27   1    0.0319318888888889  -11.2784949976857121  18.7867855070172993 -12.1391796493253263 0 0 0
249       27   1    0.0319318888888889  -10.5052459352171272  20.4042730929634537 -12.0633436604970310 0 0 0
250       27   1    0.0319318888888889  -14.0478718123731259  21.0930182248099243 -11.8612912710964000 0 0 0
251       27   1    0.0319318888888889  -12.4978172484975225  21.3078826124481964 -11.0193912836672361 0 0 0
252       27   1    0.0319318888888889  -13.2710663109661109  19.6903950265020562 -11.0952272724955154 0 0 0
253       28   2    0.0494508888888889   4.2536355484805943  -19.5785461195901647  3.0466733018288892  0 0 0
254       28   3   -0.2904931111111111   3.6066760590918996  -19.5059066220979389  4.3100178682057617  0 0 0
255       28   2    0.0494508888888889   3.7743839029084931  -20.7071083538848946  5.0508669458014577  0 0 0
256       28   1    0.0319318888888889   4.0929205788056109  -18.6328446839831265  2.5223095042482733  0 0 0
257       28   1    0.0319318888888889   3.8295411249058184  -20.3885088504485985  2.4453929335204503  0 0 0
258       28   1    0.0319318888888889   5.3298662357651043  -19.7285744071512958  3.1757643409392924  0 0 0
259       28   1    0.0319318888888889   3.2592459500856359  -20.5960189043634969  6.0086894735520433  0 0 0
260       28   1    0.0319318888888889   4.8353741578095901  -20.8930103195992594  5.2436748220628600  0 0 0
261       28   1    0.0319318888888889   3.3350490469503162  -21.5529447628965727  4.5133034146440325  0 0 0
262       29   2    0.0494508888888889   12.9684742327437839  4.8225531994319200  -4.1663483505797636  0 0 0
263       29   3   -0.2904931111111111   12.6666250123856496  3.5256440875078496  -3.6695723704061276  0 0 0
264       29   2    0.0494508888888889   11.2981095226887120  3.1974593418107919  -3.8678877864768317  0 0 0
265       29   1    0.0319318888888889   14.0285829234418653  5.0216397762443581  -3.9883820677071005  0 0 0
266       29   1    0.0319318888888889   12.3774533188802547  5.5801863157186364  -3.6427835243341478  0 0 0
267       29   1    0.0319318888888889   12.7786932403331210  4.8739132003521846  -5.2428198090611824  0 0 0
268       29   1    0.0319318888888889   11.1229199038995183  2.1947181892890981  -3.4692015070440236  0 0 0
269       29   1    0.0319318888888889   11.0552297907445940  3.1971526895408982  -4.9348667369604531  0 0 0
270       29   1    0.0319318888888889   10.6539898692917117  3.9034258049073416  -3.3348304522334318  0 0 0
271       30   2    0.0494508888888889  -3.5955335202754224   13.1663281861311212 -4.2866721456806598  0 0 0