
                                 *****************
                                 * O   R   C   A *
                                 *****************

           --- An Ab Initio, DFT and Semiempirical electronic structure package ---

                  #######################################################
                  #                        -***-                        #
                  #          Department of theory and spectroscopy      #
                  #               Directorship: Frank Neese             #
                  #        Max Planck Institute fuer Kohlenforschung    #
                  #                Kaiser Wilhelm Platz 1               #
                  #                 D-45470 Muelheim/Ruhr               #
                  #                      Germany                        #
                  #                                                     #
                  #                  All rights reserved                #
                  #                        -***-                        #
                  #######################################################


                         Program Version 4.1.2  - RELEASE  -


 With contributions from (in alphabetic order):
   Daniel Aravena         : Magnetic Properties
   Michael Atanasov       : Ab Initio Ligand Field Theory
   Alexander A. Auer      : GIAO ZORA
   Ute Becker             : Parallelization
   Giovanni Bistoni       : ED, Open-shell LED
   Martin Brehm           : Molecular dynamics
   Dmytro Bykov           : SCF Hessian
   Vijay G. Chilkuri      : MRCI spin determinant printing
   Dipayan Datta          : RHF DLPNO-CCSD density
   Achintya Kumar Dutta   : EOM-CC, STEOM-CC
   Dmitry Ganyushin       : Spin-Orbit,Spin-Spin,Magnetic field MRCI
   Miquel Garcia          : C-PCM Hessian
   Yang Guo               : DLPNO-NEVPT2, CIM, IAO-localization
   Andreas Hansen         : Spin unrestricted coupled pair/coupled cluster methods
   Benjamin Helmich-Paris : CASSCF linear response (MC-RPA)
   Lee Huntington         : MR-EOM, pCC
   Robert Izsak           : Overlap fitted RIJCOSX, COSX-SCS-MP3, EOM
   Christian Kollmar      : KDIIS, OOCD, Brueckner-CCSD(T), CCSD density
   Simone Kossmann        : Meta GGA functionals, TD-DFT gradient, OOMP2, MP2 Hessian
   Martin Krupicka        : AUTO-CI
   Lucas Lang             : DCDCAS
   Dagmar Lenk            : GEPOL surface, SMD
   Dimitrios Liakos       : Extrapolation schemes; parallel MDCI
   Dimitrios Manganas     : ROCIS; embedding schemes
   Dimitrios Pantazis     : SARC Basis sets
   Taras Petrenko         : DFT Hessian,TD-DFT gradient, ASA, ECA, R-Raman, ABS, FL, XAS/XES, NRVS
   Peter Pinski           : DLPNO-MP2, DLPNO-MP2 Gradient
   Christoph Reimann      : Effective Core Potentials
   Marius Retegan         : Local ZFS, SOC
   Christoph Riplinger    : Optimizer, TS searches, QM/MM, DLPNO-CCSD(T), (RO)-DLPNO pert. Triples
   Tobias Risthaus        : Range-separated hybrids, TD-DFT gradient, RPA, STAB
   Michael Roemelt        : Restricted open shell CIS
   Masaaki Saitow         : Open-shell DLPNO
   Barbara Sandhoefer     : DKH picture change effects
   Avijit Sen             : IP-ROCIS
   Kantharuban Sivalingam : CASSCF convergence, NEVPT2, FIC-MRCI
   Bernardo de Souza      : ESD, SOC TD-DFT
   Georgi Stoychev        : AutoAux, RI-MP2 NMR
   Willem Van den Heuvel  : Paramagnetic NMR
   Boris Wezisla          : Elementary symmetry handling
   Frank Wennmohs         : Technical directorship


 We gratefully acknowledge several colleagues who have allowed us to
 interface, adapt or use parts of their codes:
   Stefan Grimme, W. Hujo, H. Kruse,             : VdW corrections, initial TS optimization,
                  C. Bannwarth                     DFT functionals, gCP, sTDA/sTD-DF
   Ed Valeev                                     : LibInt (2-el integral package), F12 methods
   Garnet Chan, S. Sharma, J. Yang, R. Olivares  : DMRG
   Ulf Ekstrom                                   : XCFun DFT Library
   Mihaly Kallay                                 : mrcc  (arbitrary order and MRCC methods)
   Andreas Klamt, Michael Diedenhofen            : otool_cosmo (COSMO solvation model)
   Jiri Pittner, Ondrej Demel                    : Mk-CCSD
   Frank Weinhold                                : gennbo (NPA and NBO analysis)
   Christopher J. Cramer and Donald G. Truhlar   : smd solvation model
   Lars Goerigk                                  : TD-DFT with DH, B97 family of functionals
   V. Asgeirsson, H. Jonsson                     : NEB implementation
   FAccTs GmbH                                   : IRC, NEB, NEB-TS, Multilevel


 Your calculation uses the libint2 library for the computation of 2-el integrals
 For citations please refer to: http://libint.valeyev.net

 This ORCA versions uses:
   CBLAS   interface :  Fast vector & matrix operations
   LAPACKE interface :  Fast linear algebra routines
   SCALAPACK package :  Parallel linear algebra routines


Your calculation utilizes the atom-pairwise dispersion correction
with the zero-damping scheme (D30)
Cite in your paper:
S.Grimme, J.Antony, S.Ehrlich and H.Krieg, J.Chem.Phys., 132, (2010), 154104 
   

XCFun DFT library Copyright 2009-2010 Ulf Ekstrom and contributors.
See http://admol.org/xcfun for more information. This is free soft-
ware; see the source code for copying conditions. There is ABSOLUTELY
NO WARRANTY; not even for MERCHANTABILITY or FITNESS FOR A PARTICULAR
PURPOSE. For details see the documentation. Scientific users of this 
library should cite U. Ekstrom, L. Visscher, R. Bast, A. J. Thorvald-
sen and K. Ruud; J.Chem.Theor.Comp. 2010, DOI: 10.1021/ct100117s
XCFun Version 0.99 
----- Orbital basis set information -----
Your calculation utilizes the basis: def2-TZVP
   F. Weigend and R. Ahlrichs, Phys. Chem. Chem. Phys. 7, 3297 (2005).

================================================================================
                                        WARNINGS
                       Please study these warnings very carefully!
================================================================================


WARNING: Geometry Optimization
  ===> : Switching off AutoStart
         For restart on a previous wavefunction, please use MOREAD

INFO   : the flag for use of LIBINT has been found!

================================================================================
                                       INPUT FILE
================================================================================
NAME = bonds_angles_[1[8[6]]]-[8[6[1][1][1]][1]]-[6[8[1]][1][1][1]]_7.in
|  1> #Run DFT geometry optimization
|  2> ! wB97X-D3 def2-TZVP TIGHTSCF Grid5 FinalGrid6 Opt CHELPG PAL4
|  3> 
|  4> %base "7_geo_opt"
|  5> %geom MaxIter 500
|  6> end
|  7> 
|  8> %geom
|  9>   Constraints
| 10>     { A 2 1 0 C }
| 11>   end
| 12> end
| 13> 
| 14> 
| 15> * xyz 0 1
| 16>   C                    3.011516             -1.178893            0.597074            
| 17>   O                    4.394673             -1.128050            0.874308            
| 18>   H                    4.770690             -0.378645            0.411875            
| 19>   H                    2.806434             -1.318965            -0.469350           
| 20>   H                    2.611632             -2.040265            1.135898            
| 21>   H                    2.484757             -0.284491            0.945659            
| 22> *
| 23> 
| 24>                          ****END OF INPUT****
================================================================================

                       *****************************
                       * Geometry Optimization Run *
                       *****************************

Geometry optimization settings:
Update method            Update   .... BFGS
Choice of coordinates    CoordSys .... Z-matrix Internals
Initial Hessian          InHess   .... Almoef's Model

Convergence Tolerances:
Energy Change            TolE     ....  5.0000e-06 Eh
Max. Gradient            TolMAXG  ....  3.0000e-04 Eh/bohr
RMS Gradient             TolRMSG  ....  1.0000e-04 Eh/bohr
Max. Displacement        TolMAXD  ....  4.0000e-03 bohr
RMS Displacement         TolRMSD  ....  2.0000e-03 bohr

------------------------------------------------------------------------------
                        ORCA OPTIMIZATION COORDINATE SETUP
------------------------------------------------------------------------------

The optimization will be done in new redundant internal coordinates
Making redundant internal coordinates   ...  (new redundants) done
Evaluating the initial hessian          ...  (Almloef) done
Evaluating the coordinates              ...  done
Calculating the B-matrix                .... done
Calculating the G-matrix                .... done
Diagonalizing the G-matrix              .... done
Imposing constraints:
 Iter   0:  RMS(Cart)=    0.0000000000 RMS(Int)=    0.0000000000
CONVERGED
The first mode is                       ....    3
The number of degrees of freedom        ....   12
Storing new coordinates                 .... done

    -----------------------------------------------------------------
                    Redundant Internal Coordinates


    -----------------------------------------------------------------
         Definition                    Initial Value    Approx d2E/dq
    -----------------------------------------------------------------
      1. B(O   1,C   0)                  1.4116         0.516941   
      2. B(H   2,O   1)                  0.9575         0.524719   
      3. B(H   3,C   0)                  1.0950         0.353597   
      4. B(H   4,C   0)                  1.0919         0.357623   
      5. B(H   5,C   0)                  1.0950         0.353596   
      6. A(O   1,C   0,H   4)          106.8792         0.339794   
      7. A(O   1,C   0,H   3)          112.2973         0.339153   
      8. A(O   1,C   0,H   5)          112.2991         0.339152   
      9. A(H   3,C   0,H   5)          108.9320         0.289181   
     10. A(H   4,C   0,H   5)          108.1257         0.289695   
     11. A(H   3,C   0,H   4)          108.1261         0.289695   
     12. A(C   0,O   1,H   2)          108.5499         0.359341 C 
     13. D(H   2,O   1,C   0,H   5)    -61.5888         0.021176   
     14. D(H   2,O   1,C   0,H   3)     61.5854         0.021176   
     15. D(H   2,O   1,C   0,H   4)    179.9980         0.021176   
    -----------------------------------------------------------------

Number of atoms                         .... 6
Number of degrees of freedom            .... 15

         *************************************************************
         *                GEOMETRY OPTIMIZATION CYCLE   1            *
         *************************************************************
---------------------------------
CARTESIAN COORDINATES (ANGSTROEM)
---------------------------------
  C      3.011516   -1.178893    0.597074
  O      4.394673   -1.128050    0.874308
  H      4.770690   -0.378645    0.411875
  H      2.806434   -1.318965   -0.469350
  H      2.611632   -2.040265    1.135898
  H      2.484757   -0.284491    0.945659

----------------------------
CARTESIAN COORDINATES (A.U.)
----------------------------
  NO LB      ZA    FRAG     MASS         X           Y           Z
   0 C     6.0000    0    12.011    5.690940   -2.227785    1.128306
   1 O     8.0000    0    15.999    8.304728   -2.131706    1.652203
   2 H     1.0000    0     1.008    9.015298   -0.715535    0.778331
   3 H     1.0000    0     1.008    5.303392   -2.492483   -0.886943
   4 H     1.0000    0     1.008    4.935269   -3.855542    2.146536
   5 H     1.0000    0     1.008    4.695510   -0.537610    1.787037

--------------------------------
INTERNAL COORDINATES (ANGSTROEM)
--------------------------------
 C      0   0   0     0.000000000000     0.00000000     0.00000000
 O      1   0   0     1.411583149536     0.00000000     0.00000000
 H      2   1   0     0.957518103120   108.54990245     0.00000000
 H      1   2   3     1.094960702347   112.29732287    61.58542344
 H      1   2   3     1.091879223548   106.87916754   179.99803225
 H      1   2   3     1.094961864135   112.29911803   298.41118160

---------------------------
INTERNAL COORDINATES (A.U.)
---------------------------
 C      0   0   0     0.000000000000     0.00000000     0.00000000
 O      1   0   0     2.667505567881     0.00000000     0.00000000
 H      2   1   0     1.809446983169   108.54990245     0.00000000
 H      1   2   3     2.069175854842   112.29732287    61.58542344
 H      1   2   3     2.063352703824   106.87916754   179.99803225
 H      1   2   3     2.069178050303   112.29911803   298.41118160

---------------------
BASIS SET INFORMATION
---------------------
There are 3 groups of distinct atoms

 Group   1 Type C   : 11s6p2d1f contracted to 5s3p2d1f pattern {62111/411/11/1}
 Group   2 Type O   : 11s6p2d1f contracted to 5s3p2d1f pattern {62111/411/11/1}
 Group   3 Type H   : 5s1p contracted to 3s1p pattern {311/1}

Atom   0C    basis set group =>   1
Atom   1O    basis set group =>   2
Atom   2H    basis set group =>   3
Atom   3H    basis set group =>   3
Atom   4H    basis set group =>   3
Atom   5H    basis set group =>   3


           ************************************************************
           *        Program running with 4 parallel MPI-processes     *
           *              working on a common directory               *
           ************************************************************
------------------------------------------------------------------------------
                           ORCA GTO INTEGRAL CALCULATION
------------------------------------------------------------------------------

                         BASIS SET STATISTICS AND STARTUP INFO

 # of primitive gaussian shells          ...   64
 # of primitive gaussian functions       ...  124
 # of contracted shells                  ...   38
 # of contracted basis functions         ...   86
 Highest angular momentum                ...    3
 Maximum contraction depth               ...    6
 Integral package used                   ... LIBINT
 Integral threshhold            Thresh   ...  2.500e-11
 Primitive cut-off              TCut     ...  2.500e-12


------------------------------ INTEGRAL EVALUATION ----------------------------


 * One electron integrals 
 Pre-screening matrix                    ... done
 Shell pair data                         ... done (   0.000 sec)



           ************************************************************
           *        Program running with 4 parallel MPI-processes     *
           *              working on a common directory               *
           ************************************************************
-------------------------------------------------------------------------------
                                 ORCA SCF
-------------------------------------------------------------------------------

------------
SCF SETTINGS
------------
Hamiltonian:
 Density Functional     Method          .... DFT(GTOs)
 Exchange Functional    Exchange        .... WB97X-D3
 Correlation Functional Correlation     .... WB97X-D3
 Gradients option       PostSCFGGA      .... off
 Hybrid DFT is turned on
   Fraction HF Exchange ScalHFX         ....  0.195728
   Scaling of DF-GGA-X  ScalDFX         ....  0.000000
   Scaling of DF-GGA-C  ScalDFC         ....  1.000000
   Scaling of DF-LDA-C  ScalLDAC        ....  1.000000
   Perturbative correction              ....  0.000000
   Density functional embedding theory  .... OFF
 Long-range corrected/Screened/Range-Separated Hybrid DFT is turned on
   Amount of maximum screened exact exchange              ....  0.804272
   Range separation parameter mu (erf(mu*r12)/r12)        ....  0.250000


General Settings:
 Integral files         IntName         .... 7_geo_opt
 Hartree-Fock type      HFTyp           .... RHF
 Total Charge           Charge          ....    0
 Multiplicity           Mult            ....    1
 Number of Electrons    NEL             ....   18
 Basis Dimension        Dim             ....   86
 Nuclear Repulsion      ENuc            ....     40.4398768899 Eh

Convergence Acceleration:
 DIIS                   CNVDIIS         .... on
   Start iteration      DIISMaxIt       ....    12
   Startup error        DIISStart       ....  0.200000
   # of expansion vecs  DIISMaxEq       ....     5
   Bias factor          DIISBfac        ....   1.050
   Max. coefficient     DIISMaxC        ....  10.000
 Newton-Raphson         CNVNR           .... off
 SOSCF                  CNVSOSCF        .... on
   Start iteration      SOSCFMaxIt      ....   150
   Startup grad/error   SOSCFStart      ....  0.003300
 Level Shifting         CNVShift        .... on
   Level shift para.    LevelShift      ....    0.2500
   Turn off err/grad.   ShiftErr        ....    0.0010
 Zerner damping         CNVZerner       .... off
 Static damping         CNVDamp         .... on
   Fraction old density DampFac         ....    0.7000
   Max. Damping (<1)    DampMax         ....    0.9800
   Min. Damping (>=0)   DampMin         ....    0.0000
   Turn off err/grad.   DampErr         ....    0.1000
 Fernandez-Rico         CNVRico         .... off

SCF Procedure:
 Maximum # iterations   MaxIter         ....   125
 SCF integral mode      SCFMode         .... Direct
   Integral package                     .... LIBINT
 Reset frequency        DirectResetFreq ....    20
 Integral Threshold     Thresh          ....  2.500e-11 Eh
 Primitive CutOff       TCut            ....  2.500e-12 Eh

Convergence Tolerance:
 Convergence Check Mode ConvCheckMode   .... Total+1el-Energy
 Convergence forced     ConvForced      .... 0
 Energy Change          TolE            ....  1.000e-08 Eh
 1-El. energy change                    ....  1.000e-05 Eh
 Orbital Gradient       TolG            ....  1.000e-05
 Orbital Rotation angle TolX            ....  1.000e-05
 DIIS Error             TolErr          ....  5.000e-07


Diagonalization of the overlap matrix:
Smallest eigenvalue                        ... 1.649e-03
Time for diagonalization                   ...    0.002 sec
Threshold for overlap eigenvalues          ... 1.000e-08
Number of eigenvalues below threshold      ... 0
Time for construction of square roots      ...    0.004 sec
Total time needed                          ...    0.006 sec

-------------------
DFT GRID GENERATION
-------------------

General Integration Accuracy     IntAcc      ...  5.010
Radial Grid Type                 RadialGrid  ... Gauss-Chebyshev
Angular Grid (max. acc.)         AngularGrid ... Lebedev-434
Angular grid pruning method      GridPruning ... 3 (G Style)
Weight generation scheme         WeightScheme... Becke
Basis function cutoff            BFCut       ...    1.0000e-11
Integration weight cutoff        WCut        ...    1.0000e-14
Grids for H and He will be reduced by one unit

# of grid points (after initial pruning)     ...  48308 (   0.0 sec)
# of grid points (after weights+screening)   ...  46673 (   0.0 sec)
nearest neighbour list constructed           ...    0.0 sec
Grid point re-assignment to atoms done       ...    0.0 sec
Grid point division into batches done        ...    0.3 sec
Reduced shell lists constructed in    0.3 sec

Total number of grid points                  ...    46673
Total number of batches                      ...      733
Average number of points per batch           ...       63
Average number of grid points per atom       ...     7779
Average number of shells per batch           ...    33.12 (87.16%)
Average number of basis functions per batch  ...    76.75 (89.25%)
Average number of large shells per batch     ...    30.60 (92.39%)
Average number of large basis fcns per batch ...    72.20 (94.07%)
Maximum spatial batch extension              ...  15.77, 14.98, 16.57 au
Average spatial batch extension              ...   0.41,  0.41,  0.42 au

Time for grid setup =    0.398 sec

------------------------------
INITIAL GUESS: MODEL POTENTIAL
------------------------------
Loading Hartree-Fock densities                     ... done
Calculating cut-offs                               ... done
Setting up the integral package                    ... done
Initializing the effective Hamiltonian             ... done
Starting the Coulomb interaction                   ... done (   0.0 sec)
Reading the grid                                   ... done
Mapping shells                                     ... done
Starting the XC term evaluation                    ... done (   0.1 sec)
  promolecular density results
     # of electrons  =     17.998045177
     EX              =    -14.430308178
     EC              =     -0.575133171
     EX+EC           =    -15.005441350
Transforming the Hamiltonian                       ... done (   0.0 sec)
Diagonalizing the Hamiltonian                      ... done (   0.0 sec)
Back transforming the eigenvectors                 ... done (   0.0 sec)
Now organizing SCF variables                       ... done
                      ------------------
                      INITIAL GUESS DONE (   0.6 sec)
                      ------------------
--------------
SCF ITERATIONS
--------------
ITER       Energy         Delta-E        Max-DP      RMS-DP      [F,P]     Damp
               ***  Starting incremental Fock matrix formation  ***
  0   -115.6512606473   0.000000000000 0.03694497  0.00147404  0.2522342 0.7000
  1   -115.6882999966  -0.037039349334 0.02202190  0.00104039  0.1261935 0.7000
                               ***Turning on DIIS***
  2   -115.7053534974  -0.017053500740 0.03155763  0.00188077  0.0490775 0.0000
  3   -115.7330743942  -0.027720896804 0.01773345  0.00067995  0.0610964 0.0000
  4   -115.7375940954  -0.004519701183 0.00406520  0.00013176  0.0065631 0.0000
                      *** Initiating the SOSCF procedure ***
                           *** Shutting down DIIS ***
                      *** Re-Reading the Fockian *** 
                      *** Removing any level shift *** 
ITER      Energy       Delta-E        Grad      Rot      Max-DP    RMS-DP
  5   -115.73768823  -0.0000941388  0.000489  0.000489  0.000677  0.000043
               *** Restarting incremental Fock matrix formation ***
  6   -115.73769637  -0.0000081343  0.000153  0.000202  0.000488  0.000026
  7   -115.73769709  -0.0000007209  0.000056  0.000108  0.000207  0.000011
  8   -115.73769715  -0.0000000572  0.000020  0.000017  0.000030  0.000001
  9   -115.73769715  -0.0000000056  0.000011  0.000008  0.000015  0.000001
 10   -115.73769715  -0.0000000015  0.000003  0.000003  0.000003  0.000000
                  ***Gradient check signals convergence***
              ***Rediagonalizing the Fockian in SOSCF/NRSCF***

               *****************************************************
               *                     SUCCESS                       *
               *           SCF CONVERGED AFTER  11 CYCLES          *
               *****************************************************

Setting up the final grid:

General Integration Accuracy     IntAcc      ...  5.340
Radial Grid Type                 RadialGrid  ... Gauss-Chebyshev
Angular Grid (max. acc.)         AngularGrid ... Lebedev-590
Angular grid pruning method      GridPruning ... 3 (G Style)
Weight generation scheme         WeightScheme... Becke
Basis function cutoff            BFCut       ...    1.0000e-11
Integration weight cutoff        WCut        ...    1.0000e-14
Grids for H and He will be reduced by one unit

# of grid points (after initial pruning)     ...  77324 (   0.0 sec)
# of grid points (after weights+screening)   ...  74513 (   0.0 sec)
nearest neighbour list constructed           ...    0.0 sec
Grid point re-assignment to atoms done       ...    0.0 sec
Grid point division into batches done        ...    0.8 sec
Reduced shell lists constructed in    0.8 sec

Total number of grid points                  ...    74513
Total number of batches                      ...     1168
Average number of points per batch           ...       63
Average number of grid points per atom       ...    12419
Average number of shells per batch           ...    32.93 (86.66%)
Average number of basis functions per batch  ...    76.35 (88.78%)
Average number of large shells per batch     ...    30.32 (92.06%)
Average number of large basis fcns per batch ...    71.48 (93.63%)
Maximum spatial batch extension              ...  13.18, 14.26, 15.48 au
Average spatial batch extension              ...   0.34,  0.36,  0.37 au

Final grid set up in    0.9 sec
Final integration                            ... done (   0.2 sec)
Change in XC energy                          ...    -0.000107583
Integrated number of electrons               ...    18.000000751
Previous integrated no of electrons          ...    18.000002257

----------------
TOTAL SCF ENERGY
----------------

Total Energy       :         -115.73780474 Eh           -3149.38578 eV

Components:
Nuclear Repulsion  :           40.43987689 Eh            1100.42499 eV
Electronic Energy  :         -156.17768163 Eh           -4249.81077 eV
One Electron Energy:         -237.29837250 Eh           -6457.21699 eV
Two Electron Energy:           81.12069087 Eh            2207.40622 eV

Virial components:
Potential Energy   :         -230.98871379 Eh           -6285.52245 eV
Kinetic Energy     :          115.25090905 Eh            3136.13667 eV
Virial Ratio       :            2.00422466


DFT components:
N(Alpha)           :        9.000000375480 electrons
N(Beta)            :        9.000000375480 electrons
N(Total)           :       18.000000750961 electrons
E(XC)              :      -10.655605643487 Eh       
DFET-embed. en.    :        0.000000000000 Eh       

---------------
SCF CONVERGENCE
---------------

  Last Energy change         ...   -6.9932e-11  Tolerance :   1.0000e-08
  Last MAX-Density change    ...    1.8494e-06  Tolerance :   1.0000e-07
  Last RMS-Density change    ...    7.7976e-08  Tolerance :   5.0000e-09
  Last Orbital Gradient      ...    1.3436e-06  Tolerance :   1.0000e-05
  Last Orbital Rotation      ...    7.7604e-07  Tolerance :   1.0000e-05

             **** THE GBW FILE WAS UPDATED (7_geo_opt.gbw) ****
             **** DENSITY FILE WAS UPDATED (7_geo_opt.scfp.tmp) ****
             **** ENERGY FILE WAS UPDATED (7_geo_opt.en.tmp) ****
----------------
ORBITAL ENERGIES
----------------

  NO   OCC          E(Eh)            E(eV) 
   0   2.0000     -19.228197      -523.2259 
   1   2.0000     -10.315091      -280.6879 
   2   2.0000      -1.136955       -30.9381 
   3   2.0000      -0.795224       -21.6391 
   4   2.0000      -0.611616       -16.6429 
   5   2.0000      -0.542191       -14.7538 
   6   2.0000      -0.525803       -14.3078 
   7   2.0000      -0.433851       -11.8057 
   8   2.0000      -0.373816       -10.1720 
   9   0.0000       0.116662         3.1745 
  10   0.0000       0.156684         4.2636 
  11   0.0000       0.202219         5.5027 
  12   0.0000       0.205306         5.5867 
  13   0.0000       0.226358         6.1595 
  14   0.0000       0.304336         8.2814 
  15   0.0000       0.313532         8.5316 
  16   0.0000       0.404372        11.0035 
  17   0.0000       0.452482        12.3127 
  18   0.0000       0.485354        13.2072 
  19   0.0000       0.536362        14.5952 
  20   0.0000       0.543494        14.7892 
  21   0.0000       0.567031        15.4297 
  22   0.0000       0.598810        16.2945 
  23   0.0000       0.603299        16.4166 
  24   0.0000       0.671416        18.2702 
  25   0.0000       0.778542        21.1852 
  26   0.0000       0.831744        22.6329 
  27   0.0000       0.860965        23.4281 
  28   0.0000       0.989707        26.9313 
  29   0.0000       1.014403        27.6033 
  30   0.0000       1.109681        30.1960 
  31   0.0000       1.382077        37.6082 
  32   0.0000       1.512737        41.1637 
  33   0.0000       1.554065        42.2883 
  34   0.0000       1.602668        43.6108 
  35   0.0000       1.612876        43.8886 
  36   0.0000       1.624642        44.2088 
  37   0.0000       1.660467        45.1836 
  38   0.0000       1.687810        45.9276 
  39   0.0000       1.775211        48.3060 
  40   0.0000       1.951859        53.1128 
  41   0.0000       2.031874        55.2901 
  42   0.0000       2.055424        55.9309 
  43   0.0000       2.093102        56.9562 
  44   0.0000       2.114783        57.5462 
  45   0.0000       2.268600        61.7317 
  46   0.0000       2.333213        63.4899 
  47   0.0000       2.346008        63.8381 
  48   0.0000       2.380543        64.7779 
  49   0.0000       2.428616        66.0860 
  50   0.0000       2.498189        67.9792 
  51   0.0000       2.596348        70.6502 
  52   0.0000       2.640735        71.8580 
  53   0.0000       2.706565        73.6494 
  54   0.0000       2.841710        77.3268 
  55   0.0000       2.870377        78.1069 
  56   0.0000       2.888659        78.6044 
  57   0.0000       2.992896        81.4408 
  58   0.0000       3.096156        84.2507 
  59   0.0000       3.173177        86.3465 
  60   0.0000       3.299590        89.7864 
  61   0.0000       3.408095        92.7390 
  62   0.0000       3.439795        93.6016 
  63   0.0000       3.489607        94.9570 
  64   0.0000       3.612314        98.2961 
  65   0.0000       3.645183        99.1905 
  66   0.0000       3.666829        99.7795 
  67   0.0000       4.005268       108.9889 
  68   0.0000       4.224053       114.9423 
  69   0.0000       4.272471       116.2599 
  70   0.0000       4.456926       121.2791 
  71   0.0000       4.563718       124.1851 
  72   0.0000       5.346623       145.4890 
  73   0.0000       5.426618       147.6658 
  74   0.0000       5.553661       151.1228 
  75   0.0000       5.826355       158.5432 
  76   0.0000       5.832566       158.7122 
  77   0.0000       5.986615       162.9041 
  78   0.0000       6.379059       173.5830 
  79   0.0000       6.530786       177.7117 
  80   0.0000       6.745993       183.5678 
  81   0.0000       6.803685       185.1377 
  82   0.0000       7.039310       191.5494 
  83   0.0000       7.215785       196.3515 
  84   0.0000      22.405694       609.6899 
  85   0.0000      43.664004      1188.1580 

                    ********************************
                    * MULLIKEN POPULATION ANALYSIS *
                    ********************************

-----------------------
MULLIKEN ATOMIC CHARGES
-----------------------
   0 C :   -0.151274
   1 O :   -0.477154
   2 H :    0.312856
   3 H :    0.098858
   4 H :    0.117855
   5 H :    0.098861
Sum of atomic charges:   -0.0000000

--------------------------------
MULLIKEN REDUCED ORBITAL CHARGES
--------------------------------
  0 C s       :     3.223057  s :     3.223057
      pz      :     1.047269  p :     2.826572
      px      :     0.702506
      py      :     1.076798
      dz2     :     0.011083  d :     0.094224
      dxz     :     0.032493
      dyz     :     0.002656
      dx2y2   :     0.012724
      dxy     :     0.035269
      f0      :     0.001354  f :     0.007421
      f+1     :     0.000961
      f-1     :     0.000176
      f+2     :     0.001464
      f-2     :     0.000123
      f+3     :     0.001356
      f-3     :     0.001988
  1 O s       :     3.793206  s :     3.793206
      pz      :     1.758960  p :     4.651627
      px      :     1.313455
      py      :     1.579212
      dz2     :     0.003142  d :     0.030639
      dxz     :     0.006487
      dyz     :     0.005855
      dx2y2   :     0.008953
      dxy     :     0.006202
      f0      :     0.000269  f :     0.001683
      f+1     :     0.000233
      f-1     :     0.000087
      f+2     :     0.000289
      f-2     :     0.000234
      f+3     :     0.000366
      f-3     :     0.000205
  2 H s       :     0.639459  s :     0.639459
      pz      :     0.017012  p :     0.047685
      px      :     0.012703
      py      :     0.017971
  3 H s       :     0.881746  s :     0.881746
      pz      :     0.012072  p :     0.019396
      px      :     0.003016
      py      :     0.004308
  4 H s       :     0.861986  s :     0.861986
      pz      :     0.006277  p :     0.020159
      px      :     0.004170
      py      :     0.009712
  5 H s       :     0.881744  s :     0.881744
      pz      :     0.004950  p :     0.019395
      px      :     0.004994
      py      :     0.009452


                     *******************************
                     * LOEWDIN POPULATION ANALYSIS *
                     *******************************

----------------------
LOEWDIN ATOMIC CHARGES
----------------------
   0 C :   -0.385467
   1 O :   -0.075988
   2 H :    0.165821
   3 H :    0.093195
   4 H :    0.109245
   5 H :    0.093194

-------------------------------
LOEWDIN REDUCED ORBITAL CHARGES
-------------------------------
  0 C s       :     2.862945  s :     2.862945
      pz      :     1.096722  p :     3.052477
      px      :     0.846145
      py      :     1.109610
      dz2     :     0.072354  d :     0.413034
      dxz     :     0.114161
      dyz     :     0.020787
      dx2y2   :     0.082029
      dxy     :     0.123704
      f0      :     0.007797  f :     0.057011
      f+1     :     0.007170
      f-1     :     0.000860
      f+2     :     0.012544
      f-2     :     0.004847
      f+3     :     0.011700
      f-3     :     0.012094
  1 O s       :     3.366668  s :     3.366668
      pz      :     1.698729  p :     4.633050
      px      :     1.381208
      py      :     1.553113
      dz2     :     0.006140  d :     0.071619
      dxz     :     0.017866
      dyz     :     0.008112
      dx2y2   :     0.019359
      dxy     :     0.020141
      f0      :     0.000483  f :     0.004652
      f+1     :     0.000623
      f-1     :     0.000072
      f+2     :     0.001055
      f-2     :     0.000560
      f+3     :     0.000891
      f-3     :     0.000968
  2 H s       :     0.675124  s :     0.675124
      pz      :     0.055771  p :     0.159054
      px      :     0.033862
      py      :     0.069422
  3 H s       :     0.846791  s :     0.846791
      pz      :     0.036242  p :     0.060014
      px      :     0.009759
      py      :     0.014012
  4 H s       :     0.831551  s :     0.831551
      pz      :     0.019080  p :     0.059203
      px      :     0.011500
      py      :     0.028624
  5 H s       :     0.846793  s :     0.846793
      pz      :     0.015687  p :     0.060014
      px      :     0.015276
      py      :     0.029050


                      *****************************
                      * MAYER POPULATION ANALYSIS *
                      *****************************

  NA   - Mulliken gross atomic population
  ZA   - Total nuclear charge
  QA   - Mulliken gross atomic charge
  VA   - Mayer's total valence
  BVA  - Mayer's bonded valence
  FA   - Mayer's free valence

  ATOM       NA         ZA         QA         VA         BVA        FA
  0 C      6.1513     6.0000    -0.1513     3.9349     3.9349    -0.0000
  1 O      8.4772     8.0000    -0.4772     1.8885     1.8885     0.0000
  2 H      0.6871     1.0000     0.3129     0.9137     0.9137     0.0000
  3 H      0.9011     1.0000     0.0989     0.9595     0.9595    -0.0000
  4 H      0.8821     1.0000     0.1179     0.9599     0.9599    -0.0000
  5 H      0.9011     1.0000     0.0989     0.9595     0.9595    -0.0000

  Mayer bond orders larger than 0.1
B(  0-C ,  1-O ) :   0.9988 B(  0-C ,  3-H ) :   0.9754 B(  0-C ,  4-H ) :   0.9751 
B(  0-C ,  5-H ) :   0.9754 B(  1-O ,  2-H ) :   0.9004 

-------
TIMINGS
-------

Total SCF time: 0 days 0 hours 0 min 8 sec 

Total time                  ....       8.613 sec
Sum of individual times     ....       8.248 sec  ( 95.8%)

Fock matrix formation       ....       6.694 sec  ( 77.7%)
  XC integration            ....       1.963 sec  ( 29.3% of F)
    Basis function eval.    ....       0.425 sec  ( 21.7% of XC)
    Density eval.           ....       0.274 sec  ( 13.9% of XC)
    XC-Functional eval.     ....       0.679 sec  ( 34.6% of XC)
    XC-Potential eval.      ....       0.265 sec  ( 13.5% of XC)
Diagonalization             ....       0.018 sec  (  0.2%)
Density matrix formation    ....       0.002 sec  (  0.0%)
Population analysis         ....       0.011 sec  (  0.1%)
Initial guess               ....       0.183 sec  (  2.1%)
Orbital Transformation      ....       0.000 sec  (  0.0%)
Orbital Orthonormalization  ....       0.000 sec  (  0.0%)
DIIS solution               ....       0.036 sec  (  0.4%)
SOSCF solution              ....       0.010 sec  (  0.1%)
Grid generation             ....       1.294 sec  ( 15.0%)


-------------------------------------------------------------------------------
                          DFT DISPERSION CORRECTION                            
                                                                               
                              DFTD3 V3.1  Rev 1                                
                              USING zero damping                               
-------------------------------------------------------------------------------
The omegaB97X-D3 functional is recognized. Fit by Chai et al.
Active option DFTDOPT                   ...         3   

molecular C6(AA) [au] = 208.714342 


            DFT-D V3
 parameters
 s6 scaling factor         :     1.0000 
 rs6 scaling factor        :     1.2810 
 s8 scaling factor         :     1.0000 
 rs8 scaling factor        :     1.0940 
 Damping factor alpha6     :    14.0000 
 Damping factor alpha8     :    16.0000 
 ad hoc parameters k1-k3   :    16.0000     1.3333    -4.0000 

 Edisp/kcal,au: -0.149957884161  -0.000238973074 
 E6   /kcal   :  -0.029550480 
 E8   /kcal   :  -0.120407405 
 % E8         :  80.294147451 

-------------------------   ----------------
Dispersion correction           -0.000238973
-------------------------   ----------------


-------------------------   --------------------
FINAL SINGLE POINT ENERGY      -115.738043709748
-------------------------   --------------------



           ************************************************************
           *        Program running with 4 parallel MPI-processes     *
           *              working on a common directory               *
           ************************************************************
------------------------------------------------------------------------------
                         ORCA SCF GRADIENT CALCULATION
------------------------------------------------------------------------------

Gradient of the Kohn-Sham DFT energy:
Kohn-Sham wavefunction type      ... RKS
Hartree-Fock exchange scaling    ...    0.196
Number of operators              ...    1
Number of atoms                  ...    6
Basis set dimensions             ...   86
Integral neglect threshold       ... 2.5e-11
Integral primitive cutoff        ... 2.5e-12

Nuclear repulsion gradient       ... done
One Electron Gradient            ... done
Pre-screening matrix             ... done
Starting the two electron gradient:
Two electron gradient done
Exchange-correlation gradient    ... done
Dispersion correction            ... done

------------------
CARTESIAN GRADIENT
------------------

   1   C   :    0.000264382    0.002457255   -0.001735927
   2   O   :    0.000179847   -0.000513620    0.000414515
   3   H   :   -0.000374479    0.000016661   -0.000098579
   4   H   :    0.000041739   -0.000130503    0.000667167
   5   H   :   -0.000316670   -0.001178542    0.000784478
   6   H   :    0.000205181   -0.000651252   -0.000031654

Difference to translation invariance:
           :    0.0000000000   -0.0000000000    0.0000000000

Norm of the cartesian gradient     ...    0.0035742705
RMS gradient                       ...    0.0008424636
MAX gradient                       ...    0.0024572551

-------
TIMINGS
-------

Total SCF gradient time            ...        1.823 sec

One electron gradient       ....       0.005 sec  (  0.3%)
Prescreening matrices       ....       0.025 sec  (  1.3%)
Two electron gradient       ....       0.841 sec  ( 46.1%)
XC gradient                 ....       0.661 sec  ( 36.3%)
------------------------------------------------------------------------------
                         ORCA GEOMETRY RELAXATION STEP
------------------------------------------------------------------------------

Reading the OPT-File                    .... done
Getting information on internals        .... done
Copying old internal coords+grads       .... done
Making the new internal coordinates     .... (new redundants).... done
Validating the new internal coordinates .... (new redundants).... done
Calculating the B-matrix                .... done
Calculating the G,G- and P matrices     .... done
Transforming gradient to internals      .... done
Projecting the internal gradient        .... done
Number of atoms                         ....   6
Number of internal coordinates          ....  15
Current Energy                          ....  -115.738043710 Eh
Current gradient norm                   ....     0.003574270 Eh/bohr
Maximum allowed component of the step   ....  0.300
Current trust radius                    ....  0.300
Evaluating the initial hessian          ....  (Almloef) done
Projecting the Hessian                  .... done
Forming the augmented Hessian           .... done
Diagonalizing the augmented Hessian     .... done
Last element of RFO vector              ....  0.999983204
Lowest eigenvalues of augmented Hessian:
 -0.000010451  0.021176394  0.181528806  0.192482022  0.313400566
Length of the computed step             ....  0.005795939
The final length of the internal step   ....  0.005795939
Converting the step to cartesian space:
 Initial RMS(Int)=    0.0014965051
Transforming coordinates:
 Iter   0:  RMS(Cart)=    0.0008604899 RMS(Int)=    0.0014964075
 Iter   1:  RMS(Cart)=    0.0000012587 RMS(Int)=    0.0000011767
 Iter   2:  RMS(Cart)=    0.0000000016 RMS(Int)=    0.0000000016
Imposing constraints:
 Iter   0:  RMS(Cart)=    0.0000000002 RMS(Int)=    0.0000000000
CONVERGED
done
Storing new coordinates                 .... done

                                .--------------------.
          ----------------------|Geometry convergence|-------------------------
          Item                value                   Tolerance       Converged
          ---------------------------------------------------------------------
          RMS gradient        0.0004792485            0.0001000000      NO
          MAX gradient        0.0014327141            0.0003000000      NO
          RMS step            0.0014965051            0.0020000000      YES
          MAX step            0.0040061010            0.0040000000      NO
          ........................................................
          Max(Bonds)      0.0021      Max(Angles)    0.11
          Max(Dihed)        0.08      Max(Improp)    0.00
          ---------------------------------------------------------------------

The optimization has not yet converged - more geometry cycles are needed


    ---------------------------------------------------------------------------
                         Redundant Internal Coordinates
                            (Angstroem and degrees)

        Definition                    Value    dE/dq     Step     New-Value
    ----------------------------------------------------------------------------
     1. B(O   1,C   0)                1.4116 -0.000146  0.0001    1.4117   
     2. B(H   2,O   1)                0.9575 -0.000087  0.0001    0.9576   
     3. B(H   3,C   0)                1.0950 -0.000641  0.0010    1.0959   
     4. B(H   4,C   0)                1.0919  0.001433 -0.0021    1.0898   
     5. B(H   5,C   0)                1.0950 -0.000641  0.0010    1.0959   
     6. A(O   1,C   0,H   4)          106.88 -0.000522    0.11    106.99   
     7. A(O   1,C   0,H   3)          112.30  0.000224   -0.05    112.25   
     8. A(O   1,C   0,H   5)          112.30  0.000224   -0.05    112.25   
     9. A(H   3,C   0,H   5)          108.93  0.000146   -0.07    108.86   
    10. A(H   4,C   0,H   5)          108.13 -0.000053    0.03    108.16   
    11. A(H   3,C   0,H   4)          108.13 -0.000053    0.03    108.16   
    12. A(C   0,O   1,H   2)          108.55 -0.000683    0.00    108.55 C 
    13. D(H   2,O   1,C   0,H   5)    -61.59 -0.000267    0.08    -61.51   
    14. D(H   2,O   1,C   0,H   3)     61.59  0.000266   -0.08     61.51   
    15. D(H   2,O   1,C   0,H   4)    180.00 -0.000001    0.00    180.00   
    ----------------------------------------------------------------------------

         *************************************************************
         *                GEOMETRY OPTIMIZATION CYCLE   2            *
         *************************************************************
---------------------------------
CARTESIAN COORDINATES (ANGSTROEM)
---------------------------------
  C      3.011532   -1.179999    0.597883
  O      4.394946   -1.128112    0.874402
  H      4.770208   -0.378430    0.411624
  H      2.806685   -1.319119   -0.469695
  H      2.611461   -2.039482    1.135292
  H      2.484870   -0.284168    0.945958

----------------------------
CARTESIAN COORDINATES (A.U.)
----------------------------
  NO LB      ZA    FRAG     MASS         X           Y           Z
   0 C     6.0000    0    12.011    5.690970   -2.229875    1.129835
   1 O     8.0000    0    15.999    8.305244   -2.131822    1.652381
   2 H     1.0000    0     1.008    9.014387   -0.715128    0.777857
   3 H     1.0000    0     1.008    5.303866   -2.492775   -0.887595
   4 H     1.0000    0     1.008    4.934946   -3.854062    2.145390
   5 H     1.0000    0     1.008    4.695725   -0.536999    1.787602

--------------------------------
INTERNAL COORDINATES (ANGSTROEM)
--------------------------------
 C      0   0   0     0.000000000000     0.00000000     0.00000000
 O      1   0   0     1.411732879040     0.00000000     0.00000000
 H      2   1   0     0.957605744049   108.54990242     0.00000000
 H      1   2   3     1.095919493484   112.24952232    61.50676647
 H      1   2   3     1.089759286212   106.98665100   179.99984972
 H      1   2   3     1.095920808318   112.25133640   298.49331448

---------------------------
INTERNAL COORDINATES (A.U.)
---------------------------
 C      0   0   0     0.000000000000     0.00000000     0.00000000
 O      1   0   0     2.667788515638     0.00000000     0.00000000
 H      2   1   0     1.809612600523   108.54990242     0.00000000
 H      1   2   3     2.070987707510   112.24952232    61.50676647
 H      1   2   3     2.059346602837   106.98665100   179.99984972
 H      1   2   3     2.070990192186   112.25133640   298.49331448



           ************************************************************
           *        Program running with 4 parallel MPI-processes     *
           *              working on a common directory               *
           ************************************************************


           ************************************************************
           *        Program running with 4 parallel MPI-processes     *
           *              working on a common directory               *
           ************************************************************

Diagonalization of the overlap matrix:
Smallest eigenvalue                        ... 1.650e-03
Time for diagonalization                   ...    0.002 sec
Threshold for overlap eigenvalues          ... 1.000e-08
Number of eigenvalues below threshold      ... 0
Time for construction of square roots      ...    0.004 sec
Total time needed                          ...    0.006 sec

-------------------
DFT GRID GENERATION
-------------------

General Integration Accuracy     IntAcc      ...  5.010
Radial Grid Type                 RadialGrid  ... Gauss-Chebyshev
Angular Grid (max. acc.)         AngularGrid ... Lebedev-434
Angular grid pruning method      GridPruning ... 3 (G Style)
Weight generation scheme         WeightScheme... Becke
Basis function cutoff            BFCut       ...    1.0000e-11
Integration weight cutoff        WCut        ...    1.0000e-14
Grids for H and He will be reduced by one unit

# of grid points (after initial pruning)     ...  48308 (   0.0 sec)
# of grid points (after weights+screening)   ...  46676 (   0.0 sec)
nearest neighbour list constructed           ...    0.0 sec
Grid point re-assignment to atoms done       ...    0.0 sec
Grid point division into batches done        ...    0.3 sec
Reduced shell lists constructed in    0.3 sec

Total number of grid points                  ...    46676
Total number of batches                      ...      733
Average number of points per batch           ...       63
Average number of grid points per atom       ...     7779
Average number of shells per batch           ...    33.11 (87.14%)
Average number of basis functions per batch  ...    76.75 (89.24%)
Average number of large shells per batch     ...    30.56 (92.30%)
Average number of large basis fcns per batch ...    72.14 (94.00%)
Maximum spatial batch extension              ...  15.76, 14.99, 16.58 au
Average spatial batch extension              ...   0.41,  0.41,  0.42 au

Time for grid setup =    0.373 sec

--------------
SCF ITERATIONS
--------------
ITER       Energy         Delta-E        Max-DP      RMS-DP      [F,P]     Damp
               ***  Starting incremental Fock matrix formation  ***
                      *** Initiating the SOSCF procedure ***
                      *** Re-Reading the Fockian *** 
                      *** Removing any level shift *** 
ITER      Energy       Delta-E        Grad      Rot      Max-DP    RMS-DP
  0   -115.73770176 -115.7377017551  0.000249  0.000249  0.000249  0.000013
               *** Restarting incremental Fock matrix formation ***
  1   -115.73770315  -0.0000013934  0.000066  0.000105  0.000099  0.000006
  2   -115.73770332  -0.0000001702  0.000021  0.000051  0.000057  0.000003
  3   -115.73770333  -0.0000000158  0.000004  0.000004  0.000010  0.000001
  4   -115.73770333  -0.0000000001  0.000003  0.000002  0.000003  0.000000
                 **** Energy Check signals convergence ****
              ***Rediagonalizing the Fockian in SOSCF/NRSCF***

               *****************************************************
               *                     SUCCESS                       *
               *           SCF CONVERGED AFTER   5 CYCLES          *
               *****************************************************

Setting up the final grid:

General Integration Accuracy     IntAcc      ...  5.340
Radial Grid Type                 RadialGrid  ... Gauss-Chebyshev
Angular Grid (max. acc.)         AngularGrid ... Lebedev-590
Angular grid pruning method      GridPruning ... 3 (G Style)
Weight generation scheme         WeightScheme... Becke
Basis function cutoff            BFCut       ...    1.0000e-11
Integration weight cutoff        WCut        ...    1.0000e-14
Grids for H and He will be reduced by one unit

# of grid points (after initial pruning)     ...  77324 (   0.0 sec)
# of grid points (after weights+screening)   ...  74513 (   0.0 sec)
nearest neighbour list constructed           ...    0.0 sec
Grid point re-assignment to atoms done       ...    0.0 sec
Grid point division into batches done        ...    0.8 sec
Reduced shell lists constructed in    0.8 sec

Total number of grid points                  ...    74513
Total number of batches                      ...     1168
Average number of points per batch           ...       63
Average number of grid points per atom       ...    12419
Average number of shells per batch           ...    32.91 (86.60%)
Average number of basis functions per batch  ...    76.33 (88.75%)
Average number of large shells per batch     ...    30.35 (92.22%)
Average number of large basis fcns per batch ...    71.52 (93.70%)
Maximum spatial batch extension              ...  13.18, 14.25, 15.48 au
Average spatial batch extension              ...   0.34,  0.36,  0.37 au

Final grid set up in    0.9 sec
Final integration                            ... done (   0.2 sec)
Change in XC energy                          ...    -0.000107543
Integrated number of electrons               ...    18.000000752
Previous integrated no of electrons          ...    18.000002274
Total Energy       :         -115.73781088 Eh           -3149.38595 eV
  Last Energy change         ...   -3.0568e-11  Tolerance :   1.0000e-08
  Last MAX-Density change    ...    9.5209e-07  Tolerance :   1.0000e-07
             **** THE GBW FILE WAS UPDATED (7_geo_opt.gbw) ****
             **** DENSITY FILE WAS UPDATED (7_geo_opt.scfp.tmp) ****
             **** ENERGY FILE WAS UPDATED (7_geo_opt.en.tmp) ****
Total SCF time: 0 days 0 hours 0 min 5 sec 


-------------------------------------------------------------------------------
                          DFT DISPERSION CORRECTION                            
                                                                               
                              DFTD3 V3.1  Rev 1                                
                              USING zero damping                               
-------------------------------------------------------------------------------
-------------------------   ----------------
Dispersion correction           -0.000238959
-------------------------   ----------------


-------------------------   --------------------
FINAL SINGLE POINT ENERGY      -115.738049836597
-------------------------   --------------------



           ************************************************************
           *        Program running with 4 parallel MPI-processes     *
           *              working on a common directory               *
           ************************************************************
------------------------------------------------------------------------------
                         ORCA SCF GRADIENT CALCULATION
------------------------------------------------------------------------------

Gradient of the Kohn-Sham DFT energy:
Kohn-Sham wavefunction type      ... RKS
Hartree-Fock exchange scaling    ...    0.196
Number of operators              ...    1
Number of atoms                  ...    6
Basis set dimensions             ...   86
Integral neglect threshold       ... 2.5e-11
Integral primitive cutoff        ... 2.5e-12

Nuclear repulsion gradient       ... done
One Electron Gradient            ... done
Pre-screening matrix             ... done
Starting the two electron gradient:
Two electron gradient done
Exchange-correlation gradient    ... done
Dispersion correction            ... done

------------------
CARTESIAN GRADIENT
------------------

   1   C   :    0.000039677    0.000673211   -0.000483364
   2   O   :    0.000254776   -0.000416227    0.000359913
   3   H   :   -0.000300457    0.000103303   -0.000144730
   4   H   :   -0.000009910   -0.000134888    0.000081631
   5   H   :    0.000027814   -0.000101809    0.000075998
   6   H   :   -0.000011900   -0.000123589    0.000110552

Difference to translation invariance:
           :    0.0000000000   -0.0000000000   -0.0000000000

Norm of the cartesian gradient     ...    0.0011169253
RMS gradient                       ...    0.0002632618
MAX gradient                       ...    0.0006732108

-------
TIMINGS
-------

Total SCF gradient time            ...        1.612 sec

One electron gradient       ....       0.024 sec  (  1.5%)
Prescreening matrices       ....       0.024 sec  (  1.5%)
Two electron gradient       ....       0.831 sec  ( 51.6%)
XC gradient                 ....       0.405 sec  ( 25.1%)
------------------------------------------------------------------------------
                         ORCA GEOMETRY RELAXATION STEP
------------------------------------------------------------------------------

Reading the OPT-File                    .... done
Getting information on internals        .... done
Copying old internal coords+grads       .... done
Making the new internal coordinates     .... (new redundants).... done
Validating the new internal coordinates .... (new redundants).... done
Calculating the B-matrix                .... done
Calculating the G,G- and P matrices     .... done
Transforming gradient to internals      .... done
Projecting the internal gradient        .... done
Number of atoms                         ....   6
Number of internal coordinates          ....  15
Current Energy                          ....  -115.738049837 Eh
Current gradient norm                   ....     0.001116925 Eh/bohr
Maximum allowed component of the step   ....  0.300
Current trust radius                    ....  0.300
Updating the Hessian (BFGS)             .... done
Forming the augmented Hessian           .... done
Diagonalizing the augmented Hessian     .... done
Last element of RFO vector              ....  0.999997181
Lowest eigenvalues of augmented Hessian:
 -0.000000874  0.021176189  0.148347715  0.192482022  0.312603347
Length of the computed step             ....  0.002374396
The final length of the internal step   ....  0.002374396
Converting the step to cartesian space:
 Initial RMS(Int)=    0.0006130663
Transforming coordinates:
 Iter   0:  RMS(Cart)=    0.0004656205 RMS(Int)=    1.6223041912
 Iter   1:  RMS(Cart)=    0.0000002987 RMS(Int)=    0.0000003041
 Iter   2:  RMS(Cart)=    0.0000000001 RMS(Int)=    0.0000000002
Imposing constraints:
 Iter   0:  RMS(Cart)=    0.0000000000 RMS(Int)=    0.0000000000
CONVERGED
done
Storing new coordinates                 .... done

                                .--------------------.
          ----------------------|Geometry convergence|-------------------------
          Item                value                   Tolerance       Converged
          ---------------------------------------------------------------------
          Energy change      -0.0000061268            0.0000050000      NO
          RMS gradient        0.0000972823            0.0001000000      YES
          MAX gradient        0.0002057106            0.0003000000      YES
          RMS step            0.0006130663            0.0020000000      YES
          MAX step            0.0010476702            0.0040000000      YES
          ........................................................
          Max(Bonds)      0.0003      Max(Angles)    0.06
          Max(Dihed)        0.06      Max(Improp)    0.00
          ---------------------------------------------------------------------

       Everything but the energy has converged. However, the energy
       appears to be close enough to convergence to make sure that the
       final evaluation at the new geometry represents the equilibrium energy.
       Convergence will therefore be signaled now


                    ***********************HURRAY********************
                    ***        THE OPTIMIZATION HAS CONVERGED     ***
                    *************************************************


    ---------------------------------------------------------------------------
                         Redundant Internal Coordinates

                          --- Optimized Parameters ---  
                            (Angstroem and degrees)

        Definition                    OldVal   dE/dq     Step     FinalVal
    ----------------------------------------------------------------------------
     1. B(O   1,C   0)                1.4117 -0.000014  0.0000    1.4118   
     2. B(H   2,O   1)                0.9576  0.000033 -0.0000    0.9576   
     3. B(H   3,C   0)                1.0959 -0.000060  0.0002    1.0961   
     4. B(H   4,C   0)                1.0898  0.000107 -0.0003    1.0895   
     5. B(H   5,C   0)                1.0959 -0.000060  0.0002    1.0961   
     6. A(O   1,C   0,H   4)          106.99 -0.000206    0.06    107.05   
     7. A(O   1,C   0,H   3)          112.25  0.000088   -0.03    112.22   
     8. A(O   1,C   0,H   5)          112.25  0.000088   -0.03    112.22   
     9. A(H   3,C   0,H   5)          108.86  0.000123   -0.06    108.81   
    10. A(H   4,C   0,H   5)          108.16 -0.000055    0.03    108.19   
    11. A(H   3,C   0,H   4)          108.16 -0.000055    0.03    108.19   
    12. A(C   0,O   1,H   2)          108.55 -0.000628   -0.00    108.55 C 
    13. D(H   2,O   1,C   0,H   5)    -61.51 -0.000147    0.06    -61.45   
    14. D(H   2,O   1,C   0,H   3)     61.51  0.000146   -0.06     61.45   
    15. D(H   2,O   1,C   0,H   4)    180.00 -0.000000    0.00    180.00   
    ----------------------------------------------------------------------------
                 *******************************************************
                 *** FINAL ENERGY EVALUATION AT THE STATIONARY POINT ***
                 ***               (AFTER    2 CYCLES)               ***
                 *******************************************************
---------------------------------
CARTESIAN COORDINATES (ANGSTROEM)
---------------------------------
  C      3.011570   -1.180500    0.598255
  O      4.395069   -1.128039    0.874365
  H      4.769880   -0.378265    0.411443
  H      2.806926   -1.318803   -0.469627
  H      2.611066   -2.039628    1.135313
  H      2.485190   -0.284074    0.945713

----------------------------
CARTESIAN COORDINATES (A.U.)
----------------------------
  NO LB      ZA    FRAG     MASS         X           Y           Z
   0 C     6.0000    0    12.011    5.691043   -2.230822    1.130539
   1 O     8.0000    0    15.999    8.305477   -2.131684    1.652311
   2 H     1.0000    0     1.008    9.013767   -0.714816    0.777515
   3 H     1.0000    0     1.008    5.304321   -2.492176   -0.887466
   4 H     1.0000    0     1.008    4.934200   -3.854339    2.145431
   5 H     1.0000    0     1.008    4.696329   -0.536823    1.787139

--------------------------------
INTERNAL COORDINATES (ANGSTROEM)
--------------------------------
 C      0   0   0     0.000000000000     0.00000000     0.00000000
 O      1   0   0     1.411757125573     0.00000000     0.00000000
 H      2   1   0     0.957570291122   108.54990242     0.00000000
 H      1   2   3     1.096074435520   112.22265878    61.45007087
 H      1   2   3     1.089465775423   107.04657124   180.00149080
 H      1   2   3     1.096075586635   112.22455192   298.55326517

---------------------------
INTERNAL COORDINATES (A.U.)
---------------------------
 C      0   0   0     0.000000000000     0.00000000     0.00000000
 O      1   0   0     2.667834334944     0.00000000     0.00000000
 H      2   1   0     1.809545604200   108.54990242     0.00000000
 H      1   2   3     2.071280505525   112.22265878    61.45007087
 H      1   2   3     2.058791947830   107.04657124   180.00149080
 H      1   2   3     2.071282680818   112.22455192   298.55326517

---------------------
BASIS SET INFORMATION
---------------------
There are 3 groups of distinct atoms

 Group   1 Type C   : 11s6p2d1f contracted to 5s3p2d1f pattern {62111/411/11/1}
 Group   2 Type O   : 11s6p2d1f contracted to 5s3p2d1f pattern {62111/411/11/1}
 Group   3 Type H   : 5s1p contracted to 3s1p pattern {311/1}

Atom   0C    basis set group =>   1
Atom   1O    basis set group =>   2
Atom   2H    basis set group =>   3
Atom   3H    basis set group =>   3
Atom   4H    basis set group =>   3
Atom   5H    basis set group =>   3


           ************************************************************
           *        Program running with 4 parallel MPI-processes     *
           *              working on a common directory               *
           ************************************************************
------------------------------------------------------------------------------
                           ORCA GTO INTEGRAL CALCULATION
------------------------------------------------------------------------------

                         BASIS SET STATISTICS AND STARTUP INFO

 # of primitive gaussian shells          ...   64
 # of primitive gaussian functions       ...  124
 # of contracted shells                  ...   38
 # of contracted basis functions         ...   86
 Highest angular momentum                ...    3
 Maximum contraction depth               ...    6
 Integral package used                   ... LIBINT
 Integral threshhold            Thresh   ...  2.500e-11
 Primitive cut-off              TCut     ...  2.500e-12


------------------------------ INTEGRAL EVALUATION ----------------------------


 * One electron integrals 
 Pre-screening matrix                    ... done
 Shell pair data                         ... done (   0.000 sec)



           ************************************************************
           *        Program running with 4 parallel MPI-processes     *
           *              working on a common directory               *
           ************************************************************
-------------------------------------------------------------------------------
                                 ORCA SCF
-------------------------------------------------------------------------------

------------
SCF SETTINGS
------------
Hamiltonian:
 Density Functional     Method          .... DFT(GTOs)
 Exchange Functional    Exchange        .... WB97X-D3
 Correlation Functional Correlation     .... WB97X-D3
 Gradients option       PostSCFGGA      .... off
 Hybrid DFT is turned on
   Fraction HF Exchange ScalHFX         ....  0.195728
   Scaling of DF-GGA-X  ScalDFX         ....  0.000000
   Scaling of DF-GGA-C  ScalDFC         ....  1.000000
   Scaling of DF-LDA-C  ScalLDAC        ....  1.000000
   Perturbative correction              ....  0.000000
   Density functional embedding theory  .... OFF
 Long-range corrected/Screened/Range-Separated Hybrid DFT is turned on
   Amount of maximum screened exact exchange              ....  0.804272
   Range separation parameter mu (erf(mu*r12)/r12)        ....  0.250000


General Settings:
 Integral files         IntName         .... 7_geo_opt
 Hartree-Fock type      HFTyp           .... RHF
 Total Charge           Charge          ....    0
 Multiplicity           Mult            ....    1
 Number of Electrons    NEL             ....   18
 Basis Dimension        Dim             ....   86
 Nuclear Repulsion      ENuc            ....     40.4373362018 Eh

Convergence Acceleration:
 DIIS                   CNVDIIS         .... on
   Start iteration      DIISMaxIt       ....    12
   Startup error        DIISStart       ....  0.200000
   # of expansion vecs  DIISMaxEq       ....     5
   Bias factor          DIISBfac        ....   1.050
   Max. coefficient     DIISMaxC        ....  10.000
 Newton-Raphson         CNVNR           .... off
 SOSCF                  CNVSOSCF        .... on
   Start iteration      SOSCFMaxIt      ....   150
   Startup grad/error   SOSCFStart      ....  0.003300
 Level Shifting         CNVShift        .... on
   Level shift para.    LevelShift      ....    0.2500
   Turn off err/grad.   ShiftErr        ....    0.0010
 Zerner damping         CNVZerner       .... off
 Static damping         CNVDamp         .... on
   Fraction old density DampFac         ....    0.7000
   Max. Damping (<1)    DampMax         ....    0.9800
   Min. Damping (>=0)   DampMin         ....    0.0000
   Turn off err/grad.   DampErr         ....    0.1000
 Fernandez-Rico         CNVRico         .... off

SCF Procedure:
 Maximum # iterations   MaxIter         ....   125
 SCF integral mode      SCFMode         .... Direct
   Integral package                     .... LIBINT
 Reset frequency        DirectResetFreq ....    20
 Integral Threshold     Thresh          ....  2.500e-11 Eh
 Primitive CutOff       TCut            ....  2.500e-12 Eh

Convergence Tolerance:
 Convergence Check Mode ConvCheckMode   .... Total+1el-Energy
 Convergence forced     ConvForced      .... 0
 Energy Change          TolE            ....  1.000e-08 Eh
 1-El. energy change                    ....  1.000e-05 Eh
 Orbital Gradient       TolG            ....  1.000e-05
 Orbital Rotation angle TolX            ....  1.000e-05
 DIIS Error             TolErr          ....  5.000e-07


Diagonalization of the overlap matrix:
Smallest eigenvalue                        ... 1.650e-03
Time for diagonalization                   ...    0.002 sec
Threshold for overlap eigenvalues          ... 1.000e-08
Number of eigenvalues below threshold      ... 0
Time for construction of square roots      ...    0.003 sec
Total time needed                          ...    0.006 sec

---------------------
INITIAL GUESS: MOREAD
---------------------
Guess MOs are being read from file: 7_geo_opt.gbw
Input Geometry matches current geometry (good)
Input basis set matches current basis set (good)
MOs were renormalized
MOs were reorthogonalized (Cholesky)
                      ------------------
                      INITIAL GUESS DONE (   0.0 sec)
                      ------------------
-------------------
DFT GRID GENERATION
-------------------

General Integration Accuracy     IntAcc      ...  5.010
Radial Grid Type                 RadialGrid  ... Gauss-Chebyshev
Angular Grid (max. acc.)         AngularGrid ... Lebedev-434
Angular grid pruning method      GridPruning ... 3 (G Style)
Weight generation scheme         WeightScheme... Becke
Basis function cutoff            BFCut       ...    1.0000e-11
Integration weight cutoff        WCut        ...    1.0000e-14
Grids for H and He will be reduced by one unit

# of grid points (after initial pruning)     ...  48308 (   0.0 sec)
# of grid points (after weights+screening)   ...  46675 (   0.0 sec)
nearest neighbour list constructed           ...    0.0 sec
Grid point re-assignment to atoms done       ...    0.0 sec
Grid point division into batches done        ...    0.3 sec
Reduced shell lists constructed in    0.3 sec

Total number of grid points                  ...    46675
Total number of batches                      ...      733
Average number of points per batch           ...       63
Average number of grid points per atom       ...     7779
Average number of shells per batch           ...    33.12 (87.17%)
Average number of basis functions per batch  ...    76.76 (89.25%)
Average number of large shells per batch     ...    30.51 (92.12%)
Average number of large basis fcns per batch ...    72.02 (93.82%)
Maximum spatial batch extension              ...  15.76, 14.99, 16.58 au
Average spatial batch extension              ...   0.41,  0.41,  0.42 au

Time for grid setup =    0.373 sec

--------------
SCF ITERATIONS
--------------
ITER       Energy         Delta-E        Max-DP      RMS-DP      [F,P]     Damp
               ***  Starting incremental Fock matrix formation  ***
                      *** Initiating the SOSCF procedure ***
                      *** Re-Reading the Fockian *** 
                      *** Removing any level shift *** 
ITER      Energy       Delta-E        Grad      Rot      Max-DP    RMS-DP
  0   -115.73770376 -115.7377037603  0.000065  0.000065  0.000059  0.000004
               *** Restarting incremental Fock matrix formation ***
  1   -115.73770393  -0.0000001690  0.000024  0.000027  0.000034  0.000002
  2   -115.73770395  -0.0000000213  0.000008  0.000014  0.000015  0.000001
  3   -115.73770395  -0.0000000014  0.000006  0.000004  0.000007  0.000000
  4   -115.73770395  -0.0000000003  0.000003  0.000002  0.000002  0.000000
                 **** Energy Check signals convergence ****
              ***Rediagonalizing the Fockian in SOSCF/NRSCF***

               *****************************************************
               *                     SUCCESS                       *
               *           SCF CONVERGED AFTER   5 CYCLES          *
               *****************************************************

Setting up the final grid:

General Integration Accuracy     IntAcc      ...  5.340
Radial Grid Type                 RadialGrid  ... Gauss-Chebyshev
Angular Grid (max. acc.)         AngularGrid ... Lebedev-590
Angular grid pruning method      GridPruning ... 3 (G Style)
Weight generation scheme         WeightScheme... Becke
Basis function cutoff            BFCut       ...    1.0000e-11
Integration weight cutoff        WCut        ...    1.0000e-14
Grids for H and He will be reduced by one unit

# of grid points (after initial pruning)     ...  77324 (   0.0 sec)
# of grid points (after weights+screening)   ...  74512 (   0.0 sec)
nearest neighbour list constructed           ...    0.0 sec
Grid point re-assignment to atoms done       ...    0.0 sec
Grid point division into batches done        ...    0.8 sec
Reduced shell lists constructed in    0.8 sec

Total number of grid points                  ...    74512
Total number of batches                      ...     1167
Average number of points per batch           ...       63
Average number of grid points per atom       ...    12419
Average number of shells per batch           ...    32.91 (86.61%)
Average number of basis functions per batch  ...    76.34 (88.76%)
Average number of large shells per batch     ...    30.34 (92.20%)
Average number of large basis fcns per batch ...    71.52 (93.69%)
Maximum spatial batch extension              ...  13.18, 14.25, 15.48 au
Average spatial batch extension              ...   0.34,  0.36,  0.37 au

Final grid set up in    1.0 sec
Final integration                            ... done (   0.2 sec)
Change in XC energy                          ...    -0.000107559
Integrated number of electrons               ...    18.000000751
Previous integrated no of electrons          ...    18.000002278

----------------
TOTAL SCF ENERGY
----------------

Total Energy       :         -115.73781151 Eh           -3149.38596 eV

Components:
Nuclear Repulsion  :           40.43733620 Eh            1100.35586 eV
Electronic Energy  :         -156.17514771 Eh           -4249.74182 eV
One Electron Energy:         -237.29337566 Eh           -6457.08102 eV
Two Electron Energy:           81.11822795 Eh            2207.33920 eV

Virial components:
Potential Energy   :         -230.98849656 Eh           -6285.51654 eV
Kinetic Energy     :          115.25068505 Eh            3136.13058 eV
Virial Ratio       :            2.00422667


DFT components:
N(Alpha)           :        9.000000375579 electrons
N(Beta)            :        9.000000375579 electrons
N(Total)           :       18.000000751159 electrons
E(XC)              :      -10.655579134196 Eh       
DFET-embed. en.    :        0.000000000000 Eh       

---------------
SCF CONVERGENCE
---------------

  Last Energy change         ...    2.3647e-11  Tolerance :   1.0000e-08
  Last MAX-Density change    ...    6.8584e-07  Tolerance :   1.0000e-07
  Last RMS-Density change    ...    2.7146e-08  Tolerance :   5.0000e-09
  Last Orbital Gradient      ...    1.1570e-07  Tolerance :   1.0000e-05
  Last Orbital Rotation      ...    2.2922e-07  Tolerance :   1.0000e-05

             **** THE GBW FILE WAS UPDATED (7_geo_opt.gbw) ****
             **** DENSITY FILE WAS UPDATED (7_geo_opt.scfp.tmp) ****
             **** ENERGY FILE WAS UPDATED (7_geo_opt.en.tmp) ****
----------------
ORBITAL ENERGIES
----------------

  NO   OCC          E(Eh)            E(eV) 
   0   2.0000     -19.228178      -523.2253 
   1   2.0000     -10.315114      -280.6885 
   2   2.0000      -1.136883       -30.9361 
   3   2.0000      -0.795262       -21.6402 
   4   2.0000      -0.611509       -16.6400 
   5   2.0000      -0.541838       -14.7441 
   6   2.0000      -0.526261       -14.3203 
   7   2.0000      -0.434010       -11.8100 
   8   2.0000      -0.373662       -10.1679 
   9   0.0000       0.116603         3.1729 
  10   0.0000       0.156690         4.2637 
  11   0.0000       0.202568         5.5122 
  12   0.0000       0.205076         5.5804 
  13   0.0000       0.226303         6.1580 
  14   0.0000       0.304426         8.2839 
  15   0.0000       0.313374         8.5273 
  16   0.0000       0.404303        11.0017 
  17   0.0000       0.452545        12.3144 
  18   0.0000       0.485196        13.2029 
  19   0.0000       0.535867        14.5817 
  20   0.0000       0.543508        14.7896 
  21   0.0000       0.567434        15.4407 
  22   0.0000       0.598555        16.2875 
  23   0.0000       0.603639        16.4258 
  24   0.0000       0.671306        18.2672 
  25   0.0000       0.778908        21.1952 
  26   0.0000       0.831483        22.6258 
  27   0.0000       0.861161        23.4334 
  28   0.0000       0.989520        26.9262 
  29   0.0000       1.014165        27.5968 
  30   0.0000       1.109684        30.1960 
  31   0.0000       1.382255        37.6131 
  32   0.0000       1.512383        41.1540 
  33   0.0000       1.553572        42.2748 
  34   0.0000       1.602911        43.6174 
  35   0.0000       1.613367        43.9019 
  36   0.0000       1.624228        44.1975 
  37   0.0000       1.660263        45.1781 
  38   0.0000       1.687790        45.9271 
  39   0.0000       1.775530        48.3146 
  40   0.0000       1.952275        53.1241 
  41   0.0000       2.031046        55.2676 
  42   0.0000       2.055282        55.9271 
  43   0.0000       2.093998        56.9806 
  44   0.0000       2.114345        57.5342 
  45   0.0000       2.268065        61.7172 
  46   0.0000       2.333217        63.4901 
  47   0.0000       2.346105        63.8408 
  48   0.0000       2.380852        64.7863 
  49   0.0000       2.429317        66.1051 
  50   0.0000       2.497951        67.9727 
  51   0.0000       2.595999        70.6407 
  52   0.0000       2.639976        71.8374 
  53   0.0000       2.707536        73.6758 
  54   0.0000       2.841678        77.3260 
  55   0.0000       2.870983        78.1234 
  56   0.0000       2.888182        78.5914 
  57   0.0000       2.992415        81.4277 
  58   0.0000       3.096095        84.2490 
  59   0.0000       3.173050        86.3431 
  60   0.0000       3.299281        89.7780 
  61   0.0000       3.408202        92.7419 
  62   0.0000       3.440384        93.6176 
  63   0.0000       3.488023        94.9139 
  64   0.0000       3.612494        98.3009 
  65   0.0000       3.645181        99.1904 
  66   0.0000       3.666784        99.7783 
  67   0.0000       4.005917       109.0065 
  68   0.0000       4.223464       114.9263 
  69   0.0000       4.273831       116.2969 
  70   0.0000       4.455819       121.2490 
  71   0.0000       4.563834       124.1882 
  72   0.0000       5.346588       145.4881 
  73   0.0000       5.426750       147.6694 
  74   0.0000       5.553610       151.1214 
  75   0.0000       5.825753       158.5268 
  76   0.0000       5.831970       158.6960 
  77   0.0000       5.986430       162.8990 
  78   0.0000       6.378753       173.5747 
  79   0.0000       6.531011       177.7178 
  80   0.0000       6.745842       183.5637 
  81   0.0000       6.803783       185.1403 
  82   0.0000       7.039193       191.5462 
  83   0.0000       7.215497       196.3437 
  84   0.0000      22.405723       609.6907 
  85   0.0000      43.663746      1188.1509 

                    ********************************
                    * MULLIKEN POPULATION ANALYSIS *
                    ********************************

-----------------------
MULLIKEN ATOMIC CHARGES
-----------------------
   0 C :   -0.151330
   1 O :   -0.477231
   2 H :    0.312962
   3 H :    0.098701
   4 H :    0.118194
   5 H :    0.098705
Sum of atomic charges:   -0.0000000

--------------------------------
MULLIKEN REDUCED ORBITAL CHARGES
--------------------------------
  0 C s       :     3.223216  s :     3.223216
      pz      :     1.047267  p :     2.826472
      px      :     0.702413
      py      :     1.076791
      dz2     :     0.011113  d :     0.094228
      dxz     :     0.032489
      dyz     :     0.002642
      dx2y2   :     0.012727
      dxy     :     0.035257
      f0      :     0.001355  f :     0.007415
      f+1     :     0.000956
      f-1     :     0.000175
      f+2     :     0.001462
      f-2     :     0.000123
      f+3     :     0.001360
      f-3     :     0.001984
  1 O s       :     3.793218  s :     3.793218
      pz      :     1.758925  p :     4.651717
      px      :     1.313856
      py      :     1.578936
      dz2     :     0.003139  d :     0.030615
      dxz     :     0.006472
      dyz     :     0.005861
      dx2y2   :     0.008973
      dxy     :     0.006169
      f0      :     0.000269  f :     0.001682
      f+1     :     0.000233
      f-1     :     0.000088
      f+2     :     0.000290
      f-2     :     0.000233
      f+3     :     0.000365
      f-3     :     0.000205
  2 H s       :     0.639362  s :     0.639362
      pz      :     0.017012  p :     0.047676
      px      :     0.012692
      py      :     0.017972
  3 H s       :     0.881936  s :     0.881936
      pz      :     0.012071  p :     0.019363
      px      :     0.003005
      py      :     0.004287
  4 H s       :     0.861582  s :     0.861582
      pz      :     0.006296  p :     0.020224
      px      :     0.004201
      py      :     0.009727
  5 H s       :     0.881933  s :     0.881933
      pz      :     0.004930  p :     0.019362
      px      :     0.004974
      py      :     0.009457


                     *******************************
                     * LOEWDIN POPULATION ANALYSIS *
                     *******************************

----------------------
LOEWDIN ATOMIC CHARGES
----------------------
   0 C :   -0.385200
   1 O :   -0.076178
   2 H :    0.165901
   3 H :    0.093419
   4 H :    0.108640
   5 H :    0.093417

-------------------------------
LOEWDIN REDUCED ORBITAL CHARGES
-------------------------------
  0 C s       :     2.862974  s :     2.862974
      pz      :     1.096630  p :     3.052350
      px      :     0.846078
      py      :     1.109641
      dz2     :     0.072431  d :     0.412888
      dxz     :     0.114006
      dyz     :     0.020692
      dx2y2   :     0.082088
      dxy     :     0.123671
      f0      :     0.007816  f :     0.056988
      f+1     :     0.007159
      f-1     :     0.000855
      f+2     :     0.012518
      f-2     :     0.004834
      f+3     :     0.011725
      f-3     :     0.012081
  1 O s       :     3.366742  s :     3.366742
      pz      :     1.698747  p :     4.633228
      px      :     1.381602
      py      :     1.552879
      dz2     :     0.006129  d :     0.071558
      dxz     :     0.017836
      dyz     :     0.008132
      dx2y2   :     0.019393
      dxy     :     0.020069
      f0      :     0.000483  f :     0.004649
      f+1     :     0.000622
      f-1     :     0.000073
      f+2     :     0.001057
      f-2     :     0.000556
      f+3     :     0.000889
      f-3     :     0.000968
  2 H s       :     0.675071  s :     0.675071
      pz      :     0.055782  p :     0.159027
      px      :     0.033820
      py      :     0.069425
  3 H s       :     0.846755  s :     0.846755
      pz      :     0.036182  p :     0.059826
      px      :     0.009713
      py      :     0.013932
  4 H s       :     0.831749  s :     0.831749
      pz      :     0.019208  p :     0.059611
      px      :     0.011631
      py      :     0.028772
  5 H s       :     0.846756  s :     0.846756
      pz      :     0.015606  p :     0.059826
      px      :     0.015203
      py      :     0.029017


                      *****************************
                      * MAYER POPULATION ANALYSIS *
                      *****************************

  NA   - Mulliken gross atomic population
  ZA   - Total nuclear charge
  QA   - Mulliken gross atomic charge
  VA   - Mayer's total valence
  BVA  - Mayer's bonded valence
  FA   - Mayer's free valence

  ATOM       NA         ZA         QA         VA         BVA        FA
  0 C      6.1513     6.0000    -0.1513     3.9350     3.9350     0.0000
  1 O      8.4772     8.0000    -0.4772     1.8884     1.8884    -0.0000
  2 H      0.6870     1.0000     0.3130     0.9136     0.9136    -0.0000
  3 H      0.9013     1.0000     0.0987     0.9596     0.9596    -0.0000
  4 H      0.8818     1.0000     0.1182     0.9598     0.9598    -0.0000
  5 H      0.9013     1.0000     0.0987     0.9596     0.9596    -0.0000

  Mayer bond orders larger than 0.1
B(  0-C ,  1-O ) :   0.9988 B(  0-C ,  3-H ) :   0.9755 B(  0-C ,  4-H ) :   0.9750 
B(  0-C ,  5-H ) :   0.9755 B(  1-O ,  2-H ) :   0.9003 

-------
TIMINGS
-------

Total SCF time: 0 days 0 hours 0 min 5 sec 

Total time                  ....       5.660 sec
Sum of individual times     ....       5.322 sec  ( 94.0%)

Fock matrix formation       ....       3.956 sec  ( 69.9%)
  XC integration            ....       1.149 sec  ( 29.0% of F)
    Basis function eval.    ....       0.263 sec  ( 22.9% of XC)
    Density eval.           ....       0.155 sec  ( 13.5% of XC)
    XC-Functional eval.     ....       0.401 sec  ( 34.9% of XC)
    XC-Potential eval.      ....       0.142 sec  ( 12.4% of XC)
Diagonalization             ....       0.003 sec  (  0.0%)
Density matrix formation    ....       0.003 sec  (  0.0%)
Population analysis         ....       0.013 sec  (  0.2%)
Initial guess               ....       0.003 sec  (  0.1%)
Orbital Transformation      ....       0.000 sec  (  0.0%)
Orbital Orthonormalization  ....       0.002 sec  (  0.0%)
DIIS solution               ....       0.000 sec  (  0.0%)
SOSCF solution              ....       0.009 sec  (  0.2%)
Grid generation             ....       1.335 sec  ( 23.6%)


-------------------------------------------------------------------------------
                          DFT DISPERSION CORRECTION                            
                                                                               
                              DFTD3 V3.1  Rev 1                                
                              USING zero damping                               
-------------------------------------------------------------------------------
The omegaB97X-D3 functional is recognized. Fit by Chai et al.
Active option DFTDOPT                   ...         3   

molecular C6(AA) [au] = 208.714646 


            DFT-D V3
 parameters
 s6 scaling factor         :     1.0000 
 rs6 scaling factor        :     1.2810 
 s8 scaling factor         :     1.0000 
 rs8 scaling factor        :     1.0940 
 Damping factor alpha6     :    14.0000 
 Damping factor alpha8     :    16.0000 
 ad hoc parameters k1-k3   :    16.0000     1.3333    -4.0000 

 Edisp/kcal,au: -0.149881305256  -0.000238851038 
 E6   /kcal   :  -0.029520125 
 E8   /kcal   :  -0.120361180 
 % E8         :  80.304331522 

-------------------------   ----------------
Dispersion correction           -0.000238851
-------------------------   ----------------


-------------------------   --------------------
FINAL SINGLE POINT ENERGY      -115.738050362286
-------------------------   --------------------

                                *** OPTIMIZATION RUN DONE ***

                            ***************************************
                            *     ORCA property calculations      *
                            ***************************************

                                    ---------------------
                                    Active property flags
                                    ---------------------
   (+) Dipole Moment


------------------------------------------------------------------------------
                       ORCA ELECTRIC PROPERTIES CALCULATION
------------------------------------------------------------------------------

Dipole Moment Calculation                       ... on
Quadrupole Moment Calculation                   ... off
Polarizability Calculation                      ... off
GBWName                                         ... 7_geo_opt.gbw
Electron density file                           ... 7_geo_opt.scfp.tmp
The origin for moment calculation is the CENTER OF MASS  = ( 7.033726, -2.139634  1.369060)

-------------
DIPOLE MOMENT
-------------
                                X             Y             Z
Electronic contribution:      1.75695      -0.02916       0.42068
Nuclear contribution   :     -2.06838       0.47686      -0.81874
                        -----------------------------------------
Total Dipole Moment    :     -0.31143       0.44769      -0.39806
                        -----------------------------------------
Magnitude (a.u.)       :      0.67518
Magnitude (Debye)      :      1.71618



--------------------
Rotational spectrum 
--------------------
 
Rotational constants in cm-1:     4.290840     0.833824     0.804920 
Rotational constants in MHz : 128636.148064 24997.400145 24130.898896 

 Dipole components along the rotational axes: 
x,y,z [a.u.] :    -0.334777     0.586342    -0.000006 
x,y,z [Debye]:    -0.850936     1.490363    -0.000016 

 
------------------------------------------------------------------------------
                      ORCA CHELPG CHARGES GENERATION
------------------------------------------------------------------------------

GBW file                           ... 7_geo_opt.gbw

Reading the GBW file               ... done

Grid spacing                       ...     0.300000
Point Cut-Off                      ...     2.800000
Van-der-Waals Radii                ...        COSMO
Total charge                       ...            0


Number of points X direction       ...           26
Number of points Y direction       ...           24
Number of points Z direction       ...           24
Maximum number of possible points  ...        14976
Final number of points             ...         5946


CHELPG Charges            
--------------------------------
  0   C   :       0.092122
  1   O   :      -0.605836
  2   H   :       0.403410
  3   H   :       0.014786
  4   H   :       0.081337
  5   H   :       0.014181
--------------------------------
Total charge:    -0.000000
--------------------------------

CHELPG charges calculated...

Timings for individual parts in CHELPG calculation:
Grid generation                 ...        0.002 sec (=   0.000 min)
Potential calculation           ...        0.765 sec (=   0.013 min)
Fit to the potential            ...        0.001 sec (=   0.000 min)
------------------------------------------------------------------------------


Timings for individual modules:

Sum of individual times         ...       41.189 sec (=   0.686 min)
GTO integral calculation        ...        6.552 sec (=   0.109 min)  15.9 %
SCF iterations                  ...       24.039 sec (=   0.401 min)  58.4 %
SCF Gradient evaluation         ...        6.559 sec (=   0.109 min)  15.9 %
Geometry relaxation             ...        3.215 sec (=   0.054 min)   7.8 %
CHELPG charge generation        ...        0.825 sec (=   0.014 min)   2.0 %
                             ****ORCA TERMINATED NORMALLY****
TOTAL RUN TIME: 0 days 0 hours 0 minutes 42 seconds 527 msec
