
                                 *****************
                                 * O   R   C   A *
                                 *****************

           --- An Ab Initio, DFT and Semiempirical electronic structure package ---

                  #######################################################
                  #                        -***-                        #
                  #          Department of theory and spectroscopy      #
                  #               Directorship: Frank Neese             #
                  #        Max Planck Institute fuer Kohlenforschung    #
                  #                Kaiser Wilhelm Platz 1               #
                  #                 D-45470 Muelheim/Ruhr               #
                  #                      Germany                        #
                  #                                                     #
                  #                  All rights reserved                #
                  #                        -***-                        #
                  #######################################################


                         Program Version 4.1.2  - RELEASE  -


 With contributions from (in alphabetic order):
   Daniel Aravena         : Magnetic Properties
   Michael Atanasov       : Ab Initio Ligand Field Theory
   Alexander A. Auer      : GIAO ZORA
   Ute Becker             : Parallelization
   Giovanni Bistoni       : ED, Open-shell LED
   Martin Brehm           : Molecular dynamics
   Dmytro Bykov           : SCF Hessian
   Vijay G. Chilkuri      : MRCI spin determinant printing
   Dipayan Datta          : RHF DLPNO-CCSD density
   Achintya Kumar Dutta   : EOM-CC, STEOM-CC
   Dmitry Ganyushin       : Spin-Orbit,Spin-Spin,Magnetic field MRCI
   Miquel Garcia          : C-PCM Hessian
   Yang Guo               : DLPNO-NEVPT2, CIM, IAO-localization
   Andreas Hansen         : Spin unrestricted coupled pair/coupled cluster methods
   Benjamin Helmich-Paris : CASSCF linear response (MC-RPA)
   Lee Huntington         : MR-EOM, pCC
   Robert Izsak           : Overlap fitted RIJCOSX, COSX-SCS-MP3, EOM
   Christian Kollmar      : KDIIS, OOCD, Brueckner-CCSD(T), CCSD density
   Simone Kossmann        : Meta GGA functionals, TD-DFT gradient, OOMP2, MP2 Hessian
   Martin Krupicka        : AUTO-CI
   Lucas Lang             : DCDCAS
   Dagmar Lenk            : GEPOL surface, SMD
   Dimitrios Liakos       : Extrapolation schemes; parallel MDCI
   Dimitrios Manganas     : ROCIS; embedding schemes
   Dimitrios Pantazis     : SARC Basis sets
   Taras Petrenko         : DFT Hessian,TD-DFT gradient, ASA, ECA, R-Raman, ABS, FL, XAS/XES, NRVS
   Peter Pinski           : DLPNO-MP2, DLPNO-MP2 Gradient
   Christoph Reimann      : Effective Core Potentials
   Marius Retegan         : Local ZFS, SOC
   Christoph Riplinger    : Optimizer, TS searches, QM/MM, DLPNO-CCSD(T), (RO)-DLPNO pert. Triples
   Tobias Risthaus        : Range-separated hybrids, TD-DFT gradient, RPA, STAB
   Michael Roemelt        : Restricted open shell CIS
   Masaaki Saitow         : Open-shell DLPNO
   Barbara Sandhoefer     : DKH picture change effects
   Avijit Sen             : IP-ROCIS
   Kantharuban Sivalingam : CASSCF convergence, NEVPT2, FIC-MRCI
   Bernardo de Souza      : ESD, SOC TD-DFT
   Georgi Stoychev        : AutoAux, RI-MP2 NMR
   Willem Van den Heuvel  : Paramagnetic NMR
   Boris Wezisla          : Elementary symmetry handling
   Frank Wennmohs         : Technical directorship


 We gratefully acknowledge several colleagues who have allowed us to
 interface, adapt or use parts of their codes:
   Stefan Grimme, W. Hujo, H. Kruse,             : VdW corrections, initial TS optimization,
                  C. Bannwarth                     DFT functionals, gCP, sTDA/sTD-DF
   Ed Valeev                                     : LibInt (2-el integral package), F12 methods
   Garnet Chan, S. Sharma, J. Yang, R. Olivares  : DMRG
   Ulf Ekstrom                                   : XCFun DFT Library
   Mihaly Kallay                                 : mrcc  (arbitrary order and MRCC methods)
   Andreas Klamt, Michael Diedenhofen            : otool_cosmo (COSMO solvation model)
   Jiri Pittner, Ondrej Demel                    : Mk-CCSD
   Frank Weinhold                                : gennbo (NPA and NBO analysis)
   Christopher J. Cramer and Donald G. Truhlar   : smd solvation model
   Lars Goerigk                                  : TD-DFT with DH, B97 family of functionals
   V. Asgeirsson, H. Jonsson                     : NEB implementation
   FAccTs GmbH                                   : IRC, NEB, NEB-TS, Multilevel


 Your calculation uses the libint2 library for the computation of 2-el integrals
 For citations please refer to: http://libint.valeyev.net

 This ORCA versions uses:
   CBLAS   interface :  Fast vector & matrix operations
   LAPACKE interface :  Fast linear algebra routines
   SCALAPACK package :  Parallel linear algebra routines


Your calculation utilizes the atom-pairwise dispersion correction
with the zero-damping scheme (D30)
Cite in your paper:
S.Grimme, J.Antony, S.Ehrlich and H.Krieg, J.Chem.Phys., 132, (2010), 154104 
   

XCFun DFT library Copyright 2009-2010 Ulf Ekstrom and contributors.
See http://admol.org/xcfun for more information. This is free soft-
ware; see the source code for copying conditions. There is ABSOLUTELY
NO WARRANTY; not even for MERCHANTABILITY or FITNESS FOR A PARTICULAR
PURPOSE. For details see the documentation. Scientific users of this 
library should cite U. Ekstrom, L. Visscher, R. Bast, A. J. Thorvald-
sen and K. Ruud; J.Chem.Theor.Comp. 2010, DOI: 10.1021/ct100117s
XCFun Version 0.99 
----- Orbital basis set information -----
Your calculation utilizes the basis: def2-TZVP
   F. Weigend and R. Ahlrichs, Phys. Chem. Chem. Phys. 7, 3297 (2005).

================================================================================
                                        WARNINGS
                       Please study these warnings very carefully!
================================================================================


WARNING: Geometry Optimization
  ===> : Switching off AutoStart
         For restart on a previous wavefunction, please use MOREAD

INFO   : the flag for use of LIBINT has been found!

================================================================================
                                       INPUT FILE
================================================================================
NAME = bonds_angles_[1[8[6]]]-[8[6[1][1][1]][1]]_0.in
|  1> #Run DFT geometry optimization
|  2> ! wB97X-D3 def2-TZVP TIGHTSCF Grid5 FinalGrid6 Opt CHELPG PAL4
|  3> 
|  4> %base "0_geo_opt"
|  5> %geom MaxIter 500
|  6> end
|  7> 
|  8> %geom
|  9>   Constraints
| 10>     { B 2 1 C }
| 11>   end
| 12> end
| 13> 
| 14> 
| 15> * xyz 0 1
| 16>   C                    3.011110             -1.181288            0.598733            
| 17>   O                    4.394476             -1.128441            0.874549            
| 18>   H                    4.772393             -0.378631            0.412252            
| 19>   H                    2.806237             -1.319356            -0.469109           
| 20>   H                    2.611435             -2.040656            1.136140            
| 21>   H                    2.484560             -0.284882            0.945900            
| 22> *
| 23> 
| 24>                          ****END OF INPUT****
================================================================================

                       *****************************
                       * Geometry Optimization Run *
                       *****************************

Geometry optimization settings:
Update method            Update   .... BFGS
Choice of coordinates    CoordSys .... Z-matrix Internals
Initial Hessian          InHess   .... Almoef's Model

Convergence Tolerances:
Energy Change            TolE     ....  5.0000e-06 Eh
Max. Gradient            TolMAXG  ....  3.0000e-04 Eh/bohr
RMS Gradient             TolRMSG  ....  1.0000e-04 Eh/bohr
Max. Displacement        TolMAXD  ....  4.0000e-03 bohr
RMS Displacement         TolRMSD  ....  2.0000e-03 bohr

------------------------------------------------------------------------------
                        ORCA OPTIMIZATION COORDINATE SETUP
------------------------------------------------------------------------------

The optimization will be done in new redundant internal coordinates
Making redundant internal coordinates   ...  (new redundants) done
Evaluating the initial hessian          ...  (Almloef) done
Evaluating the coordinates              ...  done
Calculating the B-matrix                .... done
Calculating the G-matrix                .... done
Diagonalizing the G-matrix              .... done
Imposing constraints:
 Iter   0:  RMS(Cart)=    0.0000000000 RMS(Int)=    0.0000000000
CONVERGED
The first mode is                       ....    3
The number of degrees of freedom        ....   12
Storing new coordinates                 .... done

    -----------------------------------------------------------------
                    Redundant Internal Coordinates


    -----------------------------------------------------------------
         Definition                    Initial Value    Approx d2E/dq
    -----------------------------------------------------------------
      1. B(O   1,C   0)                  1.4116         0.516940   
      2. B(H   2,O   1)                  0.9585         0.522797 C 
      3. B(H   3,C   0)                  1.0960         0.352187   
      4. B(H   4,C   0)                  1.0895         0.360732   
      5. B(H   5,C   0)                  1.0960         0.352186   
      6. A(O   1,C   0,H   4)          107.0169         0.340286   
      7. A(O   1,C   0,H   3)          112.2263         0.338926   
      8. A(O   1,C   0,H   5)          112.2281         0.338926   
      9. A(H   3,C   0,H   5)          108.7730         0.288819   
     10. A(H   4,C   0,H   5)          108.2173         0.289906   
     11. A(H   3,C   0,H   4)          108.2177         0.289907   
     12. A(C   0,O   1,H   2)          108.7499         0.359117   
     13. D(H   2,O   1,C   0,H   5)    -61.4304         0.021176   
     14. D(H   2,O   1,C   0,H   3)     61.4271         0.021176   
     15. D(H   2,O   1,C   0,H   4)    179.9981         0.021176   
    -----------------------------------------------------------------

Number of atoms                         .... 6
Number of degrees of freedom            .... 15

         *************************************************************
         *                GEOMETRY OPTIMIZATION CYCLE   1            *
         *************************************************************
---------------------------------
CARTESIAN COORDINATES (ANGSTROEM)
---------------------------------
  C      3.011110   -1.181288    0.598733
  O      4.394476   -1.128441    0.874549
  H      4.772393   -0.378631    0.412252
  H      2.806237   -1.319356   -0.469109
  H      2.611435   -2.040656    1.136140
  H      2.484560   -0.284882    0.945900

----------------------------
CARTESIAN COORDINATES (A.U.)
----------------------------
  NO LB      ZA    FRAG     MASS         X           Y           Z
   0 C     6.0000    0    12.011    5.690173   -2.232311    1.131441
   1 O     8.0000    0    15.999    8.304356   -2.132444    1.652658
   2 H     1.0000    0     1.008    9.018516   -0.715509    0.779043
   3 H     1.0000    0     1.008    5.303019   -2.493222   -0.886488
   4 H     1.0000    0     1.008    4.934897   -3.856281    2.146993
   5 H     1.0000    0     1.008    4.695138   -0.538349    1.787492

--------------------------------
INTERNAL COORDINATES (ANGSTROEM)
--------------------------------
 C      0   0   0     0.000000000000     0.00000000     0.00000000
 O      1   0   0     1.411583777613     0.00000000     0.00000000
 H      2   1   0     0.958516985347   108.74989018     0.00000000
 H      1   2   3     1.096048473252   112.22628004    61.42709618
 H      1   2   3     1.089522716008   107.01685179   179.99806638
 H      1   2   3     1.096049061505   112.22810992   298.56956645

---------------------------
INTERNAL COORDINATES (A.U.)
---------------------------
 C      0   0   0     0.000000000000     0.00000000     0.00000000
 O      1   0   0     2.667506754775     0.00000000     0.00000000
 H      2   1   0     1.811334597017   108.74989018     0.00000000
 H      1   2   3     2.071231443948   112.22628004    61.42709618
 H      1   2   3     2.058899549942   107.01685179   179.99806638
 H      1   2   3     2.071232555585   112.22810992   298.56956645

---------------------
BASIS SET INFORMATION
---------------------
There are 3 groups of distinct atoms

 Group   1 Type C   : 11s6p2d1f contracted to 5s3p2d1f pattern {62111/411/11/1}
 Group   2 Type O   : 11s6p2d1f contracted to 5s3p2d1f pattern {62111/411/11/1}
 Group   3 Type H   : 5s1p contracted to 3s1p pattern {311/1}

Atom   0C    basis set group =>   1
Atom   1O    basis set group =>   2
Atom   2H    basis set group =>   3
Atom   3H    basis set group =>   3
Atom   4H    basis set group =>   3
Atom   5H    basis set group =>   3


           ************************************************************
           *        Program running with 4 parallel MPI-processes     *
           *              working on a common directory               *
           ************************************************************
------------------------------------------------------------------------------
                           ORCA GTO INTEGRAL CALCULATION
------------------------------------------------------------------------------

                         BASIS SET STATISTICS AND STARTUP INFO

 # of primitive gaussian shells          ...   64
 # of primitive gaussian functions       ...  124
 # of contracted shells                  ...   38
 # of contracted basis functions         ...   86
 Highest angular momentum                ...    3
 Maximum contraction depth               ...    6
 Integral package used                   ... LIBINT
 Integral threshhold            Thresh   ...  2.500e-11
 Primitive cut-off              TCut     ...  2.500e-12


------------------------------ INTEGRAL EVALUATION ----------------------------


 * One electron integrals 
 Pre-screening matrix                    ... done
 Shell pair data                         ... done (   0.000 sec)



           ************************************************************
           *        Program running with 4 parallel MPI-processes     *
           *              working on a common directory               *
           ************************************************************
-------------------------------------------------------------------------------
                                 ORCA SCF
-------------------------------------------------------------------------------

------------
SCF SETTINGS
------------
Hamiltonian:
 Density Functional     Method          .... DFT(GTOs)
 Exchange Functional    Exchange        .... WB97X-D3
 Correlation Functional Correlation     .... WB97X-D3
 Gradients option       PostSCFGGA      .... off
 Hybrid DFT is turned on
   Fraction HF Exchange ScalHFX         ....  0.195728
   Scaling of DF-GGA-X  ScalDFX         ....  0.000000
   Scaling of DF-GGA-C  ScalDFC         ....  1.000000
   Scaling of DF-LDA-C  ScalLDAC        ....  1.000000
   Perturbative correction              ....  0.000000
   Density functional embedding theory  .... OFF
 Long-range corrected/Screened/Range-Separated Hybrid DFT is turned on
   Amount of maximum screened exact exchange              ....  0.804272
   Range separation parameter mu (erf(mu*r12)/r12)        ....  0.250000


General Settings:
 Integral files         IntName         .... 0_geo_opt
 Hartree-Fock type      HFTyp           .... RHF
 Total Charge           Charge          ....    0
 Multiplicity           Mult            ....    1
 Number of Electrons    NEL             ....   18
 Basis Dimension        Dim             ....   86
 Nuclear Repulsion      ENuc            ....     40.4327951224 Eh

Convergence Acceleration:
 DIIS                   CNVDIIS         .... on
   Start iteration      DIISMaxIt       ....    12
   Startup error        DIISStart       ....  0.200000
   # of expansion vecs  DIISMaxEq       ....     5
   Bias factor          DIISBfac        ....   1.050
   Max. coefficient     DIISMaxC        ....  10.000
 Newton-Raphson         CNVNR           .... off
 SOSCF                  CNVSOSCF        .... on
   Start iteration      SOSCFMaxIt      ....   150
   Startup grad/error   SOSCFStart      ....  0.003300
 Level Shifting         CNVShift        .... on
   Level shift para.    LevelShift      ....    0.2500
   Turn off err/grad.   ShiftErr        ....    0.0010
 Zerner damping         CNVZerner       .... off
 Static damping         CNVDamp         .... on
   Fraction old density DampFac         ....    0.7000
   Max. Damping (<1)    DampMax         ....    0.9800
   Min. Damping (>=0)   DampMin         ....    0.0000
   Turn off err/grad.   DampErr         ....    0.1000
 Fernandez-Rico         CNVRico         .... off

SCF Procedure:
 Maximum # iterations   MaxIter         ....   125
 SCF integral mode      SCFMode         .... Direct
   Integral package                     .... LIBINT
 Reset frequency        DirectResetFreq ....    20
 Integral Threshold     Thresh          ....  2.500e-11 Eh
 Primitive CutOff       TCut            ....  2.500e-12 Eh

Convergence Tolerance:
 Convergence Check Mode ConvCheckMode   .... Total+1el-Energy
 Convergence forced     ConvForced      .... 0
 Energy Change          TolE            ....  1.000e-08 Eh
 1-El. energy change                    ....  1.000e-05 Eh
 Orbital Gradient       TolG            ....  1.000e-05
 Orbital Rotation angle TolX            ....  1.000e-05
 DIIS Error             TolErr          ....  5.000e-07


Diagonalization of the overlap matrix:
Smallest eigenvalue                        ... 1.650e-03
Time for diagonalization                   ...    0.002 sec
Threshold for overlap eigenvalues          ... 1.000e-08
Number of eigenvalues below threshold      ... 0
Time for construction of square roots      ...    0.004 sec
Total time needed                          ...    0.006 sec

-------------------
DFT GRID GENERATION
-------------------

General Integration Accuracy     IntAcc      ...  5.010
Radial Grid Type                 RadialGrid  ... Gauss-Chebyshev
Angular Grid (max. acc.)         AngularGrid ... Lebedev-434
Angular grid pruning method      GridPruning ... 3 (G Style)
Weight generation scheme         WeightScheme... Becke
Basis function cutoff            BFCut       ...    1.0000e-11
Integration weight cutoff        WCut        ...    1.0000e-14
Grids for H and He will be reduced by one unit

# of grid points (after initial pruning)     ...  48308 (   0.0 sec)
# of grid points (after weights+screening)   ...  46677 (   0.0 sec)
nearest neighbour list constructed           ...    0.0 sec
Grid point re-assignment to atoms done       ...    0.0 sec
Grid point division into batches done        ...    0.3 sec
Reduced shell lists constructed in    0.3 sec

Total number of grid points                  ...    46677
Total number of batches                      ...      733
Average number of points per batch           ...       63
Average number of grid points per atom       ...     7780
Average number of shells per batch           ...    33.11 (87.14%)
Average number of basis functions per batch  ...    76.75 (89.24%)
Average number of large shells per batch     ...    30.57 (92.31%)
Average number of large basis fcns per batch ...    72.11 (93.96%)
Maximum spatial batch extension              ...  15.77, 14.99, 16.58 au
Average spatial batch extension              ...   0.41,  0.41,  0.43 au

Time for grid setup =    0.388 sec

------------------------------
INITIAL GUESS: MODEL POTENTIAL
------------------------------
Loading Hartree-Fock densities                     ... done
Calculating cut-offs                               ... done
Setting up the integral package                    ... done
Initializing the effective Hamiltonian             ... done
Starting the Coulomb interaction                   ... done (   0.0 sec)
Reading the grid                                   ... done
Mapping shells                                     ... done
Starting the XC term evaluation                    ... done (   0.1 sec)
  promolecular density results
     # of electrons  =     17.998045176
     EX              =    -14.430059751
     EC              =     -0.575097911
     EX+EC           =    -15.005157661
Transforming the Hamiltonian                       ... done (   0.0 sec)
Diagonalizing the Hamiltonian                      ... done (   0.0 sec)
Back transforming the eigenvectors                 ... done (   0.0 sec)
Now organizing SCF variables                       ... done
                      ------------------
                      INITIAL GUESS DONE (   0.6 sec)
                      ------------------
--------------
SCF ITERATIONS
--------------
ITER       Energy         Delta-E        Max-DP      RMS-DP      [F,P]     Damp
               ***  Starting incremental Fock matrix formation  ***
  0   -115.6512251010   0.000000000000 0.03694780  0.00147454  0.2522928 0.7000
  1   -115.6882869511  -0.037061850103 0.02202719  0.00104073  0.1262044 0.7000
                               ***Turning on DIIS***
  2   -115.7053470017  -0.017060050637 0.03156046  0.00188090  0.0490645 0.0000
  3   -115.7330760250  -0.027729023267 0.01773498  0.00068032  0.0611075 0.0000
  4   -115.7376002376  -0.004524212573 0.00406411  0.00013182  0.0065644 0.0000
                      *** Initiating the SOSCF procedure ***
                           *** Shutting down DIIS ***
                      *** Re-Reading the Fockian *** 
                      *** Removing any level shift *** 
ITER      Energy       Delta-E        Grad      Rot      Max-DP    RMS-DP
  5   -115.73769448  -0.0000942456  0.000490  0.000490  0.000679  0.000043
               *** Restarting incremental Fock matrix formation ***
  6   -115.73770263  -0.0000081507  0.000152  0.000202  0.000489  0.000026
  7   -115.73770336  -0.0000007223  0.000056  0.000109  0.000208  0.000011
  8   -115.73770341  -0.0000000574  0.000020  0.000017  0.000030  0.000001
  9   -115.73770342  -0.0000000056  0.000011  0.000008  0.000015  0.000001
 10   -115.73770342  -0.0000000015  0.000003  0.000003  0.000003  0.000000
                  ***Gradient check signals convergence***
              ***Rediagonalizing the Fockian in SOSCF/NRSCF***

               *****************************************************
               *                     SUCCESS                       *
               *           SCF CONVERGED AFTER  11 CYCLES          *
               *****************************************************

Setting up the final grid:

General Integration Accuracy     IntAcc      ...  5.340
Radial Grid Type                 RadialGrid  ... Gauss-Chebyshev
Angular Grid (max. acc.)         AngularGrid ... Lebedev-590
Angular grid pruning method      GridPruning ... 3 (G Style)
Weight generation scheme         WeightScheme... Becke
Basis function cutoff            BFCut       ...    1.0000e-11
Integration weight cutoff        WCut        ...    1.0000e-14
Grids for H and He will be reduced by one unit

# of grid points (after initial pruning)     ...  77324 (   0.0 sec)
# of grid points (after weights+screening)   ...  74512 (   0.0 sec)
nearest neighbour list constructed           ...    0.0 sec
Grid point re-assignment to atoms done       ...    0.0 sec
Grid point division into batches done        ...    0.8 sec
Reduced shell lists constructed in    0.8 sec

Total number of grid points                  ...    74512
Total number of batches                      ...     1167
Average number of points per batch           ...       63
Average number of grid points per atom       ...    12419
Average number of shells per batch           ...    32.92 (86.64%)
Average number of basis functions per batch  ...    76.34 (88.77%)
Average number of large shells per batch     ...    30.32 (92.09%)
Average number of large basis fcns per batch ...    71.53 (93.69%)
Maximum spatial batch extension              ...  13.18, 14.25, 15.48 au
Average spatial batch extension              ...   0.34,  0.36,  0.37 au

Final grid set up in    0.9 sec
Final integration                            ... done (   0.2 sec)
Change in XC energy                          ...    -0.000107560
Integrated number of electrons               ...    18.000000746
Previous integrated no of electrons          ...    18.000002278

----------------
TOTAL SCF ENERGY
----------------

Total Energy       :         -115.73781098 Eh           -3149.38595 eV

Components:
Nuclear Repulsion  :           40.43279512 Eh            1100.23229 eV
Electronic Energy  :         -156.17060610 Eh           -4249.61824 eV
One Electron Energy:         -237.28597687 Eh           -6456.87969 eV
Two Electron Energy:           81.11537076 Eh            2207.26145 eV

Virial components:
Potential Energy   :         -230.98657065 Eh           -6285.46413 eV
Kinetic Energy     :          115.24875967 Eh            3136.07819 eV
Virial Ratio       :            2.00424344


DFT components:
N(Alpha)           :        9.000000373114 electrons
N(Beta)            :        9.000000373114 electrons
N(Total)           :       18.000000746228 electrons
E(XC)              :      -10.655238336910 Eh       
DFET-embed. en.    :        0.000000000000 Eh       

---------------
SCF CONVERGENCE
---------------

  Last Energy change         ...   -7.7961e-11  Tolerance :   1.0000e-08
  Last MAX-Density change    ...    1.8660e-06  Tolerance :   1.0000e-07
  Last RMS-Density change    ...    7.8240e-08  Tolerance :   5.0000e-09
  Last Orbital Gradient      ...    1.3501e-06  Tolerance :   1.0000e-05
  Last Orbital Rotation      ...    7.8070e-07  Tolerance :   1.0000e-05

             **** THE GBW FILE WAS UPDATED (0_geo_opt.gbw) ****
             **** DENSITY FILE WAS UPDATED (0_geo_opt.scfp.tmp) ****
             **** ENERGY FILE WAS UPDATED (0_geo_opt.en.tmp) ****
----------------
ORBITAL ENERGIES
----------------

  NO   OCC          E(Eh)            E(eV) 
   0   2.0000     -19.228174      -523.2252 
   1   2.0000     -10.315105      -280.6883 
   2   2.0000      -1.136605       -30.9286 
   3   2.0000      -0.795248       -21.6398 
   4   2.0000      -0.611476       -16.6391 
   5   2.0000      -0.541756       -14.7419 
   6   2.0000      -0.526293       -14.3212 
   7   2.0000      -0.433757       -11.8031 
   8   2.0000      -0.373574       -10.1655 
   9   0.0000       0.116535         3.1711 
  10   0.0000       0.156634         4.2622 
  11   0.0000       0.202564         5.5120 
  12   0.0000       0.205119         5.5816 
  13   0.0000       0.226333         6.1588 
  14   0.0000       0.304332         8.2813 
  15   0.0000       0.313369         8.5272 
  16   0.0000       0.404490        11.0067 
  17   0.0000       0.452617        12.3163 
  18   0.0000       0.484679        13.1888 
  19   0.0000       0.535853        14.5813 
  20   0.0000       0.543601        14.7921 
  21   0.0000       0.567559        15.4441 
  22   0.0000       0.598563        16.2877 
  23   0.0000       0.603508        16.4223 
  24   0.0000       0.671166        18.2634 
  25   0.0000       0.779025        21.1983 
  26   0.0000       0.832190        22.6450 
  27   0.0000       0.861336        23.4381 
  28   0.0000       0.989572        26.9276 
  29   0.0000       1.013895        27.5895 
  30   0.0000       1.109773        30.1985 
  31   0.0000       1.382494        37.6196 
  32   0.0000       1.512825        41.1661 
  33   0.0000       1.553510        42.2731 
  34   0.0000       1.602776        43.6138 
  35   0.0000       1.613015        43.8924 
  36   0.0000       1.624162        44.1957 
  37   0.0000       1.660774        45.1920 
  38   0.0000       1.687999        45.9328 
  39   0.0000       1.774744        48.2932 
  40   0.0000       1.951988        53.1163 
  41   0.0000       2.030453        55.2514 
  42   0.0000       2.055207        55.9250 
  43   0.0000       2.094187        56.9857 
  44   0.0000       2.114559        57.5401 
  45   0.0000       2.268128        61.7189 
  46   0.0000       2.333595        63.5003 
  47   0.0000       2.345553        63.8257 
  48   0.0000       2.380820        64.7854 
  49   0.0000       2.429401        66.1074 
  50   0.0000       2.497637        67.9642 
  51   0.0000       2.596035        70.6417 
  52   0.0000       2.639864        71.8344 
  53   0.0000       2.706307        73.6423 
  54   0.0000       2.841415        77.3188 
  55   0.0000       2.871246        78.1306 
  56   0.0000       2.888143        78.5904 
  57   0.0000       2.992784        81.4378 
  58   0.0000       3.096062        84.2481 
  59   0.0000       3.172847        86.3376 
  60   0.0000       3.299229        89.7766 
  61   0.0000       3.408358        92.7461 
  62   0.0000       3.441497        93.6479 
  63   0.0000       3.488303        94.9216 
  64   0.0000       3.612595        98.3037 
  65   0.0000       3.645249        99.1923 
  66   0.0000       3.666932        99.7823 
  67   0.0000       4.004361       108.9642 
  68   0.0000       4.223787       114.9351 
  69   0.0000       4.273306       116.2826 
  70   0.0000       4.455694       121.2456 
  71   0.0000       4.564266       124.2000 
  72   0.0000       5.346060       145.4737 
  73   0.0000       5.425166       147.6263 
  74   0.0000       5.553621       151.1217 
  75   0.0000       5.826161       158.5379 
  76   0.0000       5.833827       158.7465 
  77   0.0000       5.985093       162.8627 
  78   0.0000       6.376653       173.5176 
  79   0.0000       6.530790       177.7118 
  80   0.0000       6.744549       183.5285 
  81   0.0000       6.804035       185.1472 
  82   0.0000       7.039324       191.5497 
  83   0.0000       7.214902       196.3275 
  84   0.0000      22.406116       609.7014 
  85   0.0000      43.664555      1188.1729 

                    ********************************
                    * MULLIKEN POPULATION ANALYSIS *
                    ********************************

-----------------------
MULLIKEN ATOMIC CHARGES
-----------------------
   0 C :   -0.150834
   1 O :   -0.477777
   2 H :    0.313139
   3 H :    0.098624
   4 H :    0.118221
   5 H :    0.098628
Sum of atomic charges:   -0.0000000

--------------------------------
MULLIKEN REDUCED ORBITAL CHARGES
--------------------------------
  0 C s       :     3.223096  s :     3.223096
      pz      :     1.047259  p :     2.826060
      px      :     0.702174
      py      :     1.076627
      dz2     :     0.011110  d :     0.094259
      dxz     :     0.032494
      dyz     :     0.002646
      dx2y2   :     0.012743
      dxy     :     0.035264
      f0      :     0.001356  f :     0.007419
      f+1     :     0.000956
      f-1     :     0.000175
      f+2     :     0.001464
      f-2     :     0.000123
      f+3     :     0.001361
      f-3     :     0.001985
  1 O s       :     3.793029  s :     3.793029
      pz      :     1.759371  p :     4.652486
      px      :     1.313654
      py      :     1.579462
      dz2     :     0.003135  d :     0.030579
      dxz     :     0.006477
      dyz     :     0.005835
      dx2y2   :     0.008939
      dxy     :     0.006192
      f0      :     0.000269  f :     0.001683
      f+1     :     0.000233
      f-1     :     0.000087
      f+2     :     0.000287
      f-2     :     0.000234
      f+3     :     0.000367
      f-3     :     0.000206
  2 H s       :     0.639294  s :     0.639294
      pz      :     0.016959  p :     0.047568
      px      :     0.012685
      py      :     0.017924
  3 H s       :     0.882011  s :     0.882011
      pz      :     0.012072  p :     0.019365
      px      :     0.003007
      py      :     0.004285
  4 H s       :     0.861560  s :     0.861560
      pz      :     0.006297  p :     0.020219
      px      :     0.004194
      py      :     0.009729
  5 H s       :     0.882008  s :     0.882008
      pz      :     0.004929  p :     0.019364
      px      :     0.004977
      py      :     0.009458


                     *******************************
                     * LOEWDIN POPULATION ANALYSIS *
                     *******************************

----------------------
LOEWDIN ATOMIC CHARGES
----------------------
   0 C :   -0.385271
   1 O :   -0.076592
   2 H :    0.166408
   3 H :    0.093387
   4 H :    0.108684
   5 H :    0.093385

-------------------------------
LOEWDIN REDUCED ORBITAL CHARGES
-------------------------------
  0 C s       :     2.862963  s :     2.862963
      pz      :     1.096643  p :     3.052287
      px      :     0.846098
      py      :     1.109546
      dz2     :     0.072423  d :     0.413000
      dxz     :     0.114046
      dyz     :     0.020711
      dx2y2   :     0.082168
      dxy     :     0.123651
      f0      :     0.007821  f :     0.057021
      f+1     :     0.007164
      f-1     :     0.000854
      f+2     :     0.012526
      f-2     :     0.004830
      f+3     :     0.011736
      f-3     :     0.012089
  1 O s       :     3.366827  s :     3.366827
      pz      :     1.699053  p :     4.633576
      px      :     1.381305
      py      :     1.553219
      dz2     :     0.006131  d :     0.071549
      dxz     :     0.017863
      dyz     :     0.008079
      dx2y2   :     0.019333
      dxy     :     0.020143
      f0      :     0.000483  f :     0.004640
      f+1     :     0.000623
      f-1     :     0.000072
      f+2     :     0.001049
      f-2     :     0.000558
      f+3     :     0.000889
      f-3     :     0.000966
  2 H s       :     0.674973  s :     0.674973
      pz      :     0.055577  p :     0.158620
      px      :     0.033781
      py      :     0.069262
  3 H s       :     0.846789  s :     0.846789
      pz      :     0.036182  p :     0.059824
      px      :     0.009713
      py      :     0.013928
  4 H s       :     0.831721  s :     0.831721
      pz      :     0.019211  p :     0.059596
      px      :     0.011610
      py      :     0.028775
  5 H s       :     0.846791  s :     0.846791
      pz      :     0.015605  p :     0.059824
      px      :     0.015202
      py      :     0.029016


                      *****************************
                      * MAYER POPULATION ANALYSIS *
                      *****************************

  NA   - Mulliken gross atomic population
  ZA   - Total nuclear charge
  QA   - Mulliken gross atomic charge
  VA   - Mayer's total valence
  BVA  - Mayer's bonded valence
  FA   - Mayer's free valence

  ATOM       NA         ZA         QA         VA         BVA        FA
  0 C      6.1508     6.0000    -0.1508     3.9350     3.9350    -0.0000
  1 O      8.4778     8.0000    -0.4778     1.8879     1.8879    -0.0000
  2 H      0.6869     1.0000     0.3131     0.9134     0.9134     0.0000
  3 H      0.9014     1.0000     0.0986     0.9596     0.9596    -0.0000
  4 H      0.8818     1.0000     0.1182     0.9598     0.9598     0.0000
  5 H      0.9014     1.0000     0.0986     0.9596     0.9596    -0.0000

  Mayer bond orders larger than 0.1
B(  0-C ,  1-O ) :   0.9987 B(  0-C ,  3-H ) :   0.9755 B(  0-C ,  4-H ) :   0.9749 
B(  0-C ,  5-H ) :   0.9755 B(  1-O ,  2-H ) :   0.9000 

-------
TIMINGS
-------

Total SCF time: 0 days 0 hours 0 min 8 sec 

Total time                  ....       8.902 sec
Sum of individual times     ....       8.478 sec  ( 95.2%)

Fock matrix formation       ....       6.948 sec  ( 78.0%)
  XC integration            ....       1.942 sec  ( 28.0% of F)
    Basis function eval.    ....       0.419 sec  ( 21.6% of XC)
    Density eval.           ....       0.260 sec  ( 13.4% of XC)
    XC-Functional eval.     ....       0.676 sec  ( 34.8% of XC)
    XC-Potential eval.      ....       0.276 sec  ( 14.2% of XC)
Diagonalization             ....       0.026 sec  (  0.3%)
Density matrix formation    ....       0.002 sec  (  0.0%)
Population analysis         ....       0.011 sec  (  0.1%)
Initial guess               ....       0.193 sec  (  2.2%)
Orbital Transformation      ....       0.000 sec  (  0.0%)
Orbital Orthonormalization  ....       0.000 sec  (  0.0%)
DIIS solution               ....       0.018 sec  (  0.2%)
SOSCF solution              ....       0.011 sec  (  0.1%)
Grid generation             ....       1.269 sec  ( 14.2%)


-------------------------------------------------------------------------------
                          DFT DISPERSION CORRECTION                            
                                                                               
                              DFTD3 V3.1  Rev 1                                
                              USING zero damping                               
-------------------------------------------------------------------------------
The omegaB97X-D3 functional is recognized. Fit by Chai et al.
Active option DFTDOPT                   ...         3   

molecular C6(AA) [au] = 208.716762 


            DFT-D V3
 parameters
 s6 scaling factor         :     1.0000 
 rs6 scaling factor        :     1.2810 
 s8 scaling factor         :     1.0000 
 rs8 scaling factor        :     1.0940 
 Damping factor alpha6     :    14.0000 
 Damping factor alpha8     :    16.0000 
 ad hoc parameters k1-k3   :    16.0000     1.3333    -4.0000 

 Edisp/kcal,au: -0.150205472507  -0.000239367631 
 E6   /kcal   :  -0.029645074 
 E8   /kcal   :  -0.120560398 
 % E8         :  80.263652312 

-------------------------   ----------------
Dispersion correction           -0.000239368
-------------------------   ----------------


-------------------------   --------------------
FINAL SINGLE POINT ENERGY      -115.738050348125
-------------------------   --------------------



           ************************************************************
           *        Program running with 4 parallel MPI-processes     *
           *              working on a common directory               *
           ************************************************************
------------------------------------------------------------------------------
                         ORCA SCF GRADIENT CALCULATION
------------------------------------------------------------------------------

Gradient of the Kohn-Sham DFT energy:
Kohn-Sham wavefunction type      ... RKS
Hartree-Fock exchange scaling    ...    0.196
Number of operators              ...    1
Number of atoms                  ...    6
Basis set dimensions             ...   86
Integral neglect threshold       ... 2.5e-11
Integral primitive cutoff        ... 2.5e-12

Nuclear repulsion gradient       ... done
One Electron Gradient            ... done
Pre-screening matrix             ... done
Starting the two electron gradient:
Two electron gradient done
Exchange-correlation gradient    ... done
Dispersion correction            ... done

------------------
CARTESIAN GRADIENT
------------------

   1   C   :   -0.000097018    0.000009645   -0.000028642
   2   O   :   -0.000391927   -0.000819281    0.000508274
   3   H   :    0.000423744    0.000813268   -0.000499910
   4   H   :    0.000013352    0.000005426   -0.000000253
   5   H   :    0.000035885   -0.000011128    0.000011331
   6   H   :    0.000015965    0.000002069    0.000009200

Difference to translation invariance:
           :   -0.0000000000   -0.0000000000   -0.0000000000

Norm of the cartesian gradient     ...    0.0014786689
RMS gradient                       ...    0.0003485256
MAX gradient                       ...    0.0008192811

-------
TIMINGS
-------

Total SCF gradient time            ...        1.591 sec

One electron gradient       ....       0.005 sec  (  0.3%)
Prescreening matrices       ....       0.024 sec  (  1.5%)
Two electron gradient       ....       0.842 sec  ( 52.9%)
XC gradient                 ....       0.412 sec  ( 25.9%)
------------------------------------------------------------------------------
                         ORCA GEOMETRY RELAXATION STEP
------------------------------------------------------------------------------

Reading the OPT-File                    .... done
Getting information on internals        .... done
Copying old internal coords+grads       .... done
Making the new internal coordinates     .... (new redundants).... done
Validating the new internal coordinates .... (new redundants).... done
Calculating the B-matrix                .... done
Calculating the G,G- and P matrices     .... done
Transforming gradient to internals      .... done
Projecting the internal gradient        .... done
Number of atoms                         ....   6
Number of internal coordinates          ....  15
Current Energy                          ....  -115.738050348 Eh
Current gradient norm                   ....     0.001478669 Eh/bohr
Maximum allowed component of the step   ....  0.300
Current trust radius                    ....  0.300
Evaluating the initial hessian          ....  (Almloef) done
Projecting the Hessian                  .... done
Forming the augmented Hessian           .... done
Diagonalizing the augmented Hessian     .... done
Last element of RFO vector              ....  0.999999970
Lowest eigenvalues of augmented Hessian:
 -0.000000019  0.021176292  0.181846304  0.192338704  0.313380714
Length of the computed step             ....  0.000245448
The final length of the internal step   ....  0.000245448
Converting the step to cartesian space:
 Initial RMS(Int)=    0.0000633744
Transforming coordinates:
 Iter   0:  RMS(Cart)=    0.0000626198 RMS(Int)=    1.6223020608
 Iter   1:  RMS(Cart)=    0.0000000056 RMS(Int)=    0.0000000063
Imposing constraints:
 Iter   0:  RMS(Cart)=    0.0000000006 RMS(Int)=    0.0000000000
CONVERGED
done
Storing new coordinates                 .... done

                                .--------------------.
          ----------------------|Geometry convergence|-------------------------
          Item                value                   Tolerance       Converged
          ---------------------------------------------------------------------
          RMS gradient        0.0000206116            0.0001000000      YES
          MAX gradient        0.0000516857            0.0003000000      YES
          RMS step            0.0000633744            0.0020000000      YES
          MAX step            0.0001645866            0.0040000000      YES
          ........................................................
          Max(Bonds)      0.0000      Max(Angles)    0.01
          Max(Dihed)        0.00      Max(Improp)    0.00
          ---------------------------------------------------------------------

                    ***********************HURRAY********************
                    ***        THE OPTIMIZATION HAS CONVERGED     ***
                    *************************************************


    ---------------------------------------------------------------------------
                         Redundant Internal Coordinates

                          --- Optimized Parameters ---  
                            (Angstroem and degrees)

        Definition                    OldVal   dE/dq     Step     FinalVal
    ----------------------------------------------------------------------------
     1. B(O   1,C   0)                1.4116  0.000033 -0.0000    1.4116   
     2. B(H   2,O   1)                0.9585  0.001044  0.0000    0.9585 C 
     3. B(H   3,C   0)                1.0960 -0.000003  0.0000    1.0961   
     4. B(H   4,C   0)                1.0895  0.000001 -0.0000    1.0895   
     5. B(H   5,C   0)                1.0960 -0.000003  0.0000    1.0961   
     6. A(O   1,C   0,H   4)          107.02 -0.000052    0.01    107.03   
     7. A(O   1,C   0,H   3)          112.23 -0.000009    0.00    112.23   
     8. A(O   1,C   0,H   5)          112.23 -0.000009    0.00    112.23   
     9. A(H   3,C   0,H   5)          108.77  0.000019   -0.00    108.77   
    10. A(H   4,C   0,H   5)          108.22  0.000026   -0.00    108.21   
    11. A(H   3,C   0,H   4)          108.22  0.000026   -0.00    108.21   
    12. A(C   0,O   1,H   2)          108.75  0.000025   -0.00    108.75   
    13. D(H   2,O   1,C   0,H   5)    -61.43 -0.000006    0.00    -61.43   
    14. D(H   2,O   1,C   0,H   3)     61.43  0.000005    0.00     61.43   
    15. D(H   2,O   1,C   0,H   4)    180.00 -0.000001    0.00    180.00   
    ----------------------------------------------------------------------------
                 *******************************************************
                 *** FINAL ENERGY EVALUATION AT THE STATIONARY POINT ***
                 ***               (AFTER    1 CYCLES)               ***
                 *******************************************************
---------------------------------
CARTESIAN COORDINATES (ANGSTROEM)
---------------------------------
  C      3.011170   -1.181309    0.598758
  O      4.394508   -1.128444    0.874544
  H      4.772342   -0.378599    0.412236
  H      2.806249   -1.319360   -0.469081
  H      2.611352   -2.040640    1.136115
  H      2.484590   -0.284903    0.945894

----------------------------
CARTESIAN COORDINATES (A.U.)
----------------------------
  NO LB      ZA    FRAG     MASS         X           Y           Z
   0 C     6.0000    0    12.011    5.690288   -2.232350    1.131489
   1 O     8.0000    0    15.999    8.304416   -2.132450    1.652648
   2 H     1.0000    0     1.008    9.018419   -0.715448    0.779013
   3 H     1.0000    0     1.008    5.303042   -2.493229   -0.886434
   4 H     1.0000    0     1.008    4.934740   -3.856250    2.146945
   5 H     1.0000    0     1.008    4.695195   -0.538388    1.787480

--------------------------------
INTERNAL COORDINATES (ANGSTROEM)
--------------------------------
 C      0   0   0     0.000000000000     0.00000000     0.00000000
 O      1   0   0     1.411550071067     0.00000000     0.00000000
 H      2   1   0     0.958516986925   108.74594185     0.00000000
 H      1   2   3     1.096052512753   112.22792260    61.42757895
 H      1   2   3     1.089521167969   107.02628167   180.00015480
 H      1   2   3     1.096053710464   112.22977554   298.57317097

---------------------------
INTERNAL COORDINATES (A.U.)
---------------------------
 C      0   0   0     0.000000000000     0.00000000     0.00000000
 O      1   0   0     2.667443058633     0.00000000     0.00000000
 H      2   1   0     1.811334600000   108.74594185     0.00000000
 H      1   2   3     2.071239077499   112.22792260    61.42757895
 H      1   2   3     2.058896624571   107.02628167   180.00015480
 H      1   2   3     2.071241340845   112.22977554   298.57317097

---------------------
BASIS SET INFORMATION
---------------------
There are 3 groups of distinct atoms

 Group   1 Type C   : 11s6p2d1f contracted to 5s3p2d1f pattern {62111/411/11/1}
 Group   2 Type O   : 11s6p2d1f contracted to 5s3p2d1f pattern {62111/411/11/1}
 Group   3 Type H   : 5s1p contracted to 3s1p pattern {311/1}

Atom   0C    basis set group =>   1
Atom   1O    basis set group =>   2
Atom   2H    basis set group =>   3
Atom   3H    basis set group =>   3
Atom   4H    basis set group =>   3
Atom   5H    basis set group =>   3


           ************************************************************
           *        Program running with 4 parallel MPI-processes     *
           *              working on a common directory               *
           ************************************************************
------------------------------------------------------------------------------
                           ORCA GTO INTEGRAL CALCULATION
------------------------------------------------------------------------------

                         BASIS SET STATISTICS AND STARTUP INFO

 # of primitive gaussian shells          ...   64
 # of primitive gaussian functions       ...  124
 # of contracted shells                  ...   38
 # of contracted basis functions         ...   86
 Highest angular momentum                ...    3
 Maximum contraction depth               ...    6
 Integral package used                   ... LIBINT
 Integral threshhold            Thresh   ...  2.500e-11
 Primitive cut-off              TCut     ...  2.500e-12


------------------------------ INTEGRAL EVALUATION ----------------------------


 * One electron integrals 
 Pre-screening matrix                    ... done
 Shell pair data                         ... done (   0.000 sec)



           ************************************************************
           *        Program running with 4 parallel MPI-processes     *
           *              working on a common directory               *
           ************************************************************
-------------------------------------------------------------------------------
                                 ORCA SCF
-------------------------------------------------------------------------------

------------
SCF SETTINGS
------------
Hamiltonian:
 Density Functional     Method          .... DFT(GTOs)
 Exchange Functional    Exchange        .... WB97X-D3
 Correlation Functional Correlation     .... WB97X-D3
 Gradients option       PostSCFGGA      .... off
 Hybrid DFT is turned on
   Fraction HF Exchange ScalHFX         ....  0.195728
   Scaling of DF-GGA-X  ScalDFX         ....  0.000000
   Scaling of DF-GGA-C  ScalDFC         ....  1.000000
   Scaling of DF-LDA-C  ScalLDAC        ....  1.000000
   Perturbative correction              ....  0.000000
   Density functional embedding theory  .... OFF
 Long-range corrected/Screened/Range-Separated Hybrid DFT is turned on
   Amount of maximum screened exact exchange              ....  0.804272
   Range separation parameter mu (erf(mu*r12)/r12)        ....  0.250000


General Settings:
 Integral files         IntName         .... 0_geo_opt
 Hartree-Fock type      HFTyp           .... RHF
 Total Charge           Charge          ....    0
 Multiplicity           Mult            ....    1
 Number of Electrons    NEL             ....   18
 Basis Dimension        Dim             ....   86
 Nuclear Repulsion      ENuc            ....     40.4332213391 Eh

Convergence Acceleration:
 DIIS                   CNVDIIS         .... on
   Start iteration      DIISMaxIt       ....    12
   Startup error        DIISStart       ....  0.200000
   # of expansion vecs  DIISMaxEq       ....     5
   Bias factor          DIISBfac        ....   1.050
   Max. coefficient     DIISMaxC        ....  10.000
 Newton-Raphson         CNVNR           .... off
 SOSCF                  CNVSOSCF        .... on
   Start iteration      SOSCFMaxIt      ....   150
   Startup grad/error   SOSCFStart      ....  0.003300
 Level Shifting         CNVShift        .... on
   Level shift para.    LevelShift      ....    0.2500
   Turn off err/grad.   ShiftErr        ....    0.0010
 Zerner damping         CNVZerner       .... off
 Static damping         CNVDamp         .... on
   Fraction old density DampFac         ....    0.7000
   Max. Damping (<1)    DampMax         ....    0.9800
   Min. Damping (>=0)   DampMin         ....    0.0000
   Turn off err/grad.   DampErr         ....    0.1000
 Fernandez-Rico         CNVRico         .... off

SCF Procedure:
 Maximum # iterations   MaxIter         ....   125
 SCF integral mode      SCFMode         .... Direct
   Integral package                     .... LIBINT
 Reset frequency        DirectResetFreq ....    20
 Integral Threshold     Thresh          ....  2.500e-11 Eh
 Primitive CutOff       TCut            ....  2.500e-12 Eh

Convergence Tolerance:
 Convergence Check Mode ConvCheckMode   .... Total+1el-Energy
 Convergence forced     ConvForced      .... 0
 Energy Change          TolE            ....  1.000e-08 Eh
 1-El. energy change                    ....  1.000e-05 Eh
 Orbital Gradient       TolG            ....  1.000e-05
 Orbital Rotation angle TolX            ....  1.000e-05
 DIIS Error             TolErr          ....  5.000e-07


Diagonalization of the overlap matrix:
Smallest eigenvalue                        ... 1.650e-03
Time for diagonalization                   ...    0.002 sec
Threshold for overlap eigenvalues          ... 1.000e-08
Number of eigenvalues below threshold      ... 0
Time for construction of square roots      ...    0.004 sec
Total time needed                          ...    0.006 sec

---------------------
INITIAL GUESS: MOREAD
---------------------
Guess MOs are being read from file: 0_geo_opt.gbw
Input Geometry matches current geometry (good)
Input basis set matches current basis set (good)
MOs were renormalized
MOs were reorthogonalized (Cholesky)
                      ------------------
                      INITIAL GUESS DONE (   0.0 sec)
                      ------------------
-------------------
DFT GRID GENERATION
-------------------

General Integration Accuracy     IntAcc      ...  5.010
Radial Grid Type                 RadialGrid  ... Gauss-Chebyshev
Angular Grid (max. acc.)         AngularGrid ... Lebedev-434
Angular grid pruning method      GridPruning ... 3 (G Style)
Weight generation scheme         WeightScheme... Becke
Basis function cutoff            BFCut       ...    1.0000e-11
Integration weight cutoff        WCut        ...    1.0000e-14
Grids for H and He will be reduced by one unit

# of grid points (after initial pruning)     ...  48308 (   0.0 sec)
# of grid points (after weights+screening)   ...  46677 (   0.0 sec)
nearest neighbour list constructed           ...    0.0 sec
Grid point re-assignment to atoms done       ...    0.0 sec
Grid point division into batches done        ...    0.3 sec
Reduced shell lists constructed in    0.3 sec

Total number of grid points                  ...    46677
Total number of batches                      ...      733
Average number of points per batch           ...       63
Average number of grid points per atom       ...     7780
Average number of shells per batch           ...    33.12 (87.16%)
Average number of basis functions per batch  ...    76.83 (89.33%)
Average number of large shells per batch     ...    30.58 (92.35%)
Average number of large basis fcns per batch ...    72.24 (94.03%)
Maximum spatial batch extension              ...  15.77, 14.99, 16.58 au
Average spatial batch extension              ...   0.40,  0.42,  0.43 au

Time for grid setup =    0.379 sec

--------------
SCF ITERATIONS
--------------
ITER       Energy         Delta-E        Max-DP      RMS-DP      [F,P]     Damp
               ***  Starting incremental Fock matrix formation  ***
                      *** Initiating the SOSCF procedure ***
                      *** Re-Reading the Fockian *** 
                      *** Removing any level shift *** 
ITER      Energy       Delta-E        Grad      Rot      Max-DP    RMS-DP
  0   -115.73770342 -115.7377034247  0.000010  0.000010  0.000009  0.000001
               *** Restarting incremental Fock matrix formation ***
  1   -115.73770343  -0.0000000024  0.000004  0.000004  0.000005  0.000000
  2   -115.73770343  -0.0000000003  0.000003  0.000002  0.000003  0.000000
                 **** Energy Check signals convergence ****
              ***Rediagonalizing the Fockian in SOSCF/NRSCF***

               *****************************************************
               *                     SUCCESS                       *
               *           SCF CONVERGED AFTER   3 CYCLES          *
               *****************************************************

Setting up the final grid:

General Integration Accuracy     IntAcc      ...  5.340
Radial Grid Type                 RadialGrid  ... Gauss-Chebyshev
Angular Grid (max. acc.)         AngularGrid ... Lebedev-590
Angular grid pruning method      GridPruning ... 3 (G Style)
Weight generation scheme         WeightScheme... Becke
Basis function cutoff            BFCut       ...    1.0000e-11
Integration weight cutoff        WCut        ...    1.0000e-14
Grids for H and He will be reduced by one unit

# of grid points (after initial pruning)     ...  77324 (   0.0 sec)
# of grid points (after weights+screening)   ...  74512 (   0.0 sec)
nearest neighbour list constructed           ...    0.0 sec
Grid point re-assignment to atoms done       ...    0.0 sec
Grid point division into batches done        ...    0.8 sec
Reduced shell lists constructed in    0.9 sec

Total number of grid points                  ...    74512
Total number of batches                      ...     1167
Average number of points per batch           ...       63
Average number of grid points per atom       ...    12419
Average number of shells per batch           ...    32.93 (86.66%)
Average number of basis functions per batch  ...    76.37 (88.80%)
Average number of large shells per batch     ...    30.31 (92.05%)
Average number of large basis fcns per batch ...    71.53 (93.67%)
Maximum spatial batch extension              ...  13.18, 14.25, 15.48 au
Average spatial batch extension              ...   0.34,  0.36,  0.37 au

Final grid set up in    0.9 sec
Final integration                            ... done (   0.2 sec)
Change in XC energy                          ...    -0.000107579
Integrated number of electrons               ...    18.000000746
Previous integrated no of electrons          ...    18.000002277

----------------
TOTAL SCF ENERGY
----------------

Total Energy       :         -115.73781101 Eh           -3149.38595 eV

Components:
Nuclear Repulsion  :           40.43322134 Eh            1100.24389 eV
Electronic Energy  :         -156.17103235 Eh           -4249.62984 eV
One Electron Energy:         -237.28679924 Eh           -6456.90207 eV
Two Electron Energy:           81.11576690 Eh            2207.27223 eV

Virial components:
Potential Energy   :         -230.98665055 Eh           -6285.46631 eV
Kinetic Energy     :          115.24883954 Eh            3136.08036 eV
Virial Ratio       :            2.00424275


DFT components:
N(Alpha)           :        9.000000373100 electrons
N(Beta)            :        9.000000373100 electrons
N(Total)           :       18.000000746200 electrons
E(XC)              :      -10.655252295632 Eh       
DFET-embed. en.    :        0.000000000000 Eh       

---------------
SCF CONVERGENCE
---------------

  Last Energy change         ...   -7.9467e-11  Tolerance :   1.0000e-08
  Last MAX-Density change    ...    7.2324e-07  Tolerance :   1.0000e-07
  Last RMS-Density change    ...    5.1159e-08  Tolerance :   5.0000e-09
  Last Orbital Gradient      ...    6.8836e-07  Tolerance :   1.0000e-05
  Last Orbital Rotation      ...    5.9617e-07  Tolerance :   1.0000e-05

             **** THE GBW FILE WAS UPDATED (0_geo_opt.gbw) ****
             **** DENSITY FILE WAS UPDATED (0_geo_opt.scfp.tmp) ****
             **** ENERGY FILE WAS UPDATED (0_geo_opt.en.tmp) ****
----------------
ORBITAL ENERGIES
----------------

  NO   OCC          E(Eh)            E(eV) 
   0   2.0000     -19.228174      -523.2252 
   1   2.0000     -10.315098      -280.6881 
   2   2.0000      -1.136617       -30.9289 
   3   2.0000      -0.795245       -21.6397 
   4   2.0000      -0.611482       -16.6393 
   5   2.0000      -0.541753       -14.7419 
   6   2.0000      -0.526302       -14.3214 
   7   2.0000      -0.433757       -11.8031 
   8   2.0000      -0.373571       -10.1654 
   9   0.0000       0.116535         3.1711 
  10   0.0000       0.156632         4.2622 
  11   0.0000       0.202570         5.5122 
  12   0.0000       0.205121         5.5816 
  13   0.0000       0.226336         6.1589 
  14   0.0000       0.304345         8.2816 
  15   0.0000       0.313368         8.5272 
  16   0.0000       0.404500        11.0070 
  17   0.0000       0.452627        12.3166 
  18   0.0000       0.484673        13.1886 
  19   0.0000       0.535847        14.5811 
  20   0.0000       0.543599        14.7921 
  21   0.0000       0.567561        15.4441 
  22   0.0000       0.598566        16.2878 
  23   0.0000       0.603524        16.4227 
  24   0.0000       0.671159        18.2632 
  25   0.0000       0.779023        21.1983 
  26   0.0000       0.832168        22.6444 
  27   0.0000       0.861339        23.4382 
  28   0.0000       0.989575        26.9277 
  29   0.0000       1.013894        27.5894 
  30   0.0000       1.109782        30.1987 
  31   0.0000       1.382491        37.6195 
  32   0.0000       1.512820        41.1659 
  33   0.0000       1.553521        42.2734 
  34   0.0000       1.602773        43.6137 
  35   0.0000       1.613023        43.8926 
  36   0.0000       1.624187        44.1964 
  37   0.0000       1.660763        45.1917 
  38   0.0000       1.687998        45.9328 
  39   0.0000       1.774786        48.2944 
  40   0.0000       1.952001        53.1166 
  41   0.0000       2.030429        55.2508 
  42   0.0000       2.055214        55.9252 
  43   0.0000       2.094195        56.9860 
  44   0.0000       2.114531        57.5393 
  45   0.0000       2.268100        61.7181 
  46   0.0000       2.333610        63.5008 
  47   0.0000       2.345581        63.8265 
  48   0.0000       2.380848        64.7862 
  49   0.0000       2.429441        66.1085 
  50   0.0000       2.497664        67.9649 
  51   0.0000       2.596007        70.6409 
  52   0.0000       2.639869        71.8345 
  53   0.0000       2.706345        73.6434 
  54   0.0000       2.841471        77.3204 
  55   0.0000       2.871246        78.1306 
  56   0.0000       2.888110        78.5895 
  57   0.0000       2.992756        81.4370 
  58   0.0000       3.096072        84.2484 
  59   0.0000       3.172849        86.3376 
  60   0.0000       3.299165        89.7748 
  61   0.0000       3.408275        92.7439 
  62   0.0000       3.441529        93.6488 
  63   0.0000       3.488329        94.9223 
  64   0.0000       3.612600        98.3039 
  65   0.0000       3.645284        99.1932 
  66   0.0000       3.666945        99.7827 
  67   0.0000       4.004407       108.9654 
  68   0.0000       4.223810       114.9357 
  69   0.0000       4.273336       116.2834 
  70   0.0000       4.455607       121.2432 
  71   0.0000       4.564243       124.1994 
  72   0.0000       5.346090       145.4745 
  73   0.0000       5.425216       147.6276 
  74   0.0000       5.553616       151.1216 
  75   0.0000       5.826215       158.5394 
  76   0.0000       5.833818       158.7463 
  77   0.0000       5.985168       162.8647 
  78   0.0000       6.376639       173.5172 
  79   0.0000       6.530797       177.7120 
  80   0.0000       6.744566       183.5290 
  81   0.0000       6.804048       185.1476 
  82   0.0000       7.039313       191.5495 
  83   0.0000       7.214897       196.3273 
  84   0.0000      22.406212       609.7040 
  85   0.0000      43.664542      1188.1726 

                    ********************************
                    * MULLIKEN POPULATION ANALYSIS *
                    ********************************

-----------------------
MULLIKEN ATOMIC CHARGES
-----------------------
   0 C :   -0.150851
   1 O :   -0.477758
   2 H :    0.313146
   3 H :    0.098620
   4 H :    0.118219
   5 H :    0.098624
Sum of atomic charges:   -0.0000000

--------------------------------
MULLIKEN REDUCED ORBITAL CHARGES
--------------------------------
  0 C s       :     3.223084  s :     3.223084
      pz      :     1.047265  p :     2.826081
      px      :     0.702180
      py      :     1.076636
      dz2     :     0.011111  d :     0.094265
      dxz     :     0.032498
      dyz     :     0.002646
      dx2y2   :     0.012741
      dxy     :     0.035269
      f0      :     0.001356  f :     0.007420
      f+1     :     0.000957
      f-1     :     0.000175
      f+2     :     0.001464
      f-2     :     0.000123
      f+3     :     0.001361
      f-3     :     0.001985
  1 O s       :     3.793033  s :     3.793033
      pz      :     1.759366  p :     4.652462
      px      :     1.313669
      py      :     1.579427
      dz2     :     0.003135  d :     0.030580
      dxz     :     0.006477
      dyz     :     0.005836
      dx2y2   :     0.008941
      dxy     :     0.006192
      f0      :     0.000269  f :     0.001683
      f+1     :     0.000233
      f-1     :     0.000087
      f+2     :     0.000287
      f-2     :     0.000234
      f+3     :     0.000367
      f-3     :     0.000206
  2 H s       :     0.639287  s :     0.639287
      pz      :     0.016959  p :     0.047567
      px      :     0.012684
      py      :     0.017924
  3 H s       :     0.882015  s :     0.882015
      pz      :     0.012072  p :     0.019365
      px      :     0.003007
      py      :     0.004286
  4 H s       :     0.861561  s :     0.861561
      pz      :     0.006297  p :     0.020220
      px      :     0.004195
      py      :     0.009728
  5 H s       :     0.882012  s :     0.882012
      pz      :     0.004930  p :     0.019364
      px      :     0.004977
      py      :     0.009458


                     *******************************
                     * LOEWDIN POPULATION ANALYSIS *
                     *******************************

----------------------
LOEWDIN ATOMIC CHARGES
----------------------
   0 C :   -0.385309
   1 O :   -0.076563
   2 H :    0.166419
   3 H :    0.093387
   4 H :    0.108681
   5 H :    0.093385

-------------------------------
LOEWDIN REDUCED ORBITAL CHARGES
-------------------------------
  0 C s       :     2.862949  s :     2.862949
      pz      :     1.096643  p :     3.052303
      px      :     0.846112
      py      :     1.109547
      dz2     :     0.072426  d :     0.413032
      dxz     :     0.114061
      dyz     :     0.020706
      dx2y2   :     0.082167
      dxy     :     0.123671
      f0      :     0.007822  f :     0.057026
      f+1     :     0.007165
      f-1     :     0.000854
      f+2     :     0.012526
      f-2     :     0.004830
      f+3     :     0.011738
      f-3     :     0.012090
  1 O s       :     3.366812  s :     3.366812
      pz      :     1.699041  p :     4.633556
      px      :     1.381332
      py      :     1.553183
      dz2     :     0.006131  d :     0.071554
      dxz     :     0.017863
      dyz     :     0.008080
      dx2y2   :     0.019337
      dxy     :     0.020143
      f0      :     0.000483  f :     0.004640
      f+1     :     0.000623
      f-1     :     0.000072
      f+2     :     0.001049
      f-2     :     0.000558
      f+3     :     0.000889
      f-3     :     0.000967
  2 H s       :     0.674964  s :     0.674964
      pz      :     0.055577  p :     0.158617
      px      :     0.033778
      py      :     0.069263
  3 H s       :     0.846790  s :     0.846790
      pz      :     0.036181  p :     0.059823
      px      :     0.009713
      py      :     0.013929
  4 H s       :     0.831723  s :     0.831723
      pz      :     0.019211  p :     0.059597
      px      :     0.011612
      py      :     0.028774
  5 H s       :     0.846792  s :     0.846792
      pz      :     0.015605  p :     0.059823
      px      :     0.015203
      py      :     0.029016


                      *****************************
                      * MAYER POPULATION ANALYSIS *
                      *****************************

  NA   - Mulliken gross atomic population
  ZA   - Total nuclear charge
  QA   - Mulliken gross atomic charge
  VA   - Mayer's total valence
  BVA  - Mayer's bonded valence
  FA   - Mayer's free valence

  ATOM       NA         ZA         QA         VA         BVA        FA
  0 C      6.1509     6.0000    -0.1509     3.9350     3.9350    -0.0000
  1 O      8.4778     8.0000    -0.4778     1.8879     1.8879    -0.0000
  2 H      0.6869     1.0000     0.3131     0.9134     0.9134    -0.0000
  3 H      0.9014     1.0000     0.0986     0.9596     0.9596    -0.0000
  4 H      0.8818     1.0000     0.1182     0.9598     0.9598    -0.0000
  5 H      0.9014     1.0000     0.0986     0.9596     0.9596    -0.0000

  Mayer bond orders larger than 0.1
B(  0-C ,  1-O ) :   0.9987 B(  0-C ,  3-H ) :   0.9755 B(  0-C ,  4-H ) :   0.9749 
B(  0-C ,  5-H ) :   0.9755 B(  1-O ,  2-H ) :   0.9000 

-------
TIMINGS
-------

Total SCF time: 0 days 0 hours 0 min 4 sec 

Total time                  ....       4.162 sec
Sum of individual times     ....       3.851 sec  ( 92.5%)

Fock matrix formation       ....       2.509 sec  ( 60.3%)
  XC integration            ....       0.756 sec  ( 30.1% of F)
    Basis function eval.    ....       0.171 sec  ( 22.6% of XC)
    Density eval.           ....       0.108 sec  ( 14.2% of XC)
    XC-Functional eval.     ....       0.270 sec  ( 35.7% of XC)
    XC-Potential eval.      ....       0.102 sec  ( 13.5% of XC)
Diagonalization             ....       0.002 sec  (  0.1%)
Density matrix formation    ....       0.001 sec  (  0.0%)
Population analysis         ....       0.011 sec  (  0.3%)
Initial guess               ....       0.003 sec  (  0.1%)
Orbital Transformation      ....       0.000 sec  (  0.0%)
Orbital Orthonormalization  ....       0.002 sec  (  0.0%)
DIIS solution               ....       0.000 sec  (  0.0%)
SOSCF solution              ....       0.008 sec  (  0.2%)
Grid generation             ....       1.316 sec  ( 31.6%)


-------------------------------------------------------------------------------
                          DFT DISPERSION CORRECTION                            
                                                                               
                              DFTD3 V3.1  Rev 1                                
                              USING zero damping                               
-------------------------------------------------------------------------------
The omegaB97X-D3 functional is recognized. Fit by Chai et al.
Active option DFTDOPT                   ...         3   

molecular C6(AA) [au] = 208.716711 


            DFT-D V3
 parameters
 s6 scaling factor         :     1.0000 
 rs6 scaling factor        :     1.2810 
 s8 scaling factor         :     1.0000 
 rs8 scaling factor        :     1.0940 
 Damping factor alpha6     :    14.0000 
 Damping factor alpha8     :    16.0000 
 ad hoc parameters k1-k3   :    16.0000     1.3333    -4.0000 

 Edisp/kcal,au: -0.150199640683  -0.000239358338 
 E6   /kcal   :  -0.029644529 
 E8   /kcal   :  -0.120555112 
 % E8         :  80.263248941 

-------------------------   ----------------
Dispersion correction           -0.000239358
-------------------------   ----------------


-------------------------   --------------------
FINAL SINGLE POINT ENERGY      -115.738050364581
-------------------------   --------------------

                                *** OPTIMIZATION RUN DONE ***

                            ***************************************
                            *     ORCA property calculations      *
                            ***************************************

                                    ---------------------
                                    Active property flags
                                    ---------------------
   (+) Dipole Moment


------------------------------------------------------------------------------
                       ORCA ELECTRIC PROPERTIES CALCULATION
------------------------------------------------------------------------------

Dipole Moment Calculation                       ... on
Quadrupole Moment Calculation                   ... off
Polarizability Calculation                      ... off
GBWName                                         ... 0_geo_opt.gbw
Electron density file                           ... 0_geo_opt.scfp.tmp
The origin for moment calculation is the CENTER OF MASS  = ( 7.033000, -2.140752  1.369722)

-------------
DIPOLE MOMENT
-------------
                                X             Y             Z
Electronic contribution:      1.75594      -0.02871       0.42013
Nuclear contribution   :     -2.06556       0.47651      -0.81788
                        -----------------------------------------
Total Dipole Moment    :     -0.30962       0.44780      -0.39775
                        -----------------------------------------
Magnitude (a.u.)       :      0.67424
Magnitude (Debye)      :      1.71378



--------------------
Rotational spectrum 
--------------------
 
Rotational constants in cm-1:     4.291251     0.833788     0.804837 
Rotational constants in MHz : 128648.475973 24996.320868 24128.417654 

 Dipole components along the rotational axes: 
x,y,z [a.u.] :    -0.332669     0.586457    -0.000005 
x,y,z [Debye]:    -0.845577     1.490654    -0.000012 

 
------------------------------------------------------------------------------
                      ORCA CHELPG CHARGES GENERATION
------------------------------------------------------------------------------

GBW file                           ... 0_geo_opt.gbw

Reading the GBW file               ... done

Grid spacing                       ...     0.300000
Point Cut-Off                      ...     2.800000
Van-der-Waals Radii                ...        COSMO
Total charge                       ...            0


Number of points X direction       ...           26
Number of points Y direction       ...           24
Number of points Z direction       ...           24
Maximum number of possible points  ...        14976
Final number of points             ...         5947


CHELPG Charges            
--------------------------------
  0   C   :       0.092954
  1   O   :      -0.606327
  2   H   :       0.403501
  3   H   :       0.014553
  4   H   :       0.081231
  5   H   :       0.014088
--------------------------------
Total charge:    -0.000000
--------------------------------

CHELPG charges calculated...

Timings for individual parts in CHELPG calculation:
Grid generation                 ...        0.002 sec (=   0.000 min)
Potential calculation           ...        0.681 sec (=   0.011 min)
Fit to the potential            ...        0.014 sec (=   0.000 min)
------------------------------------------------------------------------------


Timings for individual modules:

Sum of individual times         ...       30.720 sec (=   0.512 min)
GTO integral calculation        ...        5.578 sec (=   0.093 min)  18.2 %
SCF iterations                  ...       16.703 sec (=   0.278 min)  54.4 %
SCF Gradient evaluation         ...        2.165 sec (=   0.036 min)   7.0 %
Geometry relaxation             ...        3.092 sec (=   0.052 min)  10.1 %
CHELPG charge generation        ...        3.182 sec (=   0.053 min)  10.4 %
                             ****ORCA TERMINATED NORMALLY****
TOTAL RUN TIME: 0 days 0 hours 0 minutes 35 seconds 456 msec
