LAMMPS data file via vdw_self_gen.py, on 2021-08-05 13:21:58.261404

2500 atoms
3 atom types
2000 bonds
2 bond types
3000 angles
2 angle types

-32.6396838904225390  32.6396838904225319 xlo xhi
-32.6396838904225390  32.6396838904225319 ylo yhi
-32.6396838904225390  32.6396838904225319 zlo zhi

Masses

1  35.452700
2  1.007940
3  12.011000

Atoms

1         0    1   -0.1534088000000000  -16.6687627347789871 -25.6828427077184500  24.4972222596605782 0 0 0
2         0    3    0.4704982000000000  -18.1277009653862251 -25.2742700857754237  25.4156587273986680 0 0 0
3         0    1   -0.1534088000000000  -19.5761762207593044 -25.5227938780701429  24.4261685126237396 0 0 0
4         0    1   -0.1534088000000000  -18.2168776100612284 -26.2344048013063293  26.9019723834877489 0 0 0
5         0    2   -0.0102718000000000  -18.0762710535212960 -24.2177925454395222  25.6910821351391334 0 0 0
6         1    1   -0.1534088000000000  -26.5545929604593667  18.5535244327085458 -26.6036546743083839 0 0 0
7         1    3    0.4704982000000000  -25.3043450529980554  18.2147289389668501 -25.3949133137564580 0 0 0
8         1    1   -0.1534088000000000  -25.9854438094366920  18.2769429811885047 -23.7605420515188435 0 0 0
9         1    1   -0.1534088000000000  -24.5565367228401996  16.6374441309423275 -25.6980548086422047 0 0 0
10        1    2   -0.0102718000000000  -24.5311854725755509  18.9831481007008271 -25.4749391700839816 0 0 0
11        2    1   -0.1534088000000000   25.9799465926330200 -9.8662745259441547   16.8512473917543772 0 0 0
12        2    3    0.4704982000000000   25.2842952336183195 -10.8333775191563255  18.1626355420062566 0 0 0
13        2    1   -0.1534088000000000   25.0046869773873404 -12.4988910177743424  17.6270801901810401 0 0 0
14        2    1   -0.1534088000000000   26.3409119043909428 -10.8057746797098737  19.5845141319357445 0 0 0
15        2    2   -0.0102718000000000   24.3222633102802490 -10.3951554081195319  18.4403113286296438 0 0 0
16        3    1   -0.1534088000000000  -26.4640909694985638 -16.8385212748203763 -3.1958924622354488  0 0 0
17        3    3    0.4704982000000000  -25.3594899114166310 -18.1133604953108573 -3.7377405569847753  0 0 0
18        3    1   -0.1534088000000000  -23.8640395694581997 -18.0863784328813644 -2.7880902166260442  0 0 0
19        3    1   -0.1534088000000000  -26.1386648676739952 -19.7006752397605318 -3.6270259698970633  0 0 0
20        3    2   -0.0102718000000000  -25.1058187002624855 -17.9268531417339112 -4.7844085111580750  0 0 0
21        4    1   -0.1534088000000000  -9.8692101403794048  -23.9787575147264747  3.7680302232289109  0 0 0
22        4    3    0.4704982000000000  -10.9534116593609330 -25.3613863460414031  3.5404286536938203  0 0 0
23        4    1   -0.1534088000000000  -10.0333227810228127 -26.8059116186923667  3.0868663993878114  0 0 0
24        4    1   -0.1534088000000000  -11.8975785378016017 -25.6605168115230811  5.0094450935188899  0 0 0
25        4    2   -0.0102718000000000  -11.6459500321394831 -25.1255317273265391  2.7283873470719762  0 0 0
26        5    1   -0.1534088000000000  -3.6386991325499491   27.0095843098072592  11.5029413901306192 0 0 0
27        5    3    0.4704982000000000  -3.5271402508934742   25.3408037149990193  10.9184041067046724 0 0 0
28        5    1   -0.1534088000000000  -4.8673853762379542   24.3691567370562971  11.5497365707401620 0 0 0
29        5    1   -0.1534088000000000  -3.5100271023437228   25.3014515954028170  9.1472186333479151  0 0 0
30        5    2   -0.0102718000000000  -2.5899058548763012   24.9111076610444790  11.2811724497808417 0 0 0
31        6    1   -0.1534088000000000   10.9784284465330924 -24.9459285402402244 -1.9475692120724928  0 0 0
32        6    3    0.4704982000000000   10.7703376966657505 -25.4216181179710929 -3.6414923386806177  0 0 0
33        6    1   -0.1534088000000000   11.0639452012228059 -24.0435969501280375 -4.7156374965360301  0 0 0
34        6    1   -0.1534088000000000   11.8484702584595407 -26.7677727071440792 -4.0470011936375361  0 0 0
35        6    2   -0.0102718000000000   9.7382915478230245  -25.7531877028264411 -3.7814574759747237  0 0 0
36        7    1   -0.1534088000000000  -26.5212089087688909  26.6525106528766855  3.2629488386123717  0 0 0
37        7    3    0.4704982000000000  -25.4518651503686080  25.2976056910328921  3.6625666111668465  0 0 0
38        7    1   -0.1534088000000000  -24.5438313639060794  24.7784787999616967  2.2325605134493358  0 0 0
39        7    1   -0.1534088000000000  -24.3468175044411339  25.7425391887235904  4.9739945783319808  0 0 0
40        7    2   -0.0102718000000000  -26.0683810908251594  24.4609696857150034  4.0010871753408770  0 0 0
41        8    1   -0.1534088000000000   25.7300599013025284 -25.7113577856900797 -19.8062748041990169 0 0 0
42        8    3    0.4704982000000000   25.3302512644945210 -25.4807966771589953 -18.0957332166991343 0 0 0
43        8    1   -0.1534088000000000   26.8046744064943532 -25.2905273308094216 -17.1319855837188868 0 0 0
44        8    1   -0.1534088000000000   24.2660004832348868 -24.0795836437024704 -17.8885817270597087 0 0 0
45        8    2   -0.0102718000000000   24.8011179627835716 -26.3698385809489046 -17.7432132528302944 0 0 0
46        9    1   -0.1534088000000000  -23.6892282962771965  25.5545328848353250 -18.4711940767275600 0 0 0
47        9    3    0.4704982000000000  -25.4374102912897797  25.3867568828813006 -18.2373804353758935 0 0 0
48        9    1   -0.1534088000000000  -25.8139484181750838  23.8515145184998190 -17.4372645390770877 0 0 0
49        9    1   -0.1534088000000000  -26.0737983762421699  26.7493642677927888 -17.3007637848110463 0 0 0
50        9    2   -0.0102718000000000  -25.9177186363256418  25.3899354643006383 -19.2191857485154571 0 0 0
51        10   1   -0.1534088000000000   3.9732584081929141  -2.7341233909748128   19.5844577113904634 0 0 0
52        10   3    0.4704982000000000   3.6787892062264129  -3.5667519384062971   18.0485620494083996 0 0 0
53        10   1   -0.1534088000000000   4.3676921929687529  -5.1986701431305864   18.0830754358970474 0 0 0
54        10   1   -0.1534088000000000   1.9432955559425538  -3.6309578357962140   17.6980212917713295 0 0 0
55        10   2   -0.0102718000000000   4.1701223535707701  -3.0026544085934912   17.2516720960398153 0 0 0
56        11   1   -0.1534088000000000  -12.0481658569203098 -11.9117324724182438 -2.8562772953570028  0 0 0
57        11   3    0.4704982000000000  -10.9381792388067947 -10.7826476530846431 -3.6512962081882034  0 0 0
58        11   1   -0.1534088000000000  -9.5937419776960624  -10.3690412179835594 -2.5740990611069350  0 0 0
59        11   1   -0.1534088000000000  -10.3321334229919248 -11.4694731049939112 -5.1678444922671938  0 0 0
60        11   2   -0.0102718000000000  -11.4872526542891435 -9.8665787022238707  -3.8836406599820736  0 0 0
61        12   1   -0.1534088000000000  -25.6887034769829299 -10.2735442315704741 -9.2786585329061300  0 0 0
62        12   3    0.4704982000000000  -25.4521234658110664 -10.8140424823482775 -10.9492420934082766 0 0 0
63        12   1   -0.1534088000000000  -23.7592217273110222 -10.6173703896552727 -11.4333281576977406 0 0 0
64        12   1   -0.1534088000000000  -25.9609862457003615 -12.5008174506190759 -11.1357583336084076 0 0 0
65        12   2   -0.0102718000000000  -26.0710691025044916 -10.1936985965111315 -11.6024860330836788 0 0 0
66        13   1   -0.1534088000000000  -10.6308556754595553 -12.5033454988601864 -11.4503151201564588 0 0 0
67        13   3    0.4704982000000000  -10.9751158188842783 -10.8434688124829730 -10.9352886809607934 0 0 0
68        13   1   -0.1534088000000000  -11.2870249038290371 -10.7845340401428498 -9.1922525536134216  0 0 0
69        13   1   -0.1534088000000000  -9.6343658906850358  -9.7677751027615223  -11.3644880554937036 0 0 0
70        13   2   -0.0102718000000000  -11.8721108618463251 -10.5003496964566967 -11.4571287404798596 0 0 0
71        14   1   -0.1534088000000000  -10.6964472587507835  25.3081763191116806 -5.3538308723783903  0 0 0
72        14   3    0.4704982000000000  -10.9096309479410181  25.2787514674799141 -3.5952391670159241  0 0 0
73        14   1   -0.1534088000000000  -9.3954371376060699   25.6999636899425887 -2.7774782641284297  0 0 0
74        14   1   -0.1534088000000000  -12.2081970020854875  26.3807285830409874 -3.1070669945159270  0 0 0
75        14   2   -0.0102718000000000  -11.1897608043208781  24.2644839587346972 -3.2995424188627336  0 0 0
76        15   1   -0.1534088000000000  -25.3132077990201019 -16.4017254060799011  25.2457983711748533 0 0 0
77        15   3    0.4704982000000000  -25.2866015875021262 -18.1628231206664701  25.4375921212988025 0 0 0
78        15   1   -0.1534088000000000  -26.6231666170538652 -18.6967613957680463  26.4707616940509709 0 0 0
79        15   1   -0.1534088000000000  -25.3628508373169659 -18.9622252226248307  23.8583259114762676 0 0 0
80        15   2   -0.0102718000000000  -24.3462771774168054 -18.4422534393677928  25.9196259203089667 0 0 0
81        16   1   -0.1534088000000000   9.2621883113061685  -17.7127781281404353 -18.6120104363042671 0 0 0
82        16   3    0.4704982000000000   10.8684336571530498 -18.2328690373580642 -18.0749450506253950 0 0 0
83        16   1   -0.1534088000000000   11.9279295364880085 -18.5178551612377049 -19.4660550091722691 0 0 0
84        16   1   -0.1534088000000000   11.5804776584764788 -17.0301260680218611 -16.9862108681494099 0 0 0
85        16   2   -0.0102718000000000   10.7604439872805049 -19.1721601897489720 -17.5265672202556928 0 0 0
86        17   1   -0.1534088000000000  -18.4291998784251376 -19.1454328279110548  19.5154206433212565 0 0 0
87        17   3    0.4704982000000000  -18.0249813684617131 -18.0939110171421724  18.1479897781290695 0 0 0
88        17   1   -0.1534088000000000  -18.0858389804101556 -18.9999651410209474  16.6267081468818567 0 0 0
89        17   1   -0.1534088000000000  -19.1198239688401195 -16.7022744349405485  18.0879336903874517 0 0 0
90        17   2   -0.0102718000000000  -17.0059443883699188 -17.7242051634923108  18.2877363257874315 0 0 0
91        18   1   -0.1534088000000000  -25.0968857647404455 -27.0534812747486271 -3.2265421702384303  0 0 0
92        18   3    0.4704982000000000  -25.2834515272325433 -25.3346126682884929 -3.6133778244787158  0 0 0
93        18   1   -0.1534088000000000  -25.7995159339887010 -25.1275557698667313 -5.2955610769204231  0 0 0
94        18   1   -0.1534088000000000  -26.4387944042877869 -24.5698633100378991 -2.5091673890575428  0 0 0
95        18   2   -0.0102718000000000  -24.3134563880603949 -24.8465909953681177 -3.4885092562062825  0 0 0
96        19   1   -0.1534088000000000   17.8019554098959674 -23.6801736738733482  18.1780845846570820 0 0 0
97        19   3    0.4704982000000000   18.1516896076125462 -25.4157762039048549  18.2438701613114702 0 0 0
98        19   1   -0.1534088000000000   16.7731284839240047 -26.3518421424647862  17.6419687467737667 0 0 0
99        19   1   -0.1534088000000000   19.6127458380383040 -25.7920283123533167  17.3150599155550147 0 0 0
100       19   2   -0.0102718000000000   18.3262692450362472 -25.6922836857135586  19.2868051762097217 0 0 0
101       20   1   -0.1534088000000000   12.3336688606739528  4.3319198195330237   2.9846801482705403  0 0 0
102       20   3    0.4704982000000000   10.8760421075999840  3.6623294469182679   3.7369639212077539  0 0 0
103       20   1   -0.1534088000000000   9.4231285476649393   4.2489029586069549   2.9099758749567428  0 0 0
104       20   1   -0.1534088000000000   10.9268566655674686  1.8913919799697425   3.7252251369216398  0 0 0
105       20   2   -0.0102718000000000   10.8397769691978745  3.9986135118734056   4.7763126355447287  0 0 0
106       21   1   -0.1534088000000000   18.8630490423811814 -24.2253213941118553 -2.5579410018034681  0 0 0
107       21   3    0.4704982000000000   18.2090655008058917 -25.3982471920232875 -3.7135830282729350  0 0 0
108       21   1   -0.1534088000000000   17.9939995228614436 -26.9786479799676329 -2.9422105498322786  0 0 0
109       21   1   -0.1534088000000000   16.6755350470143462 -24.8202575953238416 -4.3867485380854241  0 0 0
110       21   2   -0.0102718000000000   18.9241394714441888 -25.5096298568832438 -4.5326745989073016  0 0 0
111       22   1   -0.1534088000000000  -18.2816729174784101 -26.9008039113059354  4.4678091096551897  0 0 0
112       22   3    0.4704982000000000  -18.1067639983678639 -25.3093004412564184  3.7092041609263355  0 0 0
113       22   1   -0.1534088000000000  -16.7920543935685416 -25.3268242898062255  2.5216995943328397  0 0 0
114       22   1   -0.1534088000000000  -19.6271557592891206 -24.8123454106354160  2.9473747698792092  0 0 0
115       22   2   -0.0102718000000000  -17.8581415158031120 -24.5828299653058764  4.4870700821078282  0 0 0
116       23   1   -0.1534088000000000  -4.6029046268275859   4.6492712507567724   17.1211836288155546 0 0 0
117       23   3    0.4704982000000000  -3.7021743729629955   3.5547598721528137   18.1840513276753271 0 0 0
118       23   1   -0.1534088000000000  -2.5527358047922339   2.5842313477713077   17.2482089866459241 0 0 0
119       23   1   -0.1534088000000000  -2.8615232056144042   4.4671607600020513   19.4488713405180143 0 0 0
120       23   2   -0.0102718000000000  -4.4138197067041824   2.8777344862184675   18.6634733008522389 0 0 0
121       24   1   -0.1534088000000000   25.0663566185550053 -17.0515074435249048  16.8100612491257877 0 0 0
122       24   3    0.4704982000000000   25.4478481843864799 -18.2197097224455824  18.0862765578115763 0 0 0
123       24   1   -0.1534088000000000   26.4289502328120633 -17.4611485731352332  19.3515667534710829 0 0 0
124       24   1   -0.1534088000000000   23.9624547362919813 -18.8983849498980909  18.7732595781259199 0 0 0
125       24   2   -0.0102718000000000   26.0264942462643312 -19.0350378955032262  17.6446244459726955 0 0 0
126       25   1   -0.1534088000000000   17.3168790018050274 -26.3677286589151727  2.4460737887477748  0 0 0
127       25   3    0.4704982000000000   18.0793995180295255 -25.4099059142415591  3.7267360961194749  0 0 0
128       25   1   -0.1534088000000000   19.7884194684848040 -25.8452692987115817  3.8959846066258712  0 0 0
129       25   1   -0.1534088000000000   17.9081236086322022 -23.6780526650468559  3.3946392483267460  0 0 0
130       25   2   -0.0102718000000000   17.5729669875555032 -25.6311474813946880  4.6697239770815306  0 0 0
131       26   1   -0.1534088000000000  -9.4111017115205780   3.1674674327931549  -24.5772185166634323 0 0 0
132       26   3    0.4704982000000000  -10.8840755945347603  3.7421679609491361  -25.3766089946498390 0 0 0
133       26   1   -0.1534088000000000  -10.8589726989214075  3.3293242051660981  -27.0993583681347836 0 0 0
134       26   1   -0.1534088000000000  -12.3218782031504794  3.0636593856057419  -24.5947591356338577 0 0 0
135       26   2   -0.0102718000000000  -10.9234449425770155  4.8305387323872626  -25.2841590032279555 0 0 0
136       27   1   -0.1534088000000000   18.4006738661329372  17.0634220854031682  9.5356128709373014  0 0 0
137       27   3    0.4704982000000000   18.2132194149634579  18.1027284798255046  10.9581672427099832 0 0 0
138       27   1   -0.1534088000000000   18.4725333288295239  19.8013906194553471  10.5266133580517529 0 0 0
139       27   1   -0.1534088000000000   16.6119464495853677  17.8821913428013666  11.6835827731078741 0 0 0
140       27   2   -0.0102718000000000   18.9674155249957614  17.8160560570216795  11.6954969058973024 0 0 0
141       28   1   -0.1534088000000000   11.4149162808816609 -9.7553844369276526   24.1730695280116876 0 0 0
142       28   3    0.4704982000000000   10.7645656258278883 -10.8836917671523459  25.3742874463896726 0 0 0
143       28   1   -0.1534088000000000   11.4071367477504015 -12.5134012995089456  25.1095522592360609 0 0 0
144       28   1   -0.1534088000000000   11.1347065508896605 -10.3275580874511945  27.0152171999429669 0 0 0
145       28   2   -0.0102718000000000   9.6781479453546115  -10.9194375596640985  25.2599775847294907 0 0 0
146       29   1   -0.1534088000000000   2.2001415721100135   26.3712243399312811 -25.5216281124170834 0 0 0
147       29   3    0.4704982000000000   3.7090145279689835   25.4460404806569080 -25.4422863011472380 0 0 0
148       29   1   -0.1534088000000000   4.2199553558060430   25.2315429688986512 -23.7594714528057196 0 0 0
149       29   1   -0.1534088000000000   3.5189891962288056   23.8756157352082283 -26.2401559160464934 0 0 0
150       29   2   -0.0102718000000000   4.4850570647875587   26.0076804936147816 -25.9685622358933266 0 0 0
151       30   1   -0.1534088000000000   24.4332756024098536  4.8200719374078602  -4.4574184659767644  0 0 0
152       30   3    0.4704982000000000   25.4570835866431686  3.5835224528041740  -3.7079383281835958  0 0 0
153       30   1   -0.1534088000000000   26.4511029862323319  4.2926757108308262  -2.4242083660145370  0 0 0
154       30   1   -0.1534088000000000   24.4679202030262850  2.2594520158027649  -3.0697121076547766  0 0 0
155       30   2   -0.0102718000000000   26.1227216399982254  3.1774356000557740  -4.4738804490717134  0 0 0
156       31   1   -0.1534088000000000   19.3181772917703150 -17.5464065498258606 -26.5153337031528942 0 0 0
157       31   3    0.4704982000000000   18.1894038498212183 -18.2125971719299642 -25.3232689124762587 0 0 0
158       31   1   -0.1534088000000000   17.6122743436811255 -16.9404180865475986 -24.2335820612395487 0 0 0
159       31   1   -0.1534088000000000   16.8266638387462066 -19.0054337989418229 -26.1315319731710716 0 0 0
160       31   2   -0.0102718000000000   18.7192692604881756 -18.9609329772617912 -24.7283873682700985 0 0 0
161       32   1   -0.1534088000000000   24.4069316796140399  17.5433374092358925 -4.9364810462091935  0 0 0
162       32   3    0.4704982000000000   25.4841885867204745  18.1699078181233133 -3.6771617966945538  0 0 0
163       32   1   -0.1534088000000000   24.7361667599567667  19.5434996471885931 -2.8449092150162660  0 0 0
164       32   1   -0.1534088000000000   25.8996446224384229  16.8929597930193012 -2.5214198472229157  0 0 0
165       32   2   -0.0102718000000000   26.4051723695801606  18.5160839169399551 -4.1531858117584584  0 0 0
166       33   1   -0.1534088000000000  -19.7811766987323949  18.3866840320727540  17.6404605456446752 0 0 0
167       33   3    0.4704982000000000  -18.0811799285588748  18.2354559854269205  18.1159591815073640 0 0 0
168       33   1   -0.1534088000000000  -17.9495869244271411  17.8249744118378928  19.8344246844801333 0 0 0
169       33   1   -0.1534088000000000  -17.2622856786025274  17.0195451811975857  17.1210156887667893 0 0 0
170       33   2   -0.0102718000000000  -17.5915593541860993  19.1991289739718880  17.9539284841081006 0 0 0
171       34   1   -0.1534088000000000   10.5900434443209779  4.8652694945118879   19.3183813142109244 0 0 0
172       34   3    0.4704982000000000   10.8223753036215413  3.5339504353962803   18.1727071182069011 0 0 0
173       34   1   -0.1534088000000000   10.1677101065951128  3.9597959531278684   16.5824226780106656 0 0 0
174       34   1   -0.1534088000000000   12.5388095480133348  3.1132526961489617   18.0469839020876037 0 0 0
175       34   2   -0.0102718000000000   10.2805347481532596  2.6608891377164117   18.5452935719909533 0 0 0
176       35   1   -0.1534088000000000  -17.6837255076551259 -5.2899697260183727   11.1129384865159988 0 0 0
177       35   3    0.4704982000000000  -18.0411281055746286 -3.5658937219684321   10.9160039576502665 0 0 0
178       35   1   -0.1534088000000000  -18.3294122598367508 -3.1807136159336662   9.2108752064363255  0 0 0
179       35   1   -0.1534088000000000  -19.4373363814923401 -3.1028265717364336   11.9034808914745014 0 0 0
180       35   2   -0.0102718000000000  -17.1741863299482134 -2.9937540812444992   11.2561746086271164 0 0 0
181       36   1   -0.1534088000000000   19.5631767250571826 -2.6712632081206671  -18.3887152247552130 0 0 0
182       36   3    0.4704982000000000   18.0676083153862237 -3.6072399068302947  -18.2269108834447984 0 0 0
183       36   1   -0.1534088000000000   18.4239788885122771 -5.3407727200806736  -18.1444516456722411 0 0 0
184       36   1   -0.1534088000000000   17.1608896886313751 -3.0893372821976044  -16.7956255752359915 0 0 0
185       36   2   -0.0102718000000000   17.4501349669199968 -3.4245445996721728  -19.1100852553987792 0 0 0
186       37   1   -0.1534088000000000   4.0020351271165815   11.3299985353129617  23.7495117397886197 0 0 0
187       37   3    0.4704982000000000   3.7142021642475544   10.8110467302228468  25.4188826101705558 0 0 0
188       37   1   -0.1534088000000000   3.6710181755478097   12.2088485572165553  26.5066421063244739 0 0 0
189       37   1   -0.1534088000000000   2.2067653100784623   9.8870965245576272   25.5324148890343068 0 0 0
190       37   2   -0.0102718000000000   4.5391369399109784   10.1624828033942265  25.7246526729919189 0 0 0
191       38   1   -0.1534088000000000  -5.0537405631984686  -25.9347245179326436 -11.7079740599025968 0 0 0
192       38   3    0.4704982000000000  -3.5409369548356313  -25.3995237349842284 -10.9570125043914128 0 0 0
193       38   1   -0.1534088000000000  -3.6370054578864948  -23.6863317533374200 -10.5157873887841511 0 0 0
194       38   1   -0.1534088000000000  -3.1677804653410977  -26.3885502975885160 -9.5352107871990075  0 0 0
195       38   2   -0.0102718000000000  -2.7336942756397127  -25.5229737144670530 -11.6834884104270422 0 0 0
196       39   1   -0.1534088000000000   12.0653384610333791 -11.0203703248043237 -26.6505339957977192 0 0 0
197       39   3    0.4704982000000000   10.8428224515966196 -10.9883842926448061 -25.3685864953837985 0 0 0
198       39   1   -0.1534088000000000   11.5411844584786785 -10.3821684364322895 -23.8573855263131094 0 0 0
199       39   1   -0.1534088000000000   9.4565234426789555  -9.9981686911273471  -25.8549891583959663 0 0 0
200       39   2   -0.0102718000000000   10.4936043369165741 -12.0103814056954459 -25.2006088424192640 0 0 0
201       40   1   -0.1534088000000000   26.4747446101416770  10.2209203651942211  16.9481273924322124 0 0 0
202       40   3    0.4704982000000000   25.4384105962620524  10.9767460043315133  18.1702964921474859 0 0 0
203       40   1   -0.1534088000000000   23.8714032739755027  11.4179062596628231  17.4711532972894119 0 0 0
204       40   1   -0.1534088000000000   25.2193590950553705  9.8948082864150191   19.5560694333498901 0 0 0
205       40   2   -0.0102718000000000   25.9281864428752442  11.8890922351006285  18.5201419692880656 0 0 0
206       41   1   -0.1534088000000000   16.5416532575677593  18.7775729812424288 -18.4067179159972909 0 0 0
207       41   3    0.4704982000000000   18.1185119161567130  18.0521774317128383 -18.0513646256569622 0 0 0
208       41   1   -0.1534088000000000   18.7844793276075244  17.2718184721239290 -19.4958239802165920 0 0 0
209       41   1   -0.1534088000000000   19.2406204048173493  19.2748778829047502 -17.4310295738254197 0 0 0
210       41   2   -0.0102718000000000   17.9805236783577342  17.2893418165231161 -17.2808524888107868 0 0 0
211       42   1   -0.1534088000000000   10.9148766682338678  23.9792371931049502  11.9004842649669786 0 0 0
212       42   3    0.4704982000000000   10.9050951753577472  25.3465767961250243  10.7738766909599448 0 0 0
213       42   1   -0.1534088000000000   9.3014586904053029   26.0978788620678692  10.7206718440060964 0 0 0
214       42   1   -0.1534088000000000   12.1355423002817400  26.5371926174837220  11.2292592432131393 0 0 0
215       42   2   -0.0102718000000000   11.1425003164255507  24.9712185495283236  9.7751811075580584  0 0 0
216       43   1   -0.1534088000000000   23.6940590266516828  3.2297380017252166  -10.9170401794174090 0 0 0
217       43   3    0.4704982000000000   25.3906784061121691  3.7399199765661924  -10.9045932044247138 0 0 0
218       43   1   -0.1534088000000000   26.1037243460301056  3.4913721565352107  -9.3018689628209383  0 0 0
219       43   1   -0.1534088000000000   26.3128802048926538  2.8650137014319714  -12.1387010936535287 0 0 0
220       43   2   -0.0102718000000000   25.4307620346232746  4.8071138806428024  -11.1372697103876384 0 0 0
221       44   1   -0.1534088000000000  -18.7997010168192844  11.7206602786899481  2.2584846897573301  0 0 0
222       44   3    0.4704982000000000  -18.0182107124246258  10.8879100369131621  3.6130170195146691  0 0 0
223       44   1   -0.1534088000000000  -18.4526433196172235  11.6552942329406868  5.1496774671721965  0 0 0
224       44   1   -0.1534088000000000  -18.4598390818145930  9.1721881597035129   3.6272386092343547  0 0 0
225       44   2   -0.0102718000000000  -16.9353944538313215  10.9634204424568935  3.4847399312228702  0 0 0
226       45   1   -0.1534088000000000   18.9767409405706182  2.2179554915948696  -25.9582527592172063 0 0 0
227       45   3    0.4704982000000000   18.1499031568251823  3.6264356016164148  -25.2716080530957434 0 0 0
228       45   1   -0.1534088000000000   18.8237640222714262  5.1264891735960028  -25.9309155239402074 0 0 0
229       45   1   -0.1534088000000000   16.4077277983823429  3.5377137739102742  -25.5812738211797210 0 0 0
230       45   2   -0.0102718000000000   18.3076526664574750  3.6245636761838584  -24.1900538608769970 0 0 0
231       46   1   -0.1534088000000000   12.6027130262558575  10.9800700976227308 -3.4148431838171112  0 0 0
232       46   3    0.4704982000000000   10.8619854683669832  10.9100864736563885 -3.7372214631455529  0 0 0
233       46   1   -0.1534088000000000   10.2511519256765027  9.2636317346477615  -3.5026906519069527  0 0 0
234       46   1   -0.1534088000000000   9.9903213117535952   12.0511733191731985 -2.6994055646047936  0 0 0
235       46   2   -0.0102718000000000   10.6933014186512576  11.1945115256041330 -4.7789968534269827  0 0 0
236       47   1   -0.1534088000000000   3.5360980935044131  -5.3554636548061243   10.7188484116803675 0 0 0
237       47   3    0.4704982000000000   3.7302618480861827  -3.6069139771060565   10.9282101904789197 0 0 0
238       47   1   -0.1534088000000000   3.6799333287269844  -2.7828718117208746   9.3606142362526992  0 0 0
239       47   1   -0.1534088000000000   2.4803879357539129  -2.9667122613319572   12.0084399792697685 0 0 0
240       47   2   -0.0102718000000000   4.7064765108298987  -3.4211960119363751   11.3833603330224609 0 0 0
241       48   1   -0.1534088000000000   24.0193774762466496  9.8227422368856256   10.6885467325093551 0 0 0
242       48   3    0.4704982000000000   25.4788729198184676  10.8119480582803007  10.8626236882271776 0 0 0
243       48   1   -0.1534088000000000   25.5028147247816399  12.1047204649580955  9.6513839017242695  0 0 0
244       48   1   -0.1534088000000000   25.5812664054571570  11.4882035127955682  12.4969839803712031 0 0 0
245       48   2   -0.0102718000000000   26.3497724920059575  10.1718588777846435  10.6999348478722194 0 0 0
246       49   1   -0.1534088000000000  -25.0451909299378812 -26.0813439648687613 -16.5763543790258154 0 0 0
247       49   3    0.4704982000000000  -25.3656309092978525 -25.4719126848875916 -18.2087972196815855 0 0 0
248       49   1   -0.1534088000000000  -27.0614982472996033 -24.9850242640319564 -18.3697604559672989 0 0 0
249       49   1   -0.1534088000000000  -24.2900131066388312 -24.1165510767994284 -18.5895605111418298 0 0 0
250       49   2   -0.0102718000000000  -25.1697708251357000 -26.2772720277221126 -18.9213160186905220 0 0 0
251       50   1   -0.1534088000000000   4.6201973267347212   5.0507335763686800  -3.5385798920069598  0 0 0
252       50   3    0.4704982000000000   3.5785115814274033   3.6177106900852385  -3.5214302910961903  0 0 0
253       50   1   -0.1534088000000000   2.2805068344644805   3.7773053379271335  -4.7166912463448547  0 0 0
254       50   1   -0.1534088000000000   4.5287086065394497   2.1537187798245707  -3.8260492832150823  0 0 0
255       50   2   -0.0102718000000000   3.1252333677353485   3.5336893326957632  -2.5304070042383264  0 0 0
256       51   1   -0.1534088000000000   5.1832494386534851   25.8131405378209067 -4.2730398169338688  0 0 0
257       51   3    0.4704982000000000   3.6414014460607316   25.2804592239989923 -3.5817270953362974  0 0 0
258       51   1   -0.1534088000000000   3.1321971594135745   26.3710872800845841 -2.2816590341798313  0 0 0
259       51   1   -0.1534088000000000   2.3957524155972449   25.1851370288725107 -4.8379960164760494  0 0 0
260       51   2   -0.0102718000000000   3.7805572571763477   24.2822799475328743 -3.1587357539753600  0 0 0
261       52   1   -0.1534088000000000  -5.0435125089681296   17.8235784066761731 -11.8388532525846379 0 0 0
262       52   3    0.4704982000000000  -3.5639887588371297   18.0357959403656807 -10.8875745948859421 0 0 0
263       52   1   -0.1534088000000000  -2.5967344870031166   19.3734815855659583 -11.5309654668634565 0 0 0
264       52   1   -0.1534088000000000  -3.9550165539077526   18.3143142374972605 -9.1821525791241179  0 0 0
265       52   2   -0.0102718000000000  -2.9739054081852676   17.1186184144019968 -10.9599272572460613 0 0 0
266       53   1   -0.1534088000000000  -11.5854608578909009 -5.2114204150590062  -10.7632190543513389 0 0 0
267       53   3    0.4704982000000000  -10.7796797314353210 -3.6430409009256621  -10.9360205858689081 0 0 0
268       53   1   -0.1534088000000000  -11.7775309606882939 -2.5322245903706708  -11.8896009833097018 0 0 0
269       53   1   -0.1534088000000000  -10.4211626874822461 -2.9488266081930274  -9.3459037740714628  0 0 0
270       53   2   -0.0102718000000000  -9.8356389132074682  -3.7976452023530185  -11.4647287531028130 0 0 0
271       54   1   -0.1534088000000000   10.9424824836226140  11.5791886917777962  16.5425404670641605 0 0 0
272       54   3    0.4704982000000000   10.9077901075533976  10.9668667872247081  18.2047126054563115 0 0 0