
                                 *****************
                                 * O   R   C   A *
                                 *****************

           --- An Ab Initio, DFT and Semiempirical electronic structure package ---

                  #######################################################
                  #                        -***-                        #
                  #          Department of theory and spectroscopy      #
                  #               Directorship: Frank Neese             #
                  #        Max Planck Institute fuer Kohlenforschung    #
                  #                Kaiser Wilhelm Platz 1               #
                  #                 D-45470 Muelheim/Ruhr               #
                  #                      Germany                        #
                  #                                                     #
                  #                  All rights reserved                #
                  #                        -***-                        #
                  #######################################################


                         Program Version 4.1.2  - RELEASE  -


 With contributions from (in alphabetic order):
   Daniel Aravena         : Magnetic Properties
   Michael Atanasov       : Ab Initio Ligand Field Theory
   Alexander A. Auer      : GIAO ZORA
   Ute Becker             : Parallelization
   Giovanni Bistoni       : ED, Open-shell LED
   Martin Brehm           : Molecular dynamics
   Dmytro Bykov           : SCF Hessian
   Vijay G. Chilkuri      : MRCI spin determinant printing
   Dipayan Datta          : RHF DLPNO-CCSD density
   Achintya Kumar Dutta   : EOM-CC, STEOM-CC
   Dmitry Ganyushin       : Spin-Orbit,Spin-Spin,Magnetic field MRCI
   Miquel Garcia          : C-PCM Hessian
   Yang Guo               : DLPNO-NEVPT2, CIM, IAO-localization
   Andreas Hansen         : Spin unrestricted coupled pair/coupled cluster methods
   Benjamin Helmich-Paris : CASSCF linear response (MC-RPA)
   Lee Huntington         : MR-EOM, pCC
   Robert Izsak           : Overlap fitted RIJCOSX, COSX-SCS-MP3, EOM
   Christian Kollmar      : KDIIS, OOCD, Brueckner-CCSD(T), CCSD density
   Simone Kossmann        : Meta GGA functionals, TD-DFT gradient, OOMP2, MP2 Hessian
   Martin Krupicka        : AUTO-CI
   Lucas Lang             : DCDCAS
   Dagmar Lenk            : GEPOL surface, SMD
   Dimitrios Liakos       : Extrapolation schemes; parallel MDCI
   Dimitrios Manganas     : ROCIS; embedding schemes
   Dimitrios Pantazis     : SARC Basis sets
   Taras Petrenko         : DFT Hessian,TD-DFT gradient, ASA, ECA, R-Raman, ABS, FL, XAS/XES, NRVS
   Peter Pinski           : DLPNO-MP2, DLPNO-MP2 Gradient
   Christoph Reimann      : Effective Core Potentials
   Marius Retegan         : Local ZFS, SOC
   Christoph Riplinger    : Optimizer, TS searches, QM/MM, DLPNO-CCSD(T), (RO)-DLPNO pert. Triples
   Tobias Risthaus        : Range-separated hybrids, TD-DFT gradient, RPA, STAB
   Michael Roemelt        : Restricted open shell CIS
   Masaaki Saitow         : Open-shell DLPNO
   Barbara Sandhoefer     : DKH picture change effects
   Avijit Sen             : IP-ROCIS
   Kantharuban Sivalingam : CASSCF convergence, NEVPT2, FIC-MRCI
   Bernardo de Souza      : ESD, SOC TD-DFT
   Georgi Stoychev        : AutoAux, RI-MP2 NMR
   Willem Van den Heuvel  : Paramagnetic NMR
   Boris Wezisla          : Elementary symmetry handling
   Frank Wennmohs         : Technical directorship


 We gratefully acknowledge several colleagues who have allowed us to
 interface, adapt or use parts of their codes:
   Stefan Grimme, W. Hujo, H. Kruse,             : VdW corrections, initial TS optimization,
                  C. Bannwarth                     DFT functionals, gCP, sTDA/sTD-DF
   Ed Valeev                                     : LibInt (2-el integral package), F12 methods
   Garnet Chan, S. Sharma, J. Yang, R. Olivares  : DMRG
   Ulf Ekstrom                                   : XCFun DFT Library
   Mihaly Kallay                                 : mrcc  (arbitrary order and MRCC methods)
   Andreas Klamt, Michael Diedenhofen            : otool_cosmo (COSMO solvation model)
   Jiri Pittner, Ondrej Demel                    : Mk-CCSD
   Frank Weinhold                                : gennbo (NPA and NBO analysis)
   Christopher J. Cramer and Donald G. Truhlar   : smd solvation model
   Lars Goerigk                                  : TD-DFT with DH, B97 family of functionals
   V. Asgeirsson, H. Jonsson                     : NEB implementation
   FAccTs GmbH                                   : IRC, NEB, NEB-TS, Multilevel


 Your calculation uses the libint2 library for the computation of 2-el integrals
 For citations please refer to: http://libint.valeyev.net

 This ORCA versions uses:
   CBLAS   interface :  Fast vector & matrix operations
   LAPACKE interface :  Fast linear algebra routines
   SCALAPACK package :  Parallel linear algebra routines


Your calculation utilizes the atom-pairwise dispersion correction
with the zero-damping scheme (D30)
Cite in your paper:
S.Grimme, J.Antony, S.Ehrlich and H.Krieg, J.Chem.Phys., 132, (2010), 154104 
   

XCFun DFT library Copyright 2009-2010 Ulf Ekstrom and contributors.
See http://admol.org/xcfun for more information. This is free soft-
ware; see the source code for copying conditions. There is ABSOLUTELY
NO WARRANTY; not even for MERCHANTABILITY or FITNESS FOR A PARTICULAR
PURPOSE. For details see the documentation. Scientific users of this 
library should cite U. Ekstrom, L. Visscher, R. Bast, A. J. Thorvald-
sen and K. Ruud; J.Chem.Theor.Comp. 2010, DOI: 10.1021/ct100117s
XCFun Version 0.99 
----- Orbital basis set information -----
Your calculation utilizes the basis: def2-TZVP
   F. Weigend and R. Ahlrichs, Phys. Chem. Chem. Phys. 7, 3297 (2005).

================================================================================
                                        WARNINGS
                       Please study these warnings very carefully!
================================================================================


INFO   : the flag for use of LIBINT has been found!

Your calculation utilizes the atom-pairwise dispersion correction
with the zero-damping scheme (D30)
Cite in your paper:
S.Grimme, J.Antony, S.Ehrlich and H.Krieg, J.Chem.Phys., 132, (2010), 154104 
   

XCFun DFT library Copyright 2009-2010 Ulf Ekstrom and contributors.
See http://admol.org/xcfun for more information. This is free soft-
ware; see the source code for copying conditions. There is ABSOLUTELY
NO WARRANTY; not even for MERCHANTABILITY or FITNESS FOR A PARTICULAR
PURPOSE. For details see the documentation. Scientific users of this 
library should cite U. Ekstrom, L. Visscher, R. Bast, A. J. Thorvald-
sen and K. Ruud; J.Chem.Theor.Comp. 2010, DOI: 10.1021/ct100117s
XCFun Version 0.99 
----- Orbital basis set information -----
Your calculation utilizes the basis: def2-TZVP
   F. Weigend and R. Ahlrichs, Phys. Chem. Chem. Phys. 7, 3297 (2005).

================================================================================
                                        WARNINGS
                       Please study these warnings very carefully!
================================================================================


WARNING: MOInp is set but Guess=PModel. MOInp will be ignored!
         To read the initial guess from a file you must also specify
         'MORead' in the simple input or 'Guess MORead' in the %scf block


INFO   : the flag for use of LIBINT has been found!

Your calculation utilizes the atom-pairwise dispersion correction
with the zero-damping scheme (D30)
Cite in your paper:
S.Grimme, J.Antony, S.Ehrlich and H.Krieg, J.Chem.Phys., 132, (2010), 154104 
   

XCFun DFT library Copyright 2009-2010 Ulf Ekstrom and contributors.
See http://admol.org/xcfun for more information. This is free soft-
ware; see the source code for copying conditions. There is ABSOLUTELY
NO WARRANTY; not even for MERCHANTABILITY or FITNESS FOR A PARTICULAR
PURPOSE. For details see the documentation. Scientific users of this 
library should cite U. Ekstrom, L. Visscher, R. Bast, A. J. Thorvald-
sen and K. Ruud; J.Chem.Theor.Comp. 2010, DOI: 10.1021/ct100117s
XCFun Version 0.99 
----- Orbital basis set information -----
Your calculation utilizes the basis: def2-TZVP
   F. Weigend and R. Ahlrichs, Phys. Chem. Chem. Phys. 7, 3297 (2005).

================================================================================
                                        WARNINGS
                       Please study these warnings very carefully!
================================================================================


WARNING: MOInp is set but Guess=PModel. MOInp will be ignored!
         To read the initial guess from a file you must also specify
         'MORead' in the simple input or 'Guess MORead' in the %scf block


INFO   : the flag for use of LIBINT has been found!

================================================================================
                                       INPUT FILE
================================================================================
NAME = 4-113.in
|  1> #Run DFT-D3 single point of the dimer
|  2> ! wB97X-D3 def2-TZVP TIGHTSCF CHELPG PMODEL PAL8
|  3> 
|  4> %base "4-113_DFT_AB"
|  5> 
|  6> %scf
|  7> MaxIter 1000
|  8> end
|  9> 
| 10> * xyz 0 1
| 11>   C                      2.306363             7.977900             -7.049044           
| 12>   O                      3.680497             7.508819             -7.003539           
| 13>   H                      3.822370             6.627895             -7.386926           
| 14>   H                      2.324172             9.011762             -7.391483           
| 15>   H                      1.650519             7.439648             -7.782240           
| 16>   H                      1.747418             7.886337             -6.125104           
| 17>   C                      5.147577             7.515241             -3.265000           
| 18>   O                      3.716713             7.577363             -3.335981           
| 19>   H                      3.412833             6.771940             -3.793769           
| 20>   H                      5.660477             8.347349             -2.790045           
| 21>   H                      5.521592             6.700084             -2.687815           
| 22>   H                      5.589001             7.427400             -4.268107           
| 23> *
| 24> 
| 25> #Run DFT-D3 single point of the molecule with dimer basis set
| 26> $new_job
| 27> %base "4-113_DFT_A"
| 28> ! wB97X-D3 def2-TZVP TIGHTSCF CHELPG PMODEL
| 29> 
| 30> %scf
| 31> MaxIter 1000
| 32> end
| 33> 
| 34> * xyz 0 1
| 35>   C                      2.306363             7.977900             -7.049044           
| 36>   O                      3.680497             7.508819             -7.003539           
| 37>   H                      3.822370             6.627895             -7.386926           
| 38>   H                      2.324172             9.011762             -7.391483           
| 39>   H                      1.650519             7.439648             -7.782240           
| 40>   H                      1.747418             7.886337             -6.125104           
| 41>   C                    : 5.147577             7.515241             -3.265000           
| 42>   O                    : 3.716713             7.577363             -3.335981           
| 43>   H                    : 3.412833             6.771940             -3.793769           
| 44>   H                    : 5.660477             8.347349             -2.790045           
| 45>   H                    : 5.521592             6.700084             -2.687815           
| 46>   H                    : 5.589001             7.427400             -4.268107           
| 47> *
| 48> 
| 49> #Run DFT-D3 single point of the particle with dimer basis set
| 50> $new_job
| 51> %base "4-113_DFT_B"
| 52> ! wB97X-D3 def2-TZVP TIGHTSCF CHELPG PMODEL
| 53> 
| 54> %scf
| 55> MaxIter 1000
| 56> end
| 57> 
| 58> * xyz 0 1
| 59>   C                    : 2.306363             7.977900             -7.049044           
| 60>   O                    : 3.680497             7.508819             -7.003539           
| 61>   H                    : 3.822370             6.627895             -7.386926           
| 62>   H                    : 2.324172             9.011762             -7.391483           
| 63>   H                    : 1.650519             7.439648             -7.782240           
| 64>   H                    : 1.747418             7.886337             -6.125104           
| 65>   C                      5.147577             7.515241             -3.265000           
| 66>   O                      3.716713             7.577363             -3.335981           
| 67>   H                      3.412833             6.771940             -3.793769           
| 68>   H                      5.660477             8.347349             -2.790045           
| 69>   H                      5.521592             6.700084             -2.687815           
| 70>   H                      5.589001             7.427400             -4.268107           
| 71> *
| 72> 
| 73>                          ****END OF INPUT****
================================================================================


                 $$$$$$$$$$$$$$$$$$$$$$$$$$$$$$$$$$$$$$$$$$$$$$ 
                 $ THERE ARE  3 JOBS TO BE PROCESSED THIS RUN $
                 $$$$$$$$$$$$$$$$$$$$$$$$$$$$$$$$$$$$$$$$$$$$$$ 




                 $$$$$$$$$$$$$$$$  JOB NUMBER  1 $$$$$$$$$$$$$$


                       ****************************
                       * Single Point Calculation *
                       ****************************

---------------------------------
CARTESIAN COORDINATES (ANGSTROEM)
---------------------------------
  C      2.306363    7.977900   -7.049044
  O      3.680497    7.508819   -7.003539
  H      3.822370    6.627895   -7.386926
  H      2.324172    9.011762   -7.391483
  H      1.650519    7.439648   -7.782240
  H      1.747418    7.886337   -6.125104
  C      5.147577    7.515241   -3.265000
  O      3.716713    7.577363   -3.335981
  H      3.412833    6.771940   -3.793769
  H      5.660477    8.347349   -2.790045
  H      5.521592    6.700084   -2.687815
  H      5.589001    7.427400   -4.268107

----------------------------
CARTESIAN COORDINATES (A.U.)
----------------------------
  NO LB      ZA    FRAG     MASS         X           Y           Z
   0 C     6.0000    0    12.011    4.358394   15.076046  -13.320763
   1 O     8.0000    0    15.999    6.955131   14.189611  -13.234771
   2 H     1.0000    0     1.008    7.223232   12.524906  -13.959267
   3 H     1.0000    0     1.008    4.392049   17.029762  -13.967879
   4 H     1.0000    0     1.008    3.119029   14.058897  -14.706302
   5 H     1.0000    0     1.008    3.302141   14.903017  -11.574769
   6 C     6.0000    0    12.011    9.727511   14.201747   -6.169956
   7 O     8.0000    0    15.999    7.023570   14.319141   -6.304090
   8 H     1.0000    0     1.008    6.449320   12.797112   -7.169184
   9 H     1.0000    0     1.008   10.696751   15.774204   -5.272421
  10 H     1.0000    0     1.008   10.434297   12.661324   -5.079234
  11 H     1.0000    0     1.008   10.561681   14.035752   -8.065553

--------------------------------
INTERNAL COORDINATES (ANGSTROEM)
--------------------------------
 C      0   0   0     0.000000000000     0.00000000     0.00000000
 O      1   0   0     1.452705042169     0.00000000     0.00000000
 H      2   1   0     0.971154279028   114.75383437     0.00000000
 H      1   2   3     1.089243895666   107.50964008   225.36282791
 H      1   2   3     1.121348715724   114.75409608   341.80059988
 H      1   2   3     1.083728941938   115.71392625   100.82054273
 C      2   1   3     4.016097461841   111.97397394   235.89044522
 O      7   2   1     1.433969745755    65.76261478    17.65211713
 H      8   7   2     0.974996982699   107.36465663    60.41075161
 H      7   2   1     1.086762340942   125.48296778   270.32793361
 H      7   2   1     1.066541456812   129.09841796   119.96638721
 H      7   2   1     1.099452064669    45.34980806   194.05937628

---------------------------
INTERNAL COORDINATES (A.U.)
---------------------------
 C      0   0   0     0.000000000000     0.00000000     0.00000000
 O      1   0   0     2.745214683065     0.00000000     0.00000000
 H      2   1   0     1.835215621148   114.75383437     0.00000000
 H      1   2   3     2.058372655855   107.50964008   225.36282791
 H      1   2   3     2.119041973343   114.75409608   341.80059988
 H      1   2   3     2.047950903667   115.71392625   100.82054273
 C      2   1   3     7.589324330016   111.97397394   235.89044522
 O      7   2   1     2.709810103806    65.76261478    17.65211713
 H      8   7   2     1.842477278701   107.36465663    60.41075161
 H      7   2   1     2.053683197039   125.48296778   270.32793361
 H      7   2   1     2.015471263848   129.09841796   119.96638721
 H      7   2   1     2.077663299600    45.34980806   194.05937628

---------------------
BASIS SET INFORMATION
---------------------
There are 3 groups of distinct atoms

 Group   1 Type C   : 11s6p2d1f contracted to 5s3p2d1f pattern {62111/411/11/1}
 Group   2 Type O   : 11s6p2d1f contracted to 5s3p2d1f pattern {62111/411/11/1}
 Group   3 Type H   : 5s1p contracted to 3s1p pattern {311/1}

Atom   0C    basis set group =>   1
Atom   1O    basis set group =>   2
Atom   2H    basis set group =>   3
Atom   3H    basis set group =>   3
Atom   4H    basis set group =>   3
Atom   5H    basis set group =>   3
Atom   6C    basis set group =>   1
Atom   7O    basis set group =>   2
Atom   8H    basis set group =>   3
Atom   9H    basis set group =>   3
Atom  10H    basis set group =>   3
Atom  11H    basis set group =>   3


           ************************************************************
           *        Program running with 8 parallel MPI-processes     *
           *              working on a common directory               *
           ************************************************************
------------------------------------------------------------------------------
                           ORCA GTO INTEGRAL CALCULATION
------------------------------------------------------------------------------

                         BASIS SET STATISTICS AND STARTUP INFO

 # of primitive gaussian shells          ...  128
 # of primitive gaussian functions       ...  248
 # of contracted shells                  ...   76
 # of contracted basis functions         ...  172
 Highest angular momentum                ...    3
 Maximum contraction depth               ...    6
 Integral package used                   ... LIBINT
 Integral threshhold            Thresh   ...  2.500e-11
 Primitive cut-off              TCut     ...  2.500e-12


------------------------------ INTEGRAL EVALUATION ----------------------------


 * One electron integrals 
 Pre-screening matrix                    ... done
 Shell pair data                         ... done (   0.001 sec)



           ************************************************************
           *        Program running with 8 parallel MPI-processes     *
           *              working on a common directory               *
           ************************************************************
-------------------------------------------------------------------------------
                                 ORCA SCF
-------------------------------------------------------------------------------

------------
SCF SETTINGS
------------
Hamiltonian:
 Density Functional     Method          .... DFT(GTOs)
 Exchange Functional    Exchange        .... WB97X-D3
 Correlation Functional Correlation     .... WB97X-D3
 Gradients option       PostSCFGGA      .... off
 Hybrid DFT is turned on
   Fraction HF Exchange ScalHFX         ....  0.195728
   Scaling of DF-GGA-X  ScalDFX         ....  0.000000
   Scaling of DF-GGA-C  ScalDFC         ....  1.000000
   Scaling of DF-LDA-C  ScalLDAC        ....  1.000000
   Perturbative correction              ....  0.000000
   Density functional embedding theory  .... OFF
 Long-range corrected/Screened/Range-Separated Hybrid DFT is turned on
   Amount of maximum screened exact exchange              ....  0.804272
   Range separation parameter mu (erf(mu*r12)/r12)        ....  0.250000


General Settings:
 Integral files         IntName         .... 4-113_DFT_AB
 Hartree-Fock type      HFTyp           .... RHF
 Total Charge           Charge          ....    0
 Multiplicity           Mult            ....    1
 Number of Electrons    NEL             ....   36
 Basis Dimension        Dim             ....  172
 Nuclear Repulsion      ENuc            ....    120.9984176374 Eh

Convergence Acceleration:
 DIIS                   CNVDIIS         .... on
   Start iteration      DIISMaxIt       ....    12
   Startup error        DIISStart       ....  0.200000
   # of expansion vecs  DIISMaxEq       ....     5
   Bias factor          DIISBfac        ....   1.050
   Max. coefficient     DIISMaxC        ....  10.000
 Newton-Raphson         CNVNR           .... off
 SOSCF                  CNVSOSCF        .... on
   Start iteration      SOSCFMaxIt      ....   150
   Startup grad/error   SOSCFStart      ....  0.003300
 Level Shifting         CNVShift        .... on
   Level shift para.    LevelShift      ....    0.2500
   Turn off err/grad.   ShiftErr        ....    0.0010
 Zerner damping         CNVZerner       .... off
 Static damping         CNVDamp         .... on
   Fraction old density DampFac         ....    0.7000
   Max. Damping (<1)    DampMax         ....    0.9800
   Min. Damping (>=0)   DampMin         ....    0.0000
   Turn off err/grad.   DampErr         ....    0.1000
 Fernandez-Rico         CNVRico         .... off

SCF Procedure:
 Maximum # iterations   MaxIter         ....  1000
 SCF integral mode      SCFMode         .... Direct
   Integral package                     .... LIBINT
 Reset frequency        DirectResetFreq ....    20
 Integral Threshold     Thresh          ....  2.500e-11 Eh
 Primitive CutOff       TCut            ....  2.500e-12 Eh

Convergence Tolerance:
 Convergence Check Mode ConvCheckMode   .... Total+1el-Energy
 Convergence forced     ConvForced      .... 0
 Energy Change          TolE            ....  1.000e-08 Eh
 1-El. energy change                    ....  1.000e-05 Eh
 Orbital Gradient       TolG            ....  1.000e-05
 Orbital Rotation angle TolX            ....  1.000e-05
 DIIS Error             TolErr          ....  5.000e-07


Diagonalization of the overlap matrix:
Smallest eigenvalue                        ... 1.511e-03
Time for diagonalization                   ...    0.004 sec
Threshold for overlap eigenvalues          ... 1.000e-08
Number of eigenvalues below threshold      ... 0
Time for construction of square roots      ...    0.005 sec
Total time needed                          ...    0.008 sec

-------------------
DFT GRID GENERATION
-------------------

General Integration Accuracy     IntAcc      ...  4.340
Radial Grid Type                 RadialGrid  ... Gauss-Chebyshev
Angular Grid (max. acc.)         AngularGrid ... Lebedev-110
Angular grid pruning method      GridPruning ... 3 (G Style)
Weight generation scheme         WeightScheme... Becke
Basis function cutoff            BFCut       ...    1.0000e-11
Integration weight cutoff        WCut        ...    1.0000e-14
Grids for H and He will be reduced by one unit

# of grid points (after initial pruning)     ...  13096 (   0.0 sec)
# of grid points (after weights+screening)   ...  12532 (   0.0 sec)
nearest neighbour list constructed           ...    0.0 sec
Grid point re-assignment to atoms done       ...    0.0 sec
Grid point division into batches done        ...    0.0 sec
Reduced shell lists constructed in    0.0 sec

Total number of grid points                  ...    12532
Total number of batches                      ...      201
Average number of points per batch           ...       62
Average number of grid points per atom       ...     1044
Average number of shells per batch           ...    53.67 (70.61%)
Average number of basis functions per batch  ...   119.59 (69.53%)
Average number of large shells per batch     ...    44.26 (82.47%)
Average number of large basis fcns per batch ...    97.89 (81.85%)
Maximum spatial batch extension              ...  10.74, 10.60, 10.38 au
Average spatial batch extension              ...   0.25,  0.27,  0.28 au

Time for grid setup =    0.037 sec

------------------------------
INITIAL GUESS: MODEL POTENTIAL
------------------------------
Loading Hartree-Fock densities                     ... done
Calculating cut-offs                               ... done
Setting up the integral package                    ... done
Initializing the effective Hamiltonian             ... done
Starting the Coulomb interaction                   ... done (   0.0 sec)
Reading the grid                                   ... done
Mapping shells                                     ... done
Starting the XC term evaluation                    ... done (   0.0 sec)
  promolecular density results
     # of electrons  =     35.992955714
     EX              =    -28.835363855
     EC              =     -1.147085971
     EX+EC           =    -29.982449826
Transforming the Hamiltonian                       ... done (   0.0 sec)
Diagonalizing the Hamiltonian                      ... done (   0.0 sec)
Back transforming the eigenvectors                 ... done (   0.0 sec)
Now organizing SCF variables                       ... done
                      ------------------
                      INITIAL GUESS DONE (   0.1 sec)
                      ------------------
--------------
SCF ITERATIONS
--------------
ITER       Energy         Delta-E        Max-DP      RMS-DP      [F,P]     Damp
               ***  Starting incremental Fock matrix formation  ***
  0   -231.2961631683   0.000000000000 0.03672024  0.00104335  0.2479583 0.7000
  1   -231.3676474945  -0.071484326224 0.02159466  0.00074414  0.1245449 0.7000
                               ***Turning on DIIS***
  2   -231.4005481506  -0.032900656126 0.03136792  0.00134461  0.0489716 0.0000
  3   -231.4542500828  -0.053701932173 0.01819850  0.00049373  0.0613426 0.0000
  4   -231.4629520115  -0.008701928714 0.00403928  0.00009615  0.0070048 0.0000
                      *** Initiating the SOSCF procedure ***
                           *** Shutting down DIIS ***
                      *** Re-Reading the Fockian *** 
                      *** Removing any level shift *** 
ITER      Energy       Delta-E        Grad      Rot      Max-DP    RMS-DP
  5   -231.46313210  -0.0001800913  0.000429  0.000429  0.000744  0.000033
               *** Restarting incremental Fock matrix formation ***
  6   -231.46314862  -0.0000165146  0.000126  0.000169  0.000506  0.000020
  7   -231.46315018  -0.0000015594  0.000041  0.000091  0.000251  0.000009
  8   -231.46315031  -0.0000001288  0.000025  0.000021  0.000050  0.000001
  9   -231.46315032  -0.0000000188  0.000012  0.000009  0.000020  0.000001
                  ***Gradient check signals convergence***
              ***Rediagonalizing the Fockian in SOSCF/NRSCF***

               *****************************************************
               *                     SUCCESS                       *
               *           SCF CONVERGED AFTER  10 CYCLES          *
               *****************************************************

Setting up the final grid:

General Integration Accuracy     IntAcc      ...  4.670
Radial Grid Type                 RadialGrid  ... Gauss-Chebyshev
Angular Grid (max. acc.)         AngularGrid ... Lebedev-302
Angular grid pruning method      GridPruning ... 3 (G Style)
Weight generation scheme         WeightScheme... Becke
Basis function cutoff            BFCut       ...    1.0000e-11
Integration weight cutoff        WCut        ...    1.0000e-14
Grids for H and He will be reduced by one unit

# of grid points (after initial pruning)     ...  52000 (   0.0 sec)
# of grid points (after weights+screening)   ...  49243 (   0.0 sec)
nearest neighbour list constructed           ...    0.0 sec
Grid point re-assignment to atoms done       ...    0.0 sec
Grid point division into batches done        ...    0.2 sec
Reduced shell lists constructed in    0.2 sec

Total number of grid points                  ...    49243
Total number of batches                      ...      777
Average number of points per batch           ...       63
Average number of grid points per atom       ...     4104
Average number of shells per batch           ...    52.89 (69.59%)
Average number of basis functions per batch  ...   117.01 (68.03%)
Average number of large shells per batch     ...    43.03 (81.36%)
Average number of large basis fcns per batch ...    95.11 (81.28%)
Maximum spatial batch extension              ...  11.90,  9.24, 13.56 au
Average spatial batch extension              ...   0.17,  0.17,  0.17 au

Final grid set up in    0.3 sec
Final integration                            ... done (   0.1 sec)
Change in XC energy                          ...    -0.000399400
Integrated number of electrons               ...    35.999998617
Previous integrated no of electrons          ...    35.999413322

----------------
TOTAL SCF ENERGY
----------------

Total Energy       :         -231.46354973 Eh           -6298.44339 eV

Components:
Nuclear Repulsion  :          120.99841764 Eh            3292.53433 eV
Electronic Energy  :         -352.46196737 Eh           -9590.97773 eV
One Electron Energy:         -555.04110320 Eh          -15103.43626 eV
Two Electron Energy:          202.57913583 Eh            5512.45853 eV

Virial components:
Potential Energy   :         -461.77967475 Eh          -12565.66378 eV
Kinetic Energy     :          230.31612502 Eh            6267.22038 eV
Virial Ratio       :            2.00498196


DFT components:
N(Alpha)           :       17.999999308646 electrons
N(Beta)            :       17.999999308646 electrons
N(Total)           :       35.999998617293 electrons
E(XC)              :      -21.273030044681 Eh       
DFET-embed. en.    :        0.000000000000 Eh       

---------------
SCF CONVERGENCE
---------------

  Last Energy change         ...   -4.8469e-09  Tolerance :   1.0000e-08
  Last MAX-Density change    ...    4.8687e-06  Tolerance :   1.0000e-07
  Last RMS-Density change    ...    1.5906e-07  Tolerance :   5.0000e-09
  Last Orbital Gradient      ...    2.1152e-06  Tolerance :   1.0000e-05
  Last Orbital Rotation      ...    4.2222e-06  Tolerance :   1.0000e-05

             **** THE GBW FILE WAS UPDATED (4-113_DFT_AB.gbw) ****
             **** DENSITY FILE WAS UPDATED (4-113_DFT_AB.scfp.tmp) ****
             **** ENERGY FILE WAS UPDATED (4-113_DFT_AB.en.tmp) ****
----------------
ORBITAL ENERGIES
----------------

  NO   OCC          E(Eh)            E(eV) 
   0   2.0000     -19.234077      -523.3858 
   1   2.0000     -19.225538      -523.1535 
   2   2.0000     -10.319170      -280.7989 
   3   2.0000     -10.301909      -280.3292 
   4   2.0000      -1.121926       -30.5292 
   5   2.0000      -1.119004       -30.4497 
   6   2.0000      -0.800078       -21.7712 
   7   2.0000      -0.790897       -21.5214 
   8   2.0000      -0.609513       -16.5857 
   9   2.0000      -0.597551       -16.2602 
  10   2.0000      -0.538544       -14.6545 
  11   2.0000      -0.530472       -14.4349 
  12   2.0000      -0.519090       -14.1252 
  13   2.0000      -0.517022       -14.0689 
  14   2.0000      -0.429003       -11.6738 
  15   2.0000      -0.423373       -11.5206 
  16   2.0000      -0.379169       -10.3177 
  17   2.0000      -0.366167        -9.9639 
  18   0.0000       0.099383         2.7044 
  19   0.0000       0.136754         3.7213 
  20   0.0000       0.143738         3.9113 
  21   0.0000       0.159775         4.3477 
  22   0.0000       0.195982         5.3329 
  23   0.0000       0.212591         5.7849 
  24   0.0000       0.215609         5.8670 
  25   0.0000       0.221484         6.0269 
  26   0.0000       0.230374         6.2688 
  27   0.0000       0.237128         6.4526 
  28   0.0000       0.301669         8.2088 
  29   0.0000       0.306133         8.3303 
  30   0.0000       0.333680         9.0799 
  31   0.0000       0.338957         9.2235 
  32   0.0000       0.383210        10.4277 
  33   0.0000       0.402761        10.9597 
  34   0.0000       0.448058        12.1923 
  35   0.0000       0.458658        12.4807 
  36   0.0000       0.487126        13.2554 
  37   0.0000       0.500725        13.6254 
  38   0.0000       0.525867        14.3096 
  39   0.0000       0.541948        14.7472 
  40   0.0000       0.552573        15.0363 
  41   0.0000       0.570324        15.5193 
  42   0.0000       0.576023        15.6744 
  43   0.0000       0.579002        15.7555 
  44   0.0000       0.597529        16.2596 
  45   0.0000       0.612980        16.6800 
  46   0.0000       0.635803        17.3011 
  47   0.0000       0.680546        18.5186 
  48   0.0000       0.688264        18.7286 
  49   0.0000       0.735409        20.0115 
  50   0.0000       0.757016        20.5994 
  51   0.0000       0.799451        21.7542 
  52   0.0000       0.814444        22.1622 
  53   0.0000       0.822928        22.3930 
  54   0.0000       0.857533        23.3347 
  55   0.0000       0.883070        24.0296 
  56   0.0000       0.997457        27.1422 
  57   0.0000       1.016966        27.6731 
  58   0.0000       1.019573        27.7440 
  59   0.0000       1.081655        29.4333 
  60   0.0000       1.107451        30.1353 
  61   0.0000       1.117305        30.4034 
  62   0.0000       1.370508        37.2934 
  63   0.0000       1.401915        38.1481 
  64   0.0000       1.458157        39.6785 
  65   0.0000       1.523581        41.4587 
  66   0.0000       1.544088        42.0168 
  67   0.0000       1.567642        42.6577 
  68   0.0000       1.593835        43.3704 
  69   0.0000       1.597545        43.4714 
  70   0.0000       1.616101        43.9763 
  71   0.0000       1.625014        44.2189 
  72   0.0000       1.641329        44.6628 
  73   0.0000       1.669942        45.4414 
  74   0.0000       1.677119        45.6367 
  75   0.0000       1.695086        46.1256 
  76   0.0000       1.707719        46.4694 
  77   0.0000       1.724514        46.9264 
  78   0.0000       1.769075        48.1390 
  79   0.0000       1.846255        50.2392 
  80   0.0000       1.958605        53.2963 
  81   0.0000       1.971137        53.6374 
  82   0.0000       1.979854        53.8746 
  83   0.0000       2.013336        54.7857 
  84   0.0000       2.055046        55.9207 
  85   0.0000       2.064791        56.1858 
  86   0.0000       2.085548        56.7506 
  87   0.0000       2.108030        57.3624 
  88   0.0000       2.117432        57.6182 
  89   0.0000       2.151171        58.5363 
  90   0.0000       2.232839        60.7586 
  91   0.0000       2.258554        61.4584 
  92   0.0000       2.324410        63.2504 
  93   0.0000       2.352247        64.0079 
  94   0.0000       2.358349        64.1739 
  95   0.0000       2.397137        65.2294 
  96   0.0000       2.402960        65.3879 
  97   0.0000       2.433526        66.2196 
  98   0.0000       2.453499        66.7631 
  99   0.0000       2.463157        67.0259 
 100   0.0000       2.483809        67.5879 
 101   0.0000       2.547239        69.3139 
 102   0.0000       2.576164        70.1010 
 103   0.0000       2.597142        70.6718 
 104   0.0000       2.618416        71.2507 
 105   0.0000       2.673622        72.7529 
 106   0.0000       2.692850        73.2762 
 107   0.0000       2.732566        74.3569 
 108   0.0000       2.785302        75.7919 
 109   0.0000       2.826401        76.9103 
 110   0.0000       2.849769        77.5462 
 111   0.0000       2.888758        78.6071 
 112   0.0000       2.911173        79.2170 
 113   0.0000       2.935753        79.8859 
 114   0.0000       2.974263        80.9338 
 115   0.0000       2.988880        81.3316 
 116   0.0000       3.088120        84.0320 
 117   0.0000       3.108454        84.5853 
 118   0.0000       3.133860        85.2767 
 119   0.0000       3.137745        85.3824 
 120   0.0000       3.239145        88.1416 
 121   0.0000       3.248239        88.3891 
 122   0.0000       3.354085        91.2693 
 123   0.0000       3.357704        91.3678 
 124   0.0000       3.474933        94.5577 
 125   0.0000       3.479951        94.6943 
 126   0.0000       3.501547        95.2819 
 127   0.0000       3.522854        95.8617 
 128   0.0000       3.555137        96.7402 
 129   0.0000       3.577793        97.3567 
 130   0.0000       3.632215        98.8376 
 131   0.0000       3.675115       100.0050 
 132   0.0000       3.681826       100.1876 
 133   0.0000       3.691738       100.4573 
 134   0.0000       3.938856       107.1817 
 135   0.0000       4.017622       109.3251 
 136   0.0000       4.218025       114.7783 
 137   0.0000       4.242347       115.4401 
 138   0.0000       4.294448       116.8579 
 139   0.0000       4.337515       118.0298 
 140   0.0000       4.407847       119.9436 
 141   0.0000       4.425267       120.4176 
 142   0.0000       4.578347       124.5832 
 143   0.0000       4.615856       125.6038 
 144   0.0000       5.312321       144.5556 
 145   0.0000       5.353279       145.6701 
 146   0.0000       5.356495       145.7576 
 147   0.0000       5.442046       148.0856 
 148   0.0000       5.539910       150.7486 
 149   0.0000       5.563670       151.3952 
 150   0.0000       5.757805       156.6778 
 151   0.0000       5.796291       157.7251 
 152   0.0000       5.800699       157.8450 
 153   0.0000       5.826178       158.5384 
 154   0.0000       5.883239       160.0911 
 155   0.0000       5.964892       162.3130 
 156   0.0000       6.309136       171.6803 
 157   0.0000       6.325890       172.1362 
 158   0.0000       6.497591       176.8084 
 159   0.0000       6.533360       177.7818 
 160   0.0000       6.717229       182.7851 
 161   0.0000       6.749334       183.6587 
 162   0.0000       6.783579       184.5906 
 163   0.0000       6.799276       185.0177 
 164   0.0000       7.034247       191.4116 
 165   0.0000       7.053825       191.9443 
 166   0.0000       7.186249       195.5478 
 167   0.0000       7.197053       195.8418 
 168   0.0000      22.292616       606.6129 
 169   0.0000      22.410221       609.8131 
 170   0.0000      43.646945      1187.6938 
 171   0.0000      43.650890      1187.8011 

                    ********************************
                    * MULLIKEN POPULATION ANALYSIS *
                    ********************************

-----------------------
MULLIKEN ATOMIC CHARGES
-----------------------
   0 C :   -0.169468
   1 O :   -0.498371
   2 H :    0.318836
   3 H :    0.126765
   4 H :    0.103532
   5 H :    0.119659
   6 C :   -0.183393
   7 O :   -0.474556
   8 H :    0.317155
   9 H :    0.118864
  10 H :    0.103350
  11 H :    0.117627
Sum of atomic charges:    0.0000000

--------------------------------
MULLIKEN REDUCED ORBITAL CHARGES
--------------------------------
  0 C s       :     3.227039  s :     3.227039
      pz      :     1.070663  p :     2.839880
      px      :     0.720432
      py      :     1.048785
      dz2     :     0.004031  d :     0.095478
      dxz     :     0.036937
      dyz     :     0.008741
      dx2y2   :     0.027271
      dxy     :     0.018499
      f0      :     0.000986  f :     0.007071
      f+1     :     0.001172
      f-1     :     0.000148
      f+2     :     0.001039
      f-2     :     0.000617
      f+3     :     0.001646
      f-3     :     0.001464
  1 O s       :     3.795060  s :     3.795060
      pz      :     1.825151  p :     4.674414
      px      :     1.415155
      py      :     1.434108
      dz2     :     0.003340  d :     0.027278
      dxz     :     0.003819
      dyz     :     0.004396
      dx2y2   :     0.012510
      dxy     :     0.003213
      f0      :     0.000279  f :     0.001619
      f+1     :     0.000217
      f-1     :     0.000136
      f+2     :     0.000330
      f-2     :     0.000093
      f+3     :     0.000196
      f-3     :     0.000368
  2 H s       :     0.634368  s :     0.634368
      pz      :     0.017056  p :     0.046795
      px      :     0.011500
      py      :     0.018239
  3 H s       :     0.853056  s :     0.853056
      pz      :     0.005276  p :     0.020179
      px      :     0.002804
      py      :     0.012099
  4 H s       :     0.877728  s :     0.877728
      pz      :     0.007660  p :     0.018740
      px      :     0.005746
      py      :     0.005334
  5 H s       :     0.860148  s :     0.860148
      pz      :     0.010235  p :     0.020193
      px      :     0.005763
      py      :     0.004195
  6 C s       :     3.219595  s :     3.219595
      pz      :     1.070014  p :     2.860482
      px      :     0.697743
      py      :     1.092726
      dz2     :     0.005704  d :     0.096210
      dxz     :     0.039435
      dyz     :     0.005798
      dx2y2   :     0.010436
      dxy     :     0.034837
      f0      :     0.001169  f :     0.007106
      f+1     :     0.000875
      f-1     :     0.000167
      f+2     :     0.001653
      f-2     :     0.000002
      f+3     :     0.001419
      f-3     :     0.001822
  7 O s       :     3.799468  s :     3.799468
      pz      :     1.788948  p :     4.644388
      px      :     1.314182
      py      :     1.541258
      dz2     :     0.003192  d :     0.029121
      dxz     :     0.004085
      dyz     :     0.005459
      dx2y2   :     0.010740
      dxy     :     0.005645
      f0      :     0.000305  f :     0.001579
      f+1     :     0.000244
      f-1     :     0.000092
      f+2     :     0.000313
      f-2     :     0.000169
      f+3     :     0.000295
      f-3     :     0.000161
  8 H s       :     0.637164  s :     0.637164
      pz      :     0.016837  p :     0.045681
      px      :     0.011314
      py      :     0.017531
  9 H s       :     0.860560  s :     0.860560
      pz      :     0.006338  p :     0.020576
      px      :     0.004972
      py      :     0.009266
 10 H s       :     0.876203  s :     0.876203
      pz      :     0.007155  p :     0.020447
      px      :     0.004168
      py      :     0.009123
 11 H s       :     0.862969  s :     0.862969
      pz      :     0.011024  p :     0.019403
      px      :     0.004008
      py      :     0.004371


                     *******************************
                     * LOEWDIN POPULATION ANALYSIS *
                     *******************************

----------------------
LOEWDIN ATOMIC CHARGES
----------------------
   0 C :   -0.360824
   1 O :   -0.110106
   2 H :    0.169388
   3 H :    0.106935
   4 H :    0.100639
   5 H :    0.095716
   6 C :   -0.378331
   7 O :   -0.094263
   8 H :    0.177251
   9 H :    0.106818
  10 H :    0.087246
  11 H :    0.099531

-------------------------------
LOEWDIN REDUCED ORBITAL CHARGES
-------------------------------
  0 C s       :     2.871332  s :     2.871332
      pz      :     1.116968  p :     3.056935
      px      :     0.856527
      py      :     1.083440
      dz2     :     0.036552  d :     0.383372
      dxz     :     0.134270
      dyz     :     0.026444
      dx2y2   :     0.118642
      dxy     :     0.067464
      f0      :     0.005553  f :     0.049184
      f+1     :     0.007352
      f-1     :     0.002135
      f+2     :     0.005589
      f-2     :     0.006668
      f+3     :     0.011784
      f-3     :     0.010104
  1 O s       :     3.386713  s :     3.386713
      pz      :     1.750217  p :     4.656797
      px      :     1.467480
      py      :     1.439100
      dz2     :     0.005664  d :     0.062762
      dxz     :     0.010741
      dyz     :     0.007826
      dx2y2   :     0.026165
      dxy     :     0.012367
      f0      :     0.000520  f :     0.003835
      f+1     :     0.000405
      f-1     :     0.000127
      f+2     :     0.000899
      f-2     :     0.000201
      f+3     :     0.000652
      f-3     :     0.001031
  2 H s       :     0.674999  s :     0.674999
      pz      :     0.051589  p :     0.155613
      px      :     0.029183
      py      :     0.074841
  3 H s       :     0.832135  s :     0.832135
      pz      :     0.016397  p :     0.060931
      px      :     0.008639
      py      :     0.035894
  4 H s       :     0.842559  s :     0.842559
      pz      :     0.022848  p :     0.056801
      px      :     0.017429
      py      :     0.016524
  5 H s       :     0.841408  s :     0.841408
      pz      :     0.032407  p :     0.062877
      px      :     0.016817
      py      :     0.013653
  6 C s       :     2.854223  s :     2.854223
      pz      :     1.109331  p :     3.071864
      px      :     0.834034
      py      :     1.128499
      dz2     :     0.041860  d :     0.400168
      dxz     :     0.130880
      dyz     :     0.032853
      dx2y2   :     0.082580
      dxy     :     0.111995
      f0      :     0.007156  f :     0.052076
      f+1     :     0.008338
      f-1     :     0.001070
      f+2     :     0.009821
      f-2     :     0.003284
      f+3     :     0.010724
      f-3     :     0.011682
  7 O s       :     3.387415  s :     3.387415
      pz      :     1.717200  p :     4.636522
      px      :     1.388153
      py      :     1.531170
      dz2     :     0.005596  d :     0.066119
      dxz     :     0.013488
      dyz     :     0.008092
      dx2y2   :     0.021720
      dxy     :     0.017222
      f0      :     0.000588  f :     0.004207
      f+1     :     0.000466
      f-1     :     0.000065
      f+2     :     0.000983
      f-2     :     0.000283
      f+3     :     0.000853
      f-3     :     0.000969
  8 H s       :     0.671286  s :     0.671286
      pz      :     0.052282  p :     0.151463
      px      :     0.029151
      py      :     0.070031
  9 H s       :     0.831428  s :     0.831428
      pz      :     0.019045  p :     0.061754
      px      :     0.014380
      py      :     0.028328
 10 H s       :     0.847184  s :     0.847184
      pz      :     0.022661  p :     0.065570
      px      :     0.013439
      py      :     0.029470
 11 H s       :     0.840402  s :     0.840402
      pz      :     0.033271  p :     0.060067
      px      :     0.012886
      py      :     0.013910


                      *****************************
                      * MAYER POPULATION ANALYSIS *
                      *****************************

  NA   - Mulliken gross atomic population
  ZA   - Total nuclear charge
  QA   - Mulliken gross atomic charge
  VA   - Mayer's total valence
  BVA  - Mayer's bonded valence
  FA   - Mayer's free valence

  ATOM       NA         ZA         QA         VA         BVA        FA
  0 C      6.1695     6.0000    -0.1695     3.9258     3.9258     0.0000
  1 O      8.4984     8.0000    -0.4984     1.8785     1.8785     0.0000
  2 H      0.6812     1.0000     0.3188     0.9102     0.9102    -0.0000
  3 H      0.8732     1.0000     0.1268     0.9581     0.9581     0.0000
  4 H      0.8965     1.0000     0.1035     0.9571     0.9571    -0.0000
  5 H      0.8803     1.0000     0.1197     0.9505     0.9505     0.0000
  6 C      6.1834     6.0000    -0.1834     3.9318     3.9318    -0.0000
  7 O      8.4746     8.0000    -0.4746     1.8936     1.8936     0.0000
  8 H      0.6828     1.0000     0.3172     0.9105     0.9105     0.0000
  9 H      0.8811     1.0000     0.1189     0.9587     0.9587    -0.0000
 10 H      0.8967     1.0000     0.1033     0.9523     0.9523    -0.0000
 11 H      0.8824     1.0000     0.1176     0.9630     0.9630    -0.0000

  Mayer bond orders larger than 0.1
B(  0-C ,  1-O ) :   0.9882 B(  0-C ,  3-H ) :   0.9778 B(  0-C ,  4-H ) :   0.9753 
B(  0-C ,  5-H ) :   0.9672 B(  1-O ,  2-H ) :   0.8929 B(  6-C ,  7-O ) :   0.9984 
B(  6-C ,  9-H ) :   0.9729 B(  6-C , 10-H ) :   0.9759 B(  6-C , 11-H ) :   0.9778 
B(  7-O ,  8-H ) :   0.8940 

-------
TIMINGS
-------

Total SCF time: 0 days 0 hours 0 min 22 sec 

Total time                  ....      22.755 sec
Sum of individual times     ....      22.387 sec  ( 98.4%)

Fock matrix formation       ....      21.788 sec  ( 95.8%)
  XC integration            ....      12.988 sec  ( 59.6% of F)
    Basis function eval.    ....       0.060 sec  (  0.5% of XC)
    Density eval.           ....       0.164 sec  (  1.3% of XC)
    XC-Functional eval.     ....       0.103 sec  (  0.8% of XC)
    XC-Potential eval.      ....       0.063 sec  (  0.5% of XC)
Diagonalization             ....       0.047 sec  (  0.2%)
Density matrix formation    ....       0.008 sec  (  0.0%)
Population analysis         ....       0.022 sec  (  0.1%)
Initial guess               ....       0.097 sec  (  0.4%)
Orbital Transformation      ....       0.000 sec  (  0.0%)
Orbital Orthonormalization  ....       0.000 sec  (  0.0%)
DIIS solution               ....       0.032 sec  (  0.1%)
SOSCF solution              ....       0.092 sec  (  0.4%)
Grid generation             ....       0.301 sec  (  1.3%)


-------------------------------------------------------------------------------
                          DFT DISPERSION CORRECTION                            
                                                                               
                              DFTD3 V3.1  Rev 1                                
                              USING zero damping                               
-------------------------------------------------------------------------------
The omegaB97X-D3 functional is recognized. Fit by Chai et al.
Active option DFTDOPT                   ...         3   

molecular C6(AA) [au] = 835.135904 


            DFT-D V3
 parameters
 s6 scaling factor         :     1.0000 
 rs6 scaling factor        :     1.2810 
 s8 scaling factor         :     1.0000 
 rs8 scaling factor        :     1.0940 
 Damping factor alpha6     :    14.0000 
 Damping factor alpha8     :    16.0000 
 ad hoc parameters k1-k3   :    16.0000     1.3333    -4.0000 

 Edisp/kcal,au: -0.979898723349  -0.001561567848 
 E6   /kcal   :  -0.507449270 
 E8   /kcal   :  -0.472449453 
 % E8         :  48.214110471 

-------------------------   ----------------
Dispersion correction           -0.001561568
-------------------------   ----------------


-------------------------   --------------------
FINAL SINGLE POINT ENERGY      -231.465111297515
-------------------------   --------------------


                            ***************************************
                            *     ORCA property calculations      *
                            ***************************************

                                    ---------------------
                                    Active property flags
                                    ---------------------
   (+) Dipole Moment


------------------------------------------------------------------------------
                       ORCA ELECTRIC PROPERTIES CALCULATION
------------------------------------------------------------------------------

Dipole Moment Calculation                       ... on
Quadrupole Moment Calculation                   ... off
Polarizability Calculation                      ... off
GBWName                                         ... 4-113_DFT_AB.gbw
Electron density file                           ... 4-113_DFT_AB.scfp.tmp
The origin for moment calculation is the CENTER OF MASS  = ( 7.013591, 14.394581 -9.786190)

-------------
DIPOLE MOMENT
-------------
                                X             Y             Z
Electronic contribution:     -0.14173      -0.19029       0.17292
Nuclear contribution   :      0.03426      -0.68318      -0.74696
                        -----------------------------------------
Total Dipole Moment    :     -0.10747      -0.87347      -0.57404
                        -----------------------------------------
Magnitude (a.u.)       :      1.05073
Magnitude (Debye)      :      2.67073



--------------------
Rotational spectrum 
--------------------
 
Rotational constants in cm-1:     0.450006     0.062358     0.056736 
Rotational constants in MHz : 13490.829713  1869.445075  1700.900520 

 Dipole components along the rotational axes: 
x,y,z [a.u.] :    -0.518941    -0.303875     0.861617 
x,y,z [Debye]:    -1.319043    -0.772388     2.190057 

 
------------------------------------------------------------------------------
                      ORCA CHELPG CHARGES GENERATION
------------------------------------------------------------------------------

GBW file                           ... 4-113_DFT_AB.gbw

Reading the GBW file               ... done

Grid spacing                       ...     0.300000
Point Cut-Off                      ...     2.800000
Van-der-Waals Radii                ...        COSMO
Total charge                       ...            0


Number of points X direction       ...           32
Number of points Y direction       ...           26
Number of points Z direction       ...           35
Maximum number of possible points  ...        29120
Final number of points             ...        10478


CHELPG Charges            
--------------------------------
  0   C   :       0.035271
  1   O   :      -0.567729
  2   H   :       0.384373
  3   H   :       0.074216
  4   H   :       0.023056
  5   H   :       0.060072
  6   C   :       0.177119
  7   O   :      -0.610130
  8   H   :       0.391997
  9   H   :       0.061391
 10   H   :      -0.014826
 11   H   :      -0.014809
--------------------------------
Total charge:     0.000000
--------------------------------

CHELPG charges calculated...

Timings for individual parts in CHELPG calculation:
Grid generation                 ...        0.001 sec (=   0.000 min)
Potential calculation           ...        2.189 sec (=   0.036 min)
Fit to the potential            ...        0.004 sec (=   0.000 min)
------------------------------------------------------------------------------


Timings for individual modules:

Sum of individual times         ...       29.134 sec (=   0.486 min)
GTO integral calculation        ...        2.761 sec (=   0.046 min)   9.5 %
SCF iterations                  ...       23.956 sec (=   0.399 min)  82.2 %
CHELPG charge generation        ...        2.417 sec (=   0.040 min)   8.3 %


                 $$$$$$$$$$$$$$$$  JOB NUMBER  2 $$$$$$$$$$$$$$


                       ****************************
                       * Single Point Calculation *
                       ****************************

---------------------------------
CARTESIAN COORDINATES (ANGSTROEM)
---------------------------------
  C      2.306363    7.977900   -7.049044
  O      3.680497    7.508819   -7.003539
  H      3.822370    6.627895   -7.386926
  H      2.324172    9.011762   -7.391483
  H      1.650519    7.439648   -7.782240
  H      1.747418    7.886337   -6.125104
  C      5.147577    7.515241   -3.265000
  O      3.716713    7.577363   -3.335981
  H      3.412833    6.771940   -3.793769
  H      5.660477    8.347349   -2.790045
  H      5.521592    6.700084   -2.687815
  H      5.589001    7.427400   -4.268107

----------------------------
CARTESIAN COORDINATES (A.U.)
----------------------------
  NO LB      ZA    FRAG     MASS         X           Y           Z
   0 C     6.0000    0    12.011    4.358394   15.076046  -13.320763
   1 O     8.0000    0    15.999    6.955131   14.189611  -13.234771
   2 H     1.0000    0     1.008    7.223232   12.524906  -13.959267
   3 H     1.0000    0     1.008    4.392049   17.029762  -13.967879
   4 H     1.0000    0     1.008    3.119029   14.058897  -14.706302
   5 H     1.0000    0     1.008    3.302141   14.903017  -11.574769
   6 C     0.0000    0     0.000    9.727511   14.201747   -6.169956
   7 O     0.0000    0     0.000    7.023570   14.319141   -6.304090
   8 H     0.0000    0     0.000    6.449320   12.797112   -7.169184
   9 H     0.0000    0     0.000   10.696751   15.774204   -5.272421
  10 H     0.0000    0     0.000   10.434297   12.661324   -5.079234
  11 H     0.0000    0     0.000   10.561681   14.035752   -8.065553

--------------------------------
INTERNAL COORDINATES (ANGSTROEM)
--------------------------------
 C      0   0   0     0.000000000000     0.00000000     0.00000000
 O      1   0   0     1.452705042169     0.00000000     0.00000000
 H      2   1   0     0.971154279028   114.75383437     0.00000000
 H      1   2   3     1.089243895666   107.50964008   225.36282791
 H      1   2   3     1.121348715724   114.75409608   341.80059988
 H      1   2   3     1.083728941938   115.71392625   100.82054273
 C      2   1   3     4.016097461841   111.97397394   235.89044522
 O      7   2   1     1.433969745755    65.76261478    17.65211713
 H      8   7   2     0.974996982699   107.36465663    60.41075161
 H      7   2   1     1.086762340942   125.48296778   270.32793361
 H      7   2   1     1.066541456812   129.09841796   119.96638721
 H      7   2   1     1.099452064669    45.34980806   194.05937628

---------------------------
INTERNAL COORDINATES (A.U.)
---------------------------
 C      0   0   0     0.000000000000     0.00000000     0.00000000
 O      1   0   0     2.745214683065     0.00000000     0.00000000
 H      2   1   0     1.835215621148   114.75383437     0.00000000
 H      1   2   3     2.058372655855   107.50964008   225.36282791
 H      1   2   3     2.119041973343   114.75409608   341.80059988
 H      1   2   3     2.047950903667   115.71392625   100.82054273
 C      2   1   3     7.589324330016   111.97397394   235.89044522
 O      7   2   1     2.709810103806    65.76261478    17.65211713
 H      8   7   2     1.842477278701   107.36465663    60.41075161
 H      7   2   1     2.053683197039   125.48296778   270.32793361
 H      7   2   1     2.015471263848   129.09841796   119.96638721
 H      7   2   1     2.077663299600    45.34980806   194.05937628

---------------------
BASIS SET INFORMATION
---------------------
There are 3 groups of distinct atoms

 Group   1 Type C   : 11s6p2d1f contracted to 5s3p2d1f pattern {62111/411/11/1}
 Group   2 Type O   : 11s6p2d1f contracted to 5s3p2d1f pattern {62111/411/11/1}
 Group   3 Type H   : 5s1p contracted to 3s1p pattern {311/1}

Atom   0C    basis set group =>   1
Atom   1O    basis set group =>   2
Atom   2H    basis set group =>   3
Atom   3H    basis set group =>   3
Atom   4H    basis set group =>   3
Atom   5H    basis set group =>   3
Atom   6C    basis set group =>   1
Atom   7O    basis set group =>   2
Atom   8H    basis set group =>   3
Atom   9H    basis set group =>   3
Atom  10H    basis set group =>   3
Atom  11H    basis set group =>   3


           ************************************************************
           *        Program running with 8 parallel MPI-processes     *
           *              working on a common directory               *
           ************************************************************
------------------------------------------------------------------------------
                           ORCA GTO INTEGRAL CALCULATION
------------------------------------------------------------------------------

                         BASIS SET STATISTICS AND STARTUP INFO

 # of primitive gaussian shells          ...  128
 # of primitive gaussian functions       ...  248
 # of contracted shells                  ...   76
 # of contracted basis functions         ...  172
 Highest angular momentum                ...    3
 Maximum contraction depth               ...    6
 Integral package used                   ... LIBINT
 Integral threshhold            Thresh   ...  2.500e-11
 Primitive cut-off              TCut     ...  2.500e-12


------------------------------ INTEGRAL EVALUATION ----------------------------


 * One electron integrals 
 Pre-screening matrix                    ... done
 Shell pair data                         ... done (   0.001 sec)



           ************************************************************
           *        Program running with 8 parallel MPI-processes     *
           *              working on a common directory               *
           ************************************************************
-------------------------------------------------------------------------------
                                 ORCA SCF
-------------------------------------------------------------------------------

------------
SCF SETTINGS
------------
Hamiltonian:
 Density Functional     Method          .... DFT(GTOs)
 Exchange Functional    Exchange        .... WB97X-D3
 Correlation Functional Correlation     .... WB97X-D3
 Gradients option       PostSCFGGA      .... off
 Hybrid DFT is turned on
   Fraction HF Exchange ScalHFX         ....  0.195728
   Scaling of DF-GGA-X  ScalDFX         ....  0.000000
   Scaling of DF-GGA-C  ScalDFC         ....  1.000000
   Scaling of DF-LDA-C  ScalLDAC        ....  1.000000
   Perturbative correction              ....  0.000000
   Density functional embedding theory  .... OFF
 Long-range corrected/Screened/Range-Separated Hybrid DFT is turned on
   Amount of maximum screened exact exchange              ....  0.804272
   Range separation parameter mu (erf(mu*r12)/r12)        ....  0.250000


General Settings:
 Integral files         IntName         .... 4-113_DFT_A
 Hartree-Fock type      HFTyp           .... RHF
 Total Charge           Charge          ....    0
 Multiplicity           Mult            ....    1
 Number of Electrons    NEL             ....   18
 Basis Dimension        Dim             ....  172
 Nuclear Repulsion      ENuc            ....     39.5375726822 Eh

Convergence Acceleration:
 DIIS                   CNVDIIS         .... on
   Start iteration      DIISMaxIt       ....    12
   Startup error        DIISStart       ....  0.200000
   # of expansion vecs  DIISMaxEq       ....     5
   Bias factor          DIISBfac        ....   1.050
   Max. coefficient     DIISMaxC        ....  10.000
 Newton-Raphson         CNVNR           .... off
 SOSCF                  CNVSOSCF        .... on
   Start iteration      SOSCFMaxIt      ....   150
   Startup grad/error   SOSCFStart      ....  0.003300
 Level Shifting         CNVShift        .... on
   Level shift para.    LevelShift      ....    0.2500
   Turn off err/grad.   ShiftErr        ....    0.0010
 Zerner damping         CNVZerner       .... off
 Static damping         CNVDamp         .... on
   Fraction old density DampFac         ....    0.7000
   Max. Damping (<1)    DampMax         ....    0.9800
   Min. Damping (>=0)   DampMin         ....    0.0000
   Turn off err/grad.   DampErr         ....    0.1000
 Fernandez-Rico         CNVRico         .... off

SCF Procedure:
 Maximum # iterations   MaxIter         ....  1000
 SCF integral mode      SCFMode         .... Direct
   Integral package                     .... LIBINT
 Reset frequency        DirectResetFreq ....    20
 Integral Threshold     Thresh          ....  2.500e-11 Eh
 Primitive CutOff       TCut            ....  2.500e-12 Eh

Convergence Tolerance:
 Convergence Check Mode ConvCheckMode   .... Total+1el-Energy
 Convergence forced     ConvForced      .... 0
 Energy Change          TolE            ....  1.000e-08 Eh
 1-El. energy change                    ....  1.000e-05 Eh
 Orbital Gradient       TolG            ....  1.000e-05
 Orbital Rotation angle TolX            ....  1.000e-05
 DIIS Error             TolErr          ....  5.000e-07


Diagonalization of the overlap matrix:
Smallest eigenvalue                        ... 1.511e-03
Time for diagonalization                   ...    0.004 sec
Threshold for overlap eigenvalues          ... 1.000e-08
Number of eigenvalues below threshold      ... 0
Time for construction of square roots      ...    0.009 sec
Total time needed                          ...    0.012 sec

-------------------
DFT GRID GENERATION
-------------------

General Integration Accuracy     IntAcc      ...  4.340
Radial Grid Type                 RadialGrid  ... Gauss-Chebyshev
Angular Grid (max. acc.)         AngularGrid ... Lebedev-110
Angular grid pruning method      GridPruning ... 3 (G Style)
Weight generation scheme         WeightScheme... Becke
Basis function cutoff            BFCut       ...    1.0000e-11
Integration weight cutoff        WCut        ...    1.0000e-14
Grids for H and He will be reduced by one unit

# of grid points (after initial pruning)     ...  13096 (   0.0 sec)
# of grid points (after weights+screening)   ...  12532 (   0.0 sec)
nearest neighbour list constructed           ...    0.0 sec
Grid point re-assignment to atoms done       ...    0.0 sec
Grid point division into batches done        ...    0.0 sec
Reduced shell lists constructed in    0.0 sec

Total number of grid points                  ...    12532
Total number of batches                      ...      201
Average number of points per batch           ...       62
Average number of grid points per atom       ...     1044
Average number of shells per batch           ...    53.67 (70.61%)
Average number of basis functions per batch  ...   119.59 (69.53%)
Average number of large shells per batch     ...    44.26 (82.47%)
Average number of large basis fcns per batch ...    97.89 (81.85%)
Maximum spatial batch extension              ...  10.74, 10.60, 10.38 au
Average spatial batch extension              ...   0.25,  0.27,  0.28 au

Time for grid setup =    0.041 sec

------------------------------
INITIAL GUESS: MODEL POTENTIAL
------------------------------
Loading Hartree-Fock densities                     ... done
Calculating cut-offs                               ... done
Setting up the integral package                    ... done
Initializing the effective Hamiltonian             ... done
Starting the Coulomb interaction                   ... done (   0.0 sec)
Reading the grid                                   ... done
Mapping shells                                     ... done
Starting the XC term evaluation                    ... done (   0.0 sec)
  promolecular density results
     # of electrons  =     17.995965072
     EX              =    -14.410848220
     EC              =     -0.572020245
     EX+EC           =    -14.982868465
Transforming the Hamiltonian                       ... done (   0.0 sec)
Diagonalizing the Hamiltonian                      ... done (   0.0 sec)
Back transforming the eigenvectors                 ... done (   0.0 sec)
Now organizing SCF variables                       ... done
                      ------------------
                      INITIAL GUESS DONE (   0.1 sec)
                      ------------------
--------------
SCF ITERATIONS
--------------
ITER       Energy         Delta-E        Max-DP      RMS-DP      [F,P]     Damp
               ***  Starting incremental Fock matrix formation  ***
  0   -115.6478422840   0.000000000000 0.03686980  0.00073686  0.2470593 0.7000
  1   -115.6836992308  -0.035856946816 0.02127550  0.00052434  0.1227504 0.7000
                               ***Turning on DIIS***
  2   -115.7000703328  -0.016371102031 0.03072714  0.00094167  0.0472758 0.0000
  3   -115.7267669473  -0.026696614456 0.01813363  0.00034819  0.0617915 0.0000
  4   -115.7311487424  -0.004381795120 0.00399474  0.00006810  0.0063456 0.0000
                      *** Initiating the SOSCF procedure ***
                           *** Shutting down DIIS ***
                      *** Re-Reading the Fockian *** 
                      *** Removing any level shift *** 
ITER      Energy       Delta-E        Grad      Rot      Max-DP    RMS-DP
  5   -115.73124003  -0.0000912901  0.000427  0.000427  0.000680  0.000023
               *** Restarting incremental Fock matrix formation ***
  6   -115.73124812  -0.0000080835  0.000123  0.000168  0.000486  0.000014
  7   -115.73124892  -0.0000008048  0.000041  0.000096  0.000239  0.000006
  8   -115.73124899  -0.0000000698  0.000016  0.000015  0.000036  0.000001
  9   -115.73124900  -0.0000000064  0.000010  0.000007  0.000017  0.000001
                  ***Gradient check signals convergence***
              ***Rediagonalizing the Fockian in SOSCF/NRSCF***

               *****************************************************
               *                     SUCCESS                       *
               *           SCF CONVERGED AFTER  10 CYCLES          *
               *****************************************************

Setting up the final grid:

General Integration Accuracy     IntAcc      ...  4.670
Radial Grid Type                 RadialGrid  ... Gauss-Chebyshev
Angular Grid (max. acc.)         AngularGrid ... Lebedev-302
Angular grid pruning method      GridPruning ... 3 (G Style)
Weight generation scheme         WeightScheme... Becke
Basis function cutoff            BFCut       ...    1.0000e-11
Integration weight cutoff        WCut        ...    1.0000e-14
Grids for H and He will be reduced by one unit

# of grid points (after initial pruning)     ...  52000 (   0.0 sec)
# of grid points (after weights+screening)   ...  49243 (   0.0 sec)
nearest neighbour list constructed           ...    0.0 sec
Grid point re-assignment to atoms done       ...    0.0 sec
Grid point division into batches done        ...    0.2 sec
Reduced shell lists constructed in    0.2 sec

Total number of grid points                  ...    49243
Total number of batches                      ...      777
Average number of points per batch           ...       63
Average number of grid points per atom       ...     4104
Average number of shells per batch           ...    52.89 (69.59%)
Average number of basis functions per batch  ...   117.01 (68.03%)
Average number of large shells per batch     ...    43.03 (81.36%)
Average number of large basis fcns per batch ...    95.11 (81.28%)
Maximum spatial batch extension              ...  11.90,  9.24, 13.56 au
Average spatial batch extension              ...   0.17,  0.17,  0.17 au

Final grid set up in    0.3 sec
Final integration                            ... done (   0.1 sec)
Change in XC energy                          ...    -0.000215934
Integrated number of electrons               ...    18.000007215
Previous integrated no of electrons          ...    17.998907857

----------------
TOTAL SCF ENERGY
----------------

Total Energy       :         -115.73146493 Eh           -3149.21326 eV

Components:
Nuclear Repulsion  :           39.53757268 Eh            1075.87205 eV
Electronic Energy  :         -155.26903762 Eh           -4225.08531 eV
One Electron Energy:         -235.55262854 Eh           -6409.71289 eV
Two Electron Energy:           80.28359092 Eh            2184.62757 eV

Virial components:
Potential Energy   :         -230.84438218 Eh           -6281.59499 eV
Kinetic Energy     :          115.11291725 Eh            3132.38173 eV
Virial Ratio       :            2.00537340


DFT components:
N(Alpha)           :        9.000003607700 electrons
N(Beta)            :        9.000003607700 electrons
N(Total)           :       18.000007215401 electrons
E(XC)              :      -10.627375294446 Eh       
DFET-embed. en.    :        0.000000000000 Eh       

---------------
SCF CONVERGENCE
---------------

  Last Energy change         ...   -2.5673e-09  Tolerance :   1.0000e-08
  Last MAX-Density change    ...    3.6902e-06  Tolerance :   1.0000e-07
  Last RMS-Density change    ...    1.0095e-07  Tolerance :   5.0000e-09
  Last Orbital Gradient      ...    1.8329e-06  Tolerance :   1.0000e-05
  Last Orbital Rotation      ...    2.5499e-06  Tolerance :   1.0000e-05

             **** THE GBW FILE WAS UPDATED (4-113_DFT_A.gbw) ****
             **** DENSITY FILE WAS UPDATED (4-113_DFT_A.scfp.tmp) ****
             **** ENERGY FILE WAS UPDATED (4-113_DFT_A.en.tmp) ****
----------------
ORBITAL ENERGIES
----------------

  NO   OCC          E(Eh)            E(eV) 
   0   2.0000     -19.231404      -523.3131 
   1   2.0000     -10.319004      -280.7944 
   2   2.0000      -1.119320       -30.4582 
   3   2.0000      -0.799502       -21.7556 
   4   2.0000      -0.607781       -16.5386 
   5   2.0000      -0.537521       -14.6267 
   6   2.0000      -0.517290       -14.0762 
   7   2.0000      -0.427449       -11.6315 
   8   2.0000      -0.376896       -10.2559 
   9   0.0000       0.094159         2.5622 
  10   0.0000       0.120818         3.2876 
  11   0.0000       0.144520         3.9326 
  12   0.0000       0.171107         4.6561 
  13   0.0000       0.197247         5.3674 
  14   0.0000       0.205092         5.5808 
  15   0.0000       0.217420         5.9163 
  16   0.0000       0.227986         6.2038 
  17   0.0000       0.239155         6.5077 
  18   0.0000       0.273711         7.4480 
  19   0.0000       0.309434         8.4201 
  20   0.0000       0.316658         8.6167 
  21   0.0000       0.343183         9.3385 
  22   0.0000       0.357776         9.7356 
  23   0.0000       0.373851        10.1730 
  24   0.0000       0.396802        10.7975 
  25   0.0000       0.442207        12.0331 
  26   0.0000       0.471254        12.8235 
  27   0.0000       0.492948        13.4138 
  28   0.0000       0.529744        14.4151 
  29   0.0000       0.539280        14.6746 
  30   0.0000       0.542686        14.7672 
  31   0.0000       0.563333        15.3291 
  32   0.0000       0.584972        15.9179 
  33   0.0000       0.604336        16.4448 
  34   0.0000       0.641505        17.4562 
  35   0.0000       0.669518        18.2185 
  36   0.0000       0.685627        18.6569 
  37   0.0000       0.713630        19.4189 
  38   0.0000       0.765446        20.8288 
  39   0.0000       0.808304        21.9951 
  40   0.0000       0.816138        22.2082 
  41   0.0000       0.833096        22.6697 
  42   0.0000       0.855799        23.2875 
  43   0.0000       0.946729        25.7618 
  44   0.0000       1.003300        27.3012 
  45   0.0000       1.051936        28.6246 
  46   0.0000       1.077102        29.3094 
  47   0.0000       1.100549        29.9475 
  48   0.0000       1.170744        31.8576 
  49   0.0000       1.179942        32.1079 
  50   0.0000       1.190023        32.3822 
  51   0.0000       1.216556        33.1042 
  52   0.0000       1.232641        33.5419 
  53   0.0000       1.357986        36.9527 
  54   0.0000       1.379676        37.5429 
  55   0.0000       1.418855        38.6090 
  56   0.0000       1.453022        39.5387 
  57   0.0000       1.459025        39.7021 
  58   0.0000       1.543134        41.9908 
  59   0.0000       1.554490        42.2998 
  60   0.0000       1.597284        43.4643 
  61   0.0000       1.626207        44.2513 
  62   0.0000       1.642425        44.6926 
  63   0.0000       1.680531        45.7296 
  64   0.0000       1.721079        46.8329 
  65   0.0000       1.767210        48.0882 
  66   0.0000       1.843121        50.1539 
  67   0.0000       1.918235        52.1978 
  68   0.0000       1.946607        52.9699 
  69   0.0000       1.964381        53.4535 
  70   0.0000       1.983291        53.9681 
  71   0.0000       2.056534        55.9611 
  72   0.0000       2.084596        56.7247 
  73   0.0000       2.103715        57.2450 
  74   0.0000       2.151216        58.5376 
  75   0.0000       2.187135        59.5150 
  76   0.0000       2.241311        60.9892 
  77   0.0000       2.247059        61.1456 
  78   0.0000       2.282191        62.1016 
  79   0.0000       2.335947        63.5643 
  80   0.0000       2.355218        64.0887 
  81   0.0000       2.361070        64.2480 
  82   0.0000       2.421329        65.8877 
  83   0.0000       2.453647        66.7671 
  84   0.0000       2.484765        67.6139 
  85   0.0000       2.535003        68.9809 
  86   0.0000       2.578339        70.1602 
  87   0.0000       2.587058        70.3974 
  88   0.0000       2.609654        71.0123 
  89   0.0000       2.622790        71.3697 
  90   0.0000       2.671376        72.6918 
  91   0.0000       2.674524        72.7775 
  92   0.0000       2.827080        76.9288 
  93   0.0000       2.839559        77.2683 
  94   0.0000       2.859439        77.8093 
  95   0.0000       2.881872        78.4197 
  96   0.0000       2.905369        79.0591 
  97   0.0000       2.964984        80.6813 
  98   0.0000       3.073136        83.6243 
  99   0.0000       3.095585        84.2352 
 100   0.0000       3.126173        85.0675 
 101   0.0000       3.134285        85.2882 
 102   0.0000       3.191808        86.8535 
 103   0.0000       3.239521        88.1518 
 104   0.0000       3.253007        88.5188 
 105   0.0000       3.305815        89.9558 
 106   0.0000       3.357808        91.3706 
 107   0.0000       3.369322        91.6839 
 108   0.0000       3.388626        92.2092 
 109   0.0000       3.480661        94.7136 
 110   0.0000       3.522137        95.8422 
 111   0.0000       3.555620        96.7533 
 112   0.0000       3.632683        98.8503 
 113   0.0000       3.641971        99.1031 
 114   0.0000       3.663704        99.6945 
 115   0.0000       3.682325       100.2012 
 116   0.0000       3.788569       103.0922 
 117   0.0000       3.941016       107.2405 
 118   0.0000       4.036009       109.8254 
 119   0.0000       4.105736       111.7228 
 120   0.0000       4.218186       114.7827 
 121   0.0000       4.275138       116.3324 
 122   0.0000       4.294448       116.8579 
 123   0.0000       4.295295       116.8809 
 124   0.0000       4.371871       118.9647 
 125   0.0000       4.408663       119.9658 
 126   0.0000       4.524311       123.1128 
 127   0.0000       4.550453       123.8241 
 128   0.0000       4.577586       124.5624 
 129   0.0000       4.600601       125.1887 
 130   0.0000       4.609712       125.4366 
 131   0.0000       5.002129       136.1149 
 132   0.0000       5.072637       138.0335 
 133   0.0000       5.136171       139.7623 
 134   0.0000       5.314982       144.6280 
 135   0.0000       5.318529       144.7245 
 136   0.0000       5.358744       145.8188 
 137   0.0000       5.483776       149.2211 
 138   0.0000       5.566463       151.4712 
 139   0.0000       5.760310       156.7460 
 140   0.0000       5.771524       157.0511 
 141   0.0000       5.830057       158.6439 
 142   0.0000       5.885759       160.1596 
 143   0.0000       5.976042       162.6164 
 144   0.0000       6.146801       167.2630 
 145   0.0000       6.328810       172.2157 
 146   0.0000       6.500518       176.8881 
 147   0.0000       6.609012       179.8404 
 148   0.0000       6.708085       182.5363 
 149   0.0000       6.721004       182.8878 
 150   0.0000       6.786107       184.6594 
 151   0.0000       6.833868       185.9590 
 152   0.0000       7.047144       191.7625 
 153   0.0000       7.060254       192.1193 
 154   0.0000       7.189862       195.6461 
 155   0.0000       7.210278       196.2017 
 156   0.0000       7.383192       200.9069 
 157   0.0000       8.012478       218.0306 
 158   0.0000       8.901236       242.2150 
 159   0.0000       9.326565       253.7887 
 160   0.0000       9.554860       260.0010 
 161   0.0000       9.559756       260.1342 
 162   0.0000       9.787064       266.3196 
 163   0.0000       9.907701       269.6022 
 164   0.0000       9.914316       269.7823 
 165   0.0000      10.097217       274.7592 
 166   0.0000      11.145187       303.2759 
[...]
  82   0.0000       2.409081        65.5544 
  83   0.0000       2.440619        66.4126 
  84   0.0000       2.453920        66.7746 
  85   0.0000       2.536798        69.0298 
  86   0.0000       2.584435        70.3260 
  87   0.0000       2.598882        70.7192 
  88   0.0000       2.614716        71.1500 
  89   0.0000       2.680849        72.9496 
  90   0.0000       2.689790        73.1929 
  91   0.0000       2.723520        74.1107 
  92   0.0000       2.776175        75.5436 
  93   0.0000       2.803911        76.2983 
  94   0.0000       2.870381        78.1070 
  95   0.0000       2.885528        78.5192 
  96   0.0000       2.924254        79.5730 
  97   0.0000       2.971939        80.8706 
  98   0.0000       3.074052        83.6492 
  99   0.0000       3.079536        83.7984 
 100   0.0000       3.108540        84.5877 
 101   0.0000       3.127261        85.0971 
 102   0.0000       3.191654        86.8493 
 103   0.0000       3.222223        87.6811 
 104   0.0000       3.237710        88.1026 
 105   0.0000       3.327172        90.5370 
 106   0.0000       3.343886        90.9918 
 107   0.0000       3.349511        91.1448 
 108   0.0000       3.391967        92.3001 
 109   0.0000       3.466554        94.3297 
 110   0.0000       3.491132        94.9985 
 111   0.0000       3.566013        97.0362 
 112   0.0000       3.585749        97.5732 
 113   0.0000       3.638020        98.9956 
 114   0.0000       3.665211        99.7355 
 115   0.0000       3.681993       100.1921 
 116   0.0000       3.733616       101.5969 
 117   0.0000       4.006529       109.0232 
 118   0.0000       4.026496       109.5665 
 119   0.0000       4.118536       112.0711 
 120   0.0000       4.231590       115.1474 
 121   0.0000       4.263102       116.0049 
 122   0.0000       4.282421       116.5306 
 123   0.0000       4.327828       117.7662 
 124   0.0000       4.345552       118.2485 
 125   0.0000       4.415142       120.1421 
 126   0.0000       4.521229       123.0289 
 127   0.0000       4.556419       123.9865 
 128   0.0000       4.578441       124.5857 
 129   0.0000       4.593273       124.9893 
 130   0.0000       4.611965       125.4979 
 131   0.0000       4.938497       134.3833 
 132   0.0000       5.052030       137.4727 
 133   0.0000       5.083309       138.3239 
 134   0.0000       5.314303       144.6095 
 135   0.0000       5.343552       145.4054 
 136   0.0000       5.432288       147.8201 
 137   0.0000       5.513581       150.0322 
 138   0.0000       5.530548       150.4939 
 139   0.0000       5.705865       155.2645 
 140   0.0000       5.788424       157.5110 
 141   0.0000       5.791036       157.5821 
 142   0.0000       5.951938       161.9605 
 143   0.0000       5.960532       162.1943 
 144   0.0000       6.021424       163.8513 
 145   0.0000       6.299558       171.4197 
 146   0.0000       6.523449       177.5121 
 147   0.0000       6.544782       178.0926 
 148   0.0000       6.623200       180.2264 
 149   0.0000       6.740023       183.4054 
 150   0.0000       6.789611       184.7547 
 151   0.0000       6.859348       186.6523 
 152   0.0000       7.031872       191.3470 
 153   0.0000       7.080553       192.6717 
 154   0.0000       7.146884       194.4766 
 155   0.0000       7.185982       195.5405 
 156   0.0000       7.296334       198.5433 
 157   0.0000       8.000814       217.7132 
 158   0.0000       8.882247       241.6982 
 159   0.0000       9.303902       253.1721 
 160   0.0000       9.525495       259.2019 
 161   0.0000       9.573882       260.5186 
 162   0.0000       9.774813       265.9862 
 163   0.0000       9.811146       266.9749 
 164   0.0000       9.908768       269.6313 
 165   0.0000      10.078399       274.2472 
 166   0.0000      11.060540       300.9726 
 167   0.0000      19.089612       519.4548 
 168   0.0000      22.399853       609.5310 
 169   0.0000      43.641218      1187.5379 
 170   0.0000      65.801799      1790.5580 
 171   0.0000     126.400397      3439.5297 

                    ********************************
                    * MULLIKEN POPULATION ANALYSIS *
                    ********************************

-----------------------
MULLIKEN ATOMIC CHARGES
-----------------------
   0 C :   -0.001879
   1 O :    0.000005
   2 H :   -0.000036
   3 H :    0.000150
   4 H :   -0.000097
   5 H :   -0.002231
   6 C :   -0.182113
   7 O :   -0.473389
   8 H :    0.320807
   9 H :    0.123646
  10 H :    0.110046
  11 H :    0.105091
Sum of atomic charges:   -0.0000000

--------------------------------
MULLIKEN REDUCED ORBITAL CHARGES
--------------------------------
  0 C s       :     0.000315  s :     0.000315
      pz      :     0.000657  p :     0.001573
      px      :     0.000785
      py      :     0.000131
      dz2     :     0.000016  d :    -0.000009
      dxz     :    -0.000024
      dyz     :    -0.000002
      dx2y2   :     0.000002
      dxy     :    -0.000002
      f0      :     0.000000  f :    -0.000001
      f+1     :    -0.000001
      f-1     :    -0.000000
      f+2     :     0.000000
      f-2     :    -0.000000
      f+3     :     0.000000
      f-3     :     0.000000
  1 O s       :    -0.000247  s :    -0.000247
      pz      :     0.000439  p :     0.000241
      px      :    -0.000138
      py      :    -0.000060
      dz2     :     0.000000  d :     0.000002
      dxz     :     0.000001
      dyz     :     0.000000
      dx2y2   :     0.000000
      dxy     :    -0.000000
      f0      :     0.000000  f :    -0.000000
      f+1     :    -0.000000
      f-1     :     0.000000
      f+2     :    -0.000000
      f-2     :    -0.000000
      f+3     :    -0.000000
      f-3     :    -0.000000
  2 H s       :     0.000038  s :     0.000038
      pz      :    -0.000002  p :    -0.000002
      px      :     0.000000
      py      :    -0.000000
  3 H s       :    -0.000150  s :    -0.000150
      pz      :     0.000001  p :     0.000000
      px      :    -0.000000
      py      :     0.000000
  4 H s       :     0.000097  s :     0.000097
      pz      :     0.000000  p :     0.000000
      px      :     0.000000
      py      :     0.000000
  5 H s       :     0.002225  s :     0.002225
      pz      :     0.000005  p :     0.000006
      px      :     0.000000
      py      :    -0.000000
  6 C s       :     3.219268  s :     3.219268
      pz      :     1.063452  p :     2.859971
      px      :     0.696697
      py      :     1.099822
      dz2     :     0.005721  d :     0.095805
      dxz     :     0.038421
      dyz     :     0.005583
      dx2y2   :     0.010577
      dxy     :     0.035504
      f0      :     0.001145  f :     0.007068
      f+1     :     0.000867
      f-1     :     0.000166
      f+2     :     0.001630
      f-2     :     0.000001
      f+3     :     0.001424
      f-3     :     0.001835
  7 O s       :     3.802692  s :     3.802692
      pz      :     1.789688  p :     4.640010
      px      :     1.310922
      py      :     1.539400
      dz2     :     0.003216  d :     0.029120
      dxz     :     0.004034
      dyz     :     0.005519
      dx2y2   :     0.010710
      dxy     :     0.005641
      f0      :     0.000300  f :     0.001566
      f+1     :     0.000240
      f-1     :     0.000091
      f+2     :     0.000310
      f-2     :     0.000168
      f+3     :     0.000295
      f-3     :     0.000162
  8 H s       :     0.633360  s :     0.633360
      pz      :     0.016832  p :     0.045833
      px      :     0.011403
      py      :     0.017599
  9 H s       :     0.855725  s :     0.855725
      pz      :     0.006365  p :     0.020628
      px      :     0.004976
      py      :     0.009287
 10 H s       :     0.869417  s :     0.869417
      pz      :     0.007203  p :     0.020537
      px      :     0.004167
      py      :     0.009167
 11 H s       :     0.875494  s :     0.875494
      pz      :     0.010822  p :     0.019415
      px      :     0.004163
      py      :     0.004430


                     *******************************
                     * LOEWDIN POPULATION ANALYSIS *
                     *******************************

----------------------
LOEWDIN ATOMIC CHARGES
----------------------
   0 C :   -0.002636
   1 O :   -0.000795
   2 H :   -0.000123
   3 H :   -0.000029
   4 H :   -0.000042
   5 H :   -0.001506
   6 C :   -0.376869
   7 O :   -0.092202
   8 H :    0.179193
   9 H :    0.108352
  10 H :    0.089720
  11 H :    0.096935

-------------------------------
LOEWDIN REDUCED ORBITAL CHARGES
-------------------------------
  0 C s       :     0.000325  s :     0.000325
      pz      :     0.001673  p :     0.002255
      px      :     0.000463
      py      :     0.000119
      dz2     :     0.000041  d :     0.000055
      dxz     :     0.000009
      dyz     :     0.000004
      dx2y2   :     0.000001
      dxy     :     0.000000
      f0      :     0.000000  f :     0.000001
      f+1     :     0.000000
      f-1     :     0.000000
      f+2     :     0.000000
      f-2     :     0.000000
      f+3     :     0.000000
      f-3     :     0.000000
  1 O s       :     0.000041  s :     0.000041
      pz      :     0.000587  p :     0.000745
      px      :     0.000128
      py      :     0.000030
      dz2     :     0.000007  d :     0.000008
      dxz     :     0.000001
      dyz     :     0.000001
      dx2y2   :     0.000000
      dxy     :     0.000000
      f0      :     0.000000  f :     0.000000
      f+1     :     0.000000
      f-1     :     0.000000
      f+2     :     0.000000
      f-2     :     0.000000
      f+3     :     0.000000
      f-3     :     0.000000
  2 H s       :     0.000122  s :     0.000122
      pz      :     0.000001  p :     0.000001
      px      :     0.000000
      py      :     0.000000
  3 H s       :     0.000029  s :     0.000029
      pz      :     0.000000  p :     0.000001
      px      :     0.000000
      py      :     0.000000
  4 H s       :     0.000040  s :     0.000040
      pz      :     0.000001  p :     0.000001
      px      :     0.000000
      py      :     0.000000
  5 H s       :     0.001501  s :     0.001501
      pz      :     0.000004  p :     0.000006
      px      :     0.000001
      py      :     0.000000
  6 C s       :     2.854081  s :     2.854081
      pz      :     1.105408  p :     3.070088
      px      :     0.833469
      py      :     1.131211
      dz2     :     0.042622  d :     0.400590
      dxz     :     0.131018
      dyz     :     0.032319
      dx2y2   :     0.082606
      dxy     :     0.112024
      f0      :     0.007177  f :     0.052110
      f+1     :     0.008362
      f-1     :     0.001070
      f+2     :     0.009807
      f-2     :     0.003271
      f+3     :     0.010727
      f-3     :     0.011696
  7 O s       :     3.387846  s :     3.387846
      pz      :     1.715668  p :     4.633863
      px      :     1.387079
      py      :     1.531116
      dz2     :     0.005631  d :     0.066287
      dxz     :     0.013411
      dyz     :     0.008173
      dx2y2   :     0.021831
      dxy     :     0.017241
      f0      :     0.000585  f :     0.004206
      f+1     :     0.000463
      f-1     :     0.000066
      f+2     :     0.000982
      f-2     :     0.000282
      f+3     :     0.000854
      f-3     :     0.000973
  8 H s       :     0.669216  s :     0.669216
      pz      :     0.052276  p :     0.151591
      px      :     0.029219
      py      :     0.070096
  9 H s       :     0.829783  s :     0.829783
      pz      :     0.018994  p :     0.061865
      px      :     0.014417
      py      :     0.028453
 10 H s       :     0.844606  s :     0.844606
      pz      :     0.022596  p :     0.065674
      px      :     0.013443
      py      :     0.029634
 11 H s       :     0.843428  s :     0.843428
      pz      :     0.032533  p :     0.059637
      px      :     0.013037
      py      :     0.014066


                      *****************************
                      * MAYER POPULATION ANALYSIS *
                      *****************************

  NA   - Mulliken gross atomic population
  ZA   - Total nuclear charge
  QA   - Mulliken gross atomic charge
  VA   - Mayer's total valence
  BVA  - Mayer's bonded valence
  FA   - Mayer's free valence

  ATOM       NA         ZA         QA         VA         BVA        FA
  0 C      0.0019     0.0000    -0.0019     0.0038     0.0038    -0.0000
  1 O     -0.0000     0.0000     0.0000    -0.0000    -0.0000    -0.0000
  2 H      0.0000     0.0000    -0.0000     0.0001     0.0001     0.0000
  3 H     -0.0002     0.0000     0.0002    -0.0003    -0.0003     0.0000
  4 H      0.0001     0.0000    -0.0001     0.0002     0.0002     0.0000
  5 H      0.0022     0.0000    -0.0022     0.0045     0.0045     0.0000
  6 C      6.1821     6.0000    -0.1821     3.9387     3.9387     0.0000
  7 O      8.4734     8.0000    -0.4734     1.8939     1.8939     0.0000
  8 H      0.6792     1.0000     0.3208     0.9057     0.9057    -0.0000
  9 H      0.8764     1.0000     0.1236     0.9582     0.9582    -0.0000
 10 H      0.8900     1.0000     0.1100     0.9541     0.9541    -0.0000
 11 H      0.8949     1.0000     0.1051     0.9569     0.9569     0.0000

  Mayer bond orders larger than 0.1
B(  6-C ,  7-O ) :   0.9991 B(  6-C ,  9-H ) :   0.9725 B(  6-C , 10-H ) :   0.9766 
B(  6-C , 11-H ) :   0.9793 B(  7-O ,  8-H ) :   0.8930 

-------
TIMINGS
-------

Total SCF time: 0 days 0 hours 0 min 24 sec 

Total time                  ....      24.292 sec
Sum of individual times     ....      23.718 sec  ( 97.6%)

Fock matrix formation       ....      22.956 sec  ( 94.5%)
  XC integration            ....      14.962 sec  ( 65.2% of F)
    Basis function eval.    ....       0.057 sec  (  0.4% of XC)
    Density eval.           ....       0.124 sec  (  0.8% of XC)
    XC-Functional eval.     ....       0.120 sec  (  0.8% of XC)
    XC-Potential eval.      ....       0.058 sec  (  0.4% of XC)
Diagonalization             ....       0.065 sec  (  0.3%)
Density matrix formation    ....       0.005 sec  (  0.0%)
Population analysis         ....       0.028 sec  (  0.1%)
Initial guess               ....       0.133 sec  (  0.5%)
Orbital Transformation      ....       0.000 sec  (  0.0%)
Orbital Orthonormalization  ....       0.000 sec  (  0.0%)
DIIS solution               ....       0.073 sec  (  0.3%)
SOSCF solution              ....       0.069 sec  (  0.3%)
Grid generation             ....       0.391 sec  (  1.6%)


-------------------------------------------------------------------------------
                          DFT DISPERSION CORRECTION                            
                                                                               
                              DFTD3 V3.1  Rev 1                                
                              USING zero damping                               
-------------------------------------------------------------------------------
The omegaB97X-D3 functional is recognized. Fit by Chai et al.
Active option DFTDOPT                   ...         3   

molecular C6(AA) [au] = 208.734801 


            DFT-D V3
 parameters
 s6 scaling factor         :     1.0000 
 rs6 scaling factor        :     1.2810 
 s8 scaling factor         :     1.0000 
 rs8 scaling factor        :     1.0940 
 Damping factor alpha6     :    14.0000 
 Damping factor alpha8     :    16.0000 
 ad hoc parameters k1-k3   :    16.0000     1.3333    -4.0000 

 Edisp/kcal,au: -0.161163863852  -0.000256830938 
 E6   /kcal   :  -0.033923561 
 E8   /kcal   :  -0.127240303 
 % E8         :  78.950888569 

-------------------------   ----------------
Dispersion correction           -0.000256831
-------------------------   ----------------


-------------------------   --------------------
FINAL SINGLE POINT ENERGY      -115.732148456572
-------------------------   --------------------


                            ***************************************
                            *     ORCA property calculations      *
                            ***************************************

                                    ---------------------
                                    Active property flags
                                    ---------------------
   (+) Dipole Moment


------------------------------------------------------------------------------
                       ORCA ELECTRIC PROPERTIES CALCULATION
------------------------------------------------------------------------------

Dipole Moment Calculation                       ... on
Quadrupole Moment Calculation                   ... off
Polarizability Calculation                      ... off
GBWName                                         ... 4-113_DFT_B.gbw
Electron density file                           ... 4-113_DFT_B.scfp.tmp
The origin for moment calculation is the CENTER OF MASS  = ( 8.353237, 14.211961 -6.265451)

-------------
DIPOLE MOMENT
-------------
                                X             Y             Z
Electronic contribution:     -1.92448       0.24933       0.02839
Nuclear contribution   :      2.33741      -0.78330      -0.26074
                        -----------------------------------------
Total Dipole Moment    :      0.41294      -0.53397      -0.23235
                        -----------------------------------------
Magnitude (a.u.)       :      0.71388
Magnitude (Debye)      :      1.81454



--------------------
Rotational spectrum 
--------------------
 
Rotational constants in cm-1:     4.505478     0.800237     0.773750 
Rotational constants in MHz : 135070.845806 23990.507079 23196.431734 

 Dipole components along the rotational axes: 
x,y,z [a.u.] :     0.389975    -0.590689    -0.092897 
x,y,z [Debye]:     0.991238    -1.501413    -0.236127 

 
------------------------------------------------------------------------------
                      ORCA CHELPG CHARGES GENERATION
------------------------------------------------------------------------------

GBW file                           ... 4-113_DFT_B.gbw

Reading the GBW file               ... done

Grid spacing                       ...     0.300000
Point Cut-Off                      ...     2.800000
Van-der-Waals Radii                ...        COSMO
Total charge                       ...            0


Number of points X direction       ...           32
Number of points Y direction       ...           26
Number of points Z direction       ...           35
Maximum number of possible points  ...        29120
Final number of points             ...         5972


CHELPG Charges            
--------------------------------
  0   C   :      -0.015412
  1   O   :       0.008950
  2   H   :       0.003223
  3   H   :      -0.031089
  4   H   :       0.025179
  5   H   :       0.000640
  6   C   :       0.141957
  7   O   :      -0.598548
  8   H   :       0.393639
  9   H   :       0.072960
 10   H   :       0.002004
 11   H   :      -0.003503
--------------------------------
Total charge:    -0.000000
--------------------------------

CHELPG charges calculated...

Timings for individual parts in CHELPG calculation:
Grid generation                 ...        0.001 sec (=   0.000 min)
Potential calculation           ...        1.182 sec (=   0.020 min)
Fit to the potential            ...        0.002 sec (=   0.000 min)
------------------------------------------------------------------------------


Timings for individual modules:

Sum of individual times         ...       26.539 sec (=   0.442 min)
GTO integral calculation        ...        0.600 sec (=   0.010 min)   2.3 %
SCF iterations                  ...       24.707 sec (=   0.412 min)  93.1 %
CHELPG charge generation        ...        1.231 sec (=   0.021 min)   4.6 %



                             ****ORCA TERMINATED NORMALLY****
TOTAL RUN TIME: 0 days 0 hours 1 minutes 25 seconds 543 msec
