
                                 *****************
                                 * O   R   C   A *
                                 *****************

           --- An Ab Initio, DFT and Semiempirical electronic structure package ---

                  #######################################################
                  #                        -***-                        #
                  #          Department of theory and spectroscopy      #
                  #               Directorship: Frank Neese             #
                  #        Max Planck Institute fuer Kohlenforschung    #
                  #                Kaiser Wilhelm Platz 1               #
                  #                 D-45470 Muelheim/Ruhr               #
                  #                      Germany                        #
                  #                                                     #
                  #                  All rights reserved                #
                  #                        -***-                        #
                  #######################################################


                         Program Version 4.1.2  - RELEASE  -


 With contributions from (in alphabetic order):
   Daniel Aravena         : Magnetic Properties
   Michael Atanasov       : Ab Initio Ligand Field Theory
   Alexander A. Auer      : GIAO ZORA
   Ute Becker             : Parallelization
   Giovanni Bistoni       : ED, Open-shell LED
   Martin Brehm           : Molecular dynamics
   Dmytro Bykov           : SCF Hessian
   Vijay G. Chilkuri      : MRCI spin determinant printing
   Dipayan Datta          : RHF DLPNO-CCSD density
   Achintya Kumar Dutta   : EOM-CC, STEOM-CC
   Dmitry Ganyushin       : Spin-Orbit,Spin-Spin,Magnetic field MRCI
   Miquel Garcia          : C-PCM Hessian
   Yang Guo               : DLPNO-NEVPT2, CIM, IAO-localization
   Andreas Hansen         : Spin unrestricted coupled pair/coupled cluster methods
   Benjamin Helmich-Paris : CASSCF linear response (MC-RPA)
   Lee Huntington         : MR-EOM, pCC
   Robert Izsak           : Overlap fitted RIJCOSX, COSX-SCS-MP3, EOM
   Christian Kollmar      : KDIIS, OOCD, Brueckner-CCSD(T), CCSD density
   Simone Kossmann        : Meta GGA functionals, TD-DFT gradient, OOMP2, MP2 Hessian
   Martin Krupicka        : AUTO-CI
   Lucas Lang             : DCDCAS
   Dagmar Lenk            : GEPOL surface, SMD
   Dimitrios Liakos       : Extrapolation schemes; parallel MDCI
   Dimitrios Manganas     : ROCIS; embedding schemes
   Dimitrios Pantazis     : SARC Basis sets
   Taras Petrenko         : DFT Hessian,TD-DFT gradient, ASA, ECA, R-Raman, ABS, FL, XAS/XES, NRVS
   Peter Pinski           : DLPNO-MP2, DLPNO-MP2 Gradient
   Christoph Reimann      : Effective Core Potentials
   Marius Retegan         : Local ZFS, SOC
   Christoph Riplinger    : Optimizer, TS searches, QM/MM, DLPNO-CCSD(T), (RO)-DLPNO pert. Triples
   Tobias Risthaus        : Range-separated hybrids, TD-DFT gradient, RPA, STAB
   Michael Roemelt        : Restricted open shell CIS
   Masaaki Saitow         : Open-shell DLPNO
   Barbara Sandhoefer     : DKH picture change effects
   Avijit Sen             : IP-ROCIS
   Kantharuban Sivalingam : CASSCF convergence, NEVPT2, FIC-MRCI
   Bernardo de Souza      : ESD, SOC TD-DFT
   Georgi Stoychev        : AutoAux, RI-MP2 NMR
   Willem Van den Heuvel  : Paramagnetic NMR
   Boris Wezisla          : Elementary symmetry handling
   Frank Wennmohs         : Technical directorship


 We gratefully acknowledge several colleagues who have allowed us to
 interface, adapt or use parts of their codes:
   Stefan Grimme, W. Hujo, H. Kruse,             : VdW corrections, initial TS optimization,
                  C. Bannwarth                     DFT functionals, gCP, sTDA/sTD-DF
   Ed Valeev                                     : LibInt (2-el integral package), F12 methods
   Garnet Chan, S. Sharma, J. Yang, R. Olivares  : DMRG
   Ulf Ekstrom                                   : XCFun DFT Library
   Mihaly Kallay                                 : mrcc  (arbitrary order and MRCC methods)
   Andreas Klamt, Michael Diedenhofen            : otool_cosmo (COSMO solvation model)
   Jiri Pittner, Ondrej Demel                    : Mk-CCSD
   Frank Weinhold                                : gennbo (NPA and NBO analysis)
   Christopher J. Cramer and Donald G. Truhlar   : smd solvation model
   Lars Goerigk                                  : TD-DFT with DH, B97 family of functionals
   V. Asgeirsson, H. Jonsson                     : NEB implementation
   FAccTs GmbH                                   : IRC, NEB, NEB-TS, Multilevel


 Your calculation uses the libint2 library for the computation of 2-el integrals
 For citations please refer to: http://libint.valeyev.net

 This ORCA versions uses:
   CBLAS   interface :  Fast vector & matrix operations
   LAPACKE interface :  Fast linear algebra routines
   SCALAPACK package :  Parallel linear algebra routines


Your calculation utilizes the atom-pairwise dispersion correction
with the zero-damping scheme (D30)
Cite in your paper:
S.Grimme, J.Antony, S.Ehrlich and H.Krieg, J.Chem.Phys., 132, (2010), 154104 
   

XCFun DFT library Copyright 2009-2010 Ulf Ekstrom and contributors.
See http://admol.org/xcfun for more information. This is free soft-
ware; see the source code for copying conditions. There is ABSOLUTELY
NO WARRANTY; not even for MERCHANTABILITY or FITNESS FOR A PARTICULAR
PURPOSE. For details see the documentation. Scientific users of this 
library should cite U. Ekstrom, L. Visscher, R. Bast, A. J. Thorvald-
sen and K. Ruud; J.Chem.Theor.Comp. 2010, DOI: 10.1021/ct100117s
XCFun Version 0.99 
----- Orbital basis set information -----
Your calculation utilizes the basis: def2-TZVP
   F. Weigend and R. Ahlrichs, Phys. Chem. Chem. Phys. 7, 3297 (2005).

================================================================================
                                        WARNINGS
                       Please study these warnings very carefully!
================================================================================


INFO   : the flag for use of LIBINT has been found!

================================================================================
                                       INPUT FILE
================================================================================
NAME = 153.in
|  1> #Run DFT-D3 single point of the dimer
|  2> ! wB97X-D3 def2-TZVP TIGHTSCF  CHELPG PAL8
|  3> 
|  4> %base "153_charges"
|  5> 
|  6> %scf
|  7> MaxIter 1000
|  8> end
|  9> %output
| 10>   Print[ P_Mayer ] 1
| 11>   Print[ P_NatPop ] 1
| 12>   Print[ P_Hirshfeld ] 1
| 13>   Print[ P_Mulliken ] 1
| 14>   Print [ P_Loewdin ] 1
| 15> end
| 16> 
| 17> * xyz 0 1
| 18>   C                      1.891369             -5.323824            2.231827            
| 19>   O                      1.550332             -3.988397            2.516834            
| 20>   H                      2.119373             -3.784945            3.261972            
| 21>   H                      1.085118             -5.864986            1.832767            
| 22>   H                      2.753632             -5.317270            1.457224            
| 23>   H                      2.193664             -5.882626            3.142271            
| 24> *
| 25> 
| 26>                          ****END OF INPUT****
================================================================================

                       ****************************
                       * Single Point Calculation *
                       ****************************

---------------------------------
CARTESIAN COORDINATES (ANGSTROEM)
---------------------------------
  C      1.891369   -5.323824    2.231827
  O      1.550332   -3.988397    2.516834
  H      2.119373   -3.784945    3.261972
  H      1.085118   -5.864986    1.832767
  H      2.753632   -5.317270    1.457224
  H      2.193664   -5.882626    3.142271

----------------------------
CARTESIAN COORDINATES (A.U.)
----------------------------
  NO LB      ZA    FRAG     MASS         X           Y           Z
   0 C     6.0000    0    12.011    3.574169  -10.060569    4.217542
   1 O     8.0000    0    15.999    2.929703   -7.536978    4.756127
   2 H     1.0000    0     1.008    4.005035   -7.152509    6.164234
   3 H     1.0000    0     1.008    2.050576  -11.083217    3.463428
   4 H     1.0000    0     1.008    5.203610  -10.048184    2.753754
   5 H     1.0000    0     1.008    4.145424  -11.116552    5.938032

--------------------------------
INTERNAL COORDINATES (ANGSTROEM)
--------------------------------
 C      0   0   0     0.000000000000     0.00000000     0.00000000
 O      1   0   0     1.407444669515     0.00000000     0.00000000
 H      2   1   0     0.959390960469   102.40199440     0.00000000
 H      1   2   3     1.049831352573   112.33265943   149.50525697
 H      1   2   3     1.159116147629   108.07204950   269.38400032
 H      1   2   3     1.110202782993   112.17843357    31.30110006

---------------------------
INTERNAL COORDINATES (A.U.)
---------------------------
 C      0   0   0     0.000000000000     0.00000000     0.00000000
 O      1   0   0     2.659684974031     0.00000000     0.00000000
 H      2   1   0     1.812986170645   102.40199440     0.00000000
 H      1   2   3     1.983893743167   112.33265943   149.50525697
 H      1   2   3     2.190412076424   108.07204950   269.38400032
 H      1   2   3     2.097979212974   112.17843357    31.30110006

---------------------
BASIS SET INFORMATION
---------------------
There are 3 groups of distinct atoms

 Group   1 Type C   : 11s6p2d1f contracted to 5s3p2d1f pattern {62111/411/11/1}
 Group   2 Type O   : 11s6p2d1f contracted to 5s3p2d1f pattern {62111/411/11/1}
 Group   3 Type H   : 5s1p contracted to 3s1p pattern {311/1}

Atom   0C    basis set group =>   1
Atom   1O    basis set group =>   2
Atom   2H    basis set group =>   3
Atom   3H    basis set group =>   3
Atom   4H    basis set group =>   3
Atom   5H    basis set group =>   3


           ************************************************************
           *        Program running with 8 parallel MPI-processes     *
           *              working on a common directory               *
           ************************************************************
------------------------------------------------------------------------------
                           ORCA GTO INTEGRAL CALCULATION
------------------------------------------------------------------------------

                         BASIS SET STATISTICS AND STARTUP INFO

 # of primitive gaussian shells          ...   64
 # of primitive gaussian functions       ...  124
 # of contracted shells                  ...   38
 # of contracted basis functions         ...   86
 Highest angular momentum                ...    3
 Maximum contraction depth               ...    6
 Integral package used                   ... LIBINT
 Integral threshhold            Thresh   ...  2.500e-11
 Primitive cut-off              TCut     ...  2.500e-12


------------------------------ INTEGRAL EVALUATION ----------------------------


 * One electron integrals 
 Pre-screening matrix                    ... done
 Shell pair data                         ... done (   0.000 sec)



           ************************************************************
           *        Program running with 8 parallel MPI-processes     *
           *              working on a common directory               *
           ************************************************************
-------------------------------------------------------------------------------
                                 ORCA SCF
-------------------------------------------------------------------------------

------------
SCF SETTINGS
------------
Hamiltonian:
 Density Functional     Method          .... DFT(GTOs)
 Exchange Functional    Exchange        .... WB97X-D3
 Correlation Functional Correlation     .... WB97X-D3
 Gradients option       PostSCFGGA      .... off
 Hybrid DFT is turned on
   Fraction HF Exchange ScalHFX         ....  0.195728
   Scaling of DF-GGA-X  ScalDFX         ....  0.000000
   Scaling of DF-GGA-C  ScalDFC         ....  1.000000
   Scaling of DF-LDA-C  ScalLDAC        ....  1.000000
   Perturbative correction              ....  0.000000
   Density functional embedding theory  .... OFF
 Long-range corrected/Screened/Range-Separated Hybrid DFT is turned on
   Amount of maximum screened exact exchange              ....  0.804272
   Range separation parameter mu (erf(mu*r12)/r12)        ....  0.250000


General Settings:
 Integral files         IntName         .... 153_charges
 Hartree-Fock type      HFTyp           .... RHF
 Total Charge           Charge          ....    0
 Multiplicity           Mult            ....    1
 Number of Electrons    NEL             ....   18
 Basis Dimension        Dim             ....   86
 Nuclear Repulsion      ENuc            ....     40.4505958730 Eh

Convergence Acceleration:
 DIIS                   CNVDIIS         .... on
   Start iteration      DIISMaxIt       ....    12
   Startup error        DIISStart       ....  0.200000
   # of expansion vecs  DIISMaxEq       ....     5
   Bias factor          DIISBfac        ....   1.050
   Max. coefficient     DIISMaxC        ....  10.000
 Newton-Raphson         CNVNR           .... off
 SOSCF                  CNVSOSCF        .... on
   Start iteration      SOSCFMaxIt      ....   150
   Startup grad/error   SOSCFStart      ....  0.003300
 Level Shifting         CNVShift        .... on
   Level shift para.    LevelShift      ....    0.2500
   Turn off err/grad.   ShiftErr        ....    0.0010
 Zerner damping         CNVZerner       .... off
 Static damping         CNVDamp         .... on
   Fraction old density DampFac         ....    0.7000
   Max. Damping (<1)    DampMax         ....    0.9800
   Min. Damping (>=0)   DampMin         ....    0.0000
   Turn off err/grad.   DampErr         ....    0.1000
 Fernandez-Rico         CNVRico         .... off

SCF Procedure:
 Maximum # iterations   MaxIter         ....  1000
 SCF integral mode      SCFMode         .... Direct
   Integral package                     .... LIBINT
 Reset frequency        DirectResetFreq ....    20
 Integral Threshold     Thresh          ....  2.500e-11 Eh
 Primitive CutOff       TCut            ....  2.500e-12 Eh

Convergence Tolerance:
 Convergence Check Mode ConvCheckMode   .... Total+1el-Energy
 Convergence forced     ConvForced      .... 0
 Energy Change          TolE            ....  1.000e-08 Eh
 1-El. energy change                    ....  1.000e-05 Eh
 Orbital Gradient       TolG            ....  1.000e-05
 Orbital Rotation angle TolX            ....  1.000e-05
 DIIS Error             TolErr          ....  5.000e-07


Diagonalization of the overlap matrix:
Smallest eigenvalue                        ... 1.731e-03
Time for diagonalization                   ...    0.101 sec
Threshold for overlap eigenvalues          ... 1.000e-08
Number of eigenvalues below threshold      ... 0
Time for construction of square roots      ...    0.379 sec
Total time needed                          ...    0.480 sec

-------------------
DFT GRID GENERATION
-------------------

General Integration Accuracy     IntAcc      ...  4.340
Radial Grid Type                 RadialGrid  ... Gauss-Chebyshev
Angular Grid (max. acc.)         AngularGrid ... Lebedev-110
Angular grid pruning method      GridPruning ... 3 (G Style)
Weight generation scheme         WeightScheme... Becke
Basis function cutoff            BFCut       ...    1.0000e-11
Integration weight cutoff        WCut        ...    1.0000e-14
Grids for H and He will be reduced by one unit

# of grid points (after initial pruning)     ...   6548 (   0.0 sec)
# of grid points (after weights+screening)   ...   6360 (   2.2 sec)
nearest neighbour list constructed           ...    0.0 sec
Grid point re-assignment to atoms done       ...    0.0 sec
Grid point division into batches done        ...    0.0 sec
Reduced shell lists constructed in    0.0 sec

Total number of grid points                  ...     6360
Total number of batches                      ...      101
Average number of points per batch           ...       62
Average number of grid points per atom       ...     1060
Average number of shells per batch           ...    31.50 (82.89%)
Average number of basis functions per batch  ...    71.64 (83.31%)
Average number of large shells per batch     ...    30.57 (97.05%)
Average number of large basis fcns per batch ...    69.86 (97.51%)
Maximum spatial batch extension              ...  17.68, 15.88, 15.12 au
Average spatial batch extension              ...   0.48,  0.44,  0.42 au

Time for grid setup =    4.705 sec

------------------------------
INITIAL GUESS: MODEL POTENTIAL
------------------------------
Loading Hartree-Fock densities                     ... done
Calculating cut-offs                               ... done
Setting up the integral package                    ... done
Initializing the effective Hamiltonian             ... done
Starting the Coulomb interaction                   ... done (   0.0 sec)
Reading the grid                                   ... done
Mapping shells                                     ... done
Starting the XC term evaluation                    ... done (   0.2 sec)
  promolecular density results
     # of electrons  =     18.003263851
     EX              =    -14.428583225
     EC              =     -0.575379616
     EX+EC           =    -15.003962840
Transforming the Hamiltonian                       ... done (   0.0 sec)
Diagonalizing the Hamiltonian                      ... done (   0.0 sec)
Back transforming the eigenvectors                 ... done (   0.0 sec)
Now organizing SCF variables                       ... done
                      ------------------
                      INITIAL GUESS DONE (   5.3 sec)
                      ------------------
--------------
SCF ITERATIONS
--------------
ITER       Energy         Delta-E        Max-DP      RMS-DP      [F,P]     Damp
               ***  Starting incremental Fock matrix formation  ***
  0   -115.6455881439   0.000000000000 0.03667211  0.00148519  0.2451651 0.7000
  1   -115.6822493286  -0.036661184681 0.02158911  0.00104850  0.1218726 0.7000
                               ***Turning on DIIS***
  2   -115.6990541698  -0.016804841227 0.03072523  0.00188521  0.0466969 0.0000
  3   -115.7263015099  -0.027247340109 0.01742068  0.00069154  0.0604821 0.0000
  4   -115.7308128380  -0.004511328077 0.00405954  0.00013918  0.0061649 0.0000
                      *** Initiating the SOSCF procedure ***
                           *** Shutting down DIIS ***
                      *** Re-Reading the Fockian *** 
                      *** Removing any level shift *** 
ITER      Energy       Delta-E        Grad      Rot      Max-DP    RMS-DP
  5   -115.73090845  -0.0000956138  0.000455  0.000455  0.000669  0.000049
               *** Restarting incremental Fock matrix formation ***
  6   -115.73091705  -0.0000085949  0.000158  0.000216  0.000487  0.000031
  7   -115.73091793  -0.0000008863  0.000052  0.000128  0.000243  0.000014
  8   -115.73091801  -0.0000000752  0.000023  0.000019  0.000039  0.000002
  9   -115.73091802  -0.0000000105  0.000011  0.000009  0.000021  0.000001
 10   -115.73091802  -0.0000000022  0.000003  0.000003  0.000004  0.000000
                  ***Gradient check signals convergence***
              ***Rediagonalizing the Fockian in SOSCF/NRSCF***

               *****************************************************
               *                     SUCCESS                       *
               *           SCF CONVERGED AFTER  11 CYCLES          *
               *****************************************************

Setting up the final grid:

General Integration Accuracy     IntAcc      ...  4.670
Radial Grid Type                 RadialGrid  ... Gauss-Chebyshev
Angular Grid (max. acc.)         AngularGrid ... Lebedev-302
Angular grid pruning method      GridPruning ... 3 (G Style)
Weight generation scheme         WeightScheme... Becke
Basis function cutoff            BFCut       ...    1.0000e-11
Integration weight cutoff        WCut        ...    1.0000e-14
Grids for H and He will be reduced by one unit

# of grid points (after initial pruning)     ...  26000 (   0.0 sec)
# of grid points (after weights+screening)   ...  25185 (   0.0 sec)
nearest neighbour list constructed           ...    0.0 sec
Grid point re-assignment to atoms done       ...    0.0 sec
Grid point division into batches done        ...    0.1 sec
Reduced shell lists constructed in    0.1 sec

Total number of grid points                  ...    25185
Total number of batches                      ...      396
Average number of points per batch           ...       63
Average number of grid points per atom       ...     4198
Average number of shells per batch           ...    31.29 (82.35%)
Average number of basis functions per batch  ...    71.69 (83.36%)
Average number of large shells per batch     ...    29.90 (95.55%)
Average number of large basis fcns per batch ...    68.96 (96.20%)
Maximum spatial batch extension              ...  15.65, 16.53, 15.42 au
Average spatial batch extension              ...   0.32,  0.33,  0.31 au

Final grid set up in    0.1 sec
Final integration                            ... done (   0.1 sec)
Change in XC energy                          ...    -0.000068344
Integrated number of electrons               ...    18.000003870
Previous integrated no of electrons          ...    18.001472226

----------------
TOTAL SCF ENERGY
----------------

Total Energy       :         -115.73098637 Eh           -3149.20024 eV

Components:
Nuclear Repulsion  :           40.45059587 Eh            1100.71667 eV
Electronic Energy  :         -156.18158224 Eh           -4249.91691 eV
One Electron Energy:         -237.28913910 Eh           -6456.96574 eV
Two Electron Energy:           81.10755686 Eh            2207.04883 eV

Virial components:
Potential Energy   :         -230.96943996 Eh           -6284.99798 eV
Kinetic Energy     :          115.23845359 Eh            3135.79774 eV
Virial Ratio       :            2.00427403


DFT components:
N(Alpha)           :        9.000001935060 electrons
N(Beta)            :        9.000001935060 electrons
N(Total)           :       18.000003870119 electrons
E(XC)              :      -10.649404923928 Eh       
DFET-embed. en.    :        0.000000000000 Eh       

---------------
SCF CONVERGENCE
---------------

  Last Energy change         ...   -2.1495e-10  Tolerance :   1.0000e-08
  Last MAX-Density change    ...    2.2574e-06  Tolerance :   1.0000e-07
  Last RMS-Density change    ...    1.0712e-07  Tolerance :   5.0000e-09
  Last Orbital Gradient      ...    1.2172e-06  Tolerance :   1.0000e-05
  Last Orbital Rotation      ...    1.0132e-06  Tolerance :   1.0000e-05

             **** THE GBW FILE WAS UPDATED (153_charges.gbw) ****
             **** DENSITY FILE WAS UPDATED (153_charges.scfp.tmp) ****
             **** ENERGY FILE WAS UPDATED (153_charges.en.tmp) ****
----------------
ORBITAL ENERGIES
----------------

  NO   OCC          E(Eh)            E(eV) 
   0   2.0000     -19.231861      -523.3256 
   1   2.0000     -10.316272      -280.7200 
   2   2.0000      -1.142766       -31.0962 
   3   2.0000      -0.791231       -21.5305 
   4   2.0000      -0.610404       -16.6099 
   5   2.0000      -0.541963       -14.7476 
   6   2.0000      -0.528264       -14.3748 
   7   2.0000      -0.438919       -11.9436 
   8   2.0000      -0.371975       -10.1220 
   9   0.0000       0.112648         3.0653 
  10   0.0000       0.156307         4.2533 
  11   0.0000       0.192120         5.2279 
  12   0.0000       0.209204         5.6927 
  13   0.0000       0.230366         6.2686 
  14   0.0000       0.306252         8.3336 
  15   0.0000       0.310892         8.4598 
  16   0.0000       0.400655        10.9024 
  17   0.0000       0.448607        12.2072 
  18   0.0000       0.485077        13.1996 
  19   0.0000       0.519347        14.1322 
  20   0.0000       0.548873        14.9356 
  21   0.0000       0.560439        15.2503 
  22   0.0000       0.593388        16.1469 
  23   0.0000       0.615384        16.7455 
  24   0.0000       0.685739        18.6599 
  25   0.0000       0.758805        20.6481 
  26   0.0000       0.795912        21.6579 
  27   0.0000       0.867911        23.6171 
  28   0.0000       0.979984        26.6667 
  29   0.0000       1.041613        28.3437 
  30   0.0000       1.111280        30.2395 
  31   0.0000       1.363284        37.0968 
  32   0.0000       1.482917        40.3522 
  33   0.0000       1.550485        42.1909 
  34   0.0000       1.604265        43.6543 
  35   0.0000       1.627536        44.2875 
  36   0.0000       1.636023        44.5184 
  37   0.0000       1.665139        45.3107 
  38   0.0000       1.688627        45.9499 
  39   0.0000       1.783287        48.5257 
  40   0.0000       1.950001        53.0622 
  41   0.0000       2.029067        55.2137 
  42   0.0000       2.062574        56.1255 
  43   0.0000       2.073332        56.4182 
  44   0.0000       2.142446        58.2989 
  45   0.0000       2.240649        60.9712 
  46   0.0000       2.298394        62.5425 
  47   0.0000       2.374696        64.6188 
  48   0.0000       2.393897        65.1413 
  49   0.0000       2.448236        66.6199 
  50   0.0000       2.491371        67.7937 
  51   0.0000       2.548926        69.3598 
  52   0.0000       2.641681        71.8838 
  53   0.0000       2.680544        72.9413 
  54   0.0000       2.824761        76.8657 
  55   0.0000       2.861447        77.8639 
  56   0.0000       2.943197        80.0885 
  57   0.0000       2.956458        80.4493 
  58   0.0000       3.095612        84.2359 
  59   0.0000       3.174909        86.3937 
  60   0.0000       3.262443        88.7756 
  61   0.0000       3.381125        92.0051 
  62   0.0000       3.446198        93.7758 
  63   0.0000       3.505738        95.3960 
  64   0.0000       3.618111        98.4538 
  65   0.0000       3.633467        98.8717 
  66   0.0000       3.663677        99.6937 
  67   0.0000       4.009969       109.1168 
  68   0.0000       4.180570       113.7591 
  69   0.0000       4.314354       117.3995 
  70   0.0000       4.411940       120.0550 
  71   0.0000       4.540603       123.5561 
  72   0.0000       5.374985       146.2608 
  73   0.0000       5.463240       148.6623 
  74   0.0000       5.539686       150.7425 
  75   0.0000       5.758167       156.6877 
  76   0.0000       5.831890       158.6938 
  77   0.0000       6.025012       163.9489 
  78   0.0000       6.331242       172.2819 
  79   0.0000       6.535574       177.8420 
  80   0.0000       6.780246       184.4999 
  81   0.0000       6.819348       185.5639 
  82   0.0000       7.014178       190.8655 
  83   0.0000       7.200994       195.9490 
  84   0.0000      22.378594       608.9525 
  85   0.0000      43.647385      1187.7057 

                    ********************************
                    * MULLIKEN POPULATION ANALYSIS *
                    ********************************

-----------------------
MULLIKEN ATOMIC CHARGES
-----------------------
   0 C :   -0.177490
   1 O :   -0.457770
   2 H :    0.315921
   3 H :    0.123657
   4 H :    0.093603
   5 H :    0.102080
Sum of atomic charges:    0.0000000

--------------------------------
MULLIKEN REDUCED ORBITAL CHARGES
--------------------------------
  0 C s       :     3.235168  s :     3.235168
      pz      :     1.052956  p :     2.834234
      px      :     1.052666
      py      :     0.728613
      dz2     :     0.009888  d :     0.100302
      dxz     :     0.012194
      dyz     :     0.026814
      dx2y2   :     0.016993
      dxy     :     0.034413
      f0      :     0.000588  f :     0.007786
      f+1     :     0.000375
      f-1     :     0.001207
      f+2     :     0.001418
      f-2     :     0.000667
      f+3     :     0.001626
      f-3     :     0.001906
  1 O s       :     3.803476  s :     3.803476
      pz      :     1.559801  p :     4.621092
      px      :     1.684489
      py      :     1.376802
      dz2     :     0.005211  d :     0.031572
      dxz     :     0.007846
      dyz     :     0.003990
      dx2y2   :     0.007719
      dxy     :     0.006805
      f0      :     0.000127  f :     0.001631
      f+1     :     0.000431
      f-1     :     0.000165
      f+2     :     0.000321
      f-2     :     0.000158
      f+3     :     0.000212
      f-3     :     0.000218
  2 H s       :     0.636467  s :     0.636467
      pz      :     0.018356  p :     0.047611
      px      :     0.017258
      py      :     0.011997
  3 H s       :     0.855223  s :     0.855223
      pz      :     0.006198  p :     0.021121
      px      :     0.008926
      py      :     0.005998
  4 H s       :     0.888304  s :     0.888304
      pz      :     0.007670  p :     0.018093
      px      :     0.008192
      py      :     0.002231
  5 H s       :     0.879229  s :     0.879229
      pz      :     0.008981  p :     0.018691
      px      :     0.004492
      py      :     0.005218


                     *******************************
                     * LOEWDIN POPULATION ANALYSIS *
                     *******************************

----------------------
LOEWDIN ATOMIC CHARGES
----------------------
   0 C :   -0.396744
   1 O :   -0.072497
   2 H :    0.172697
   3 H :    0.093396
   4 H :    0.104926
   5 H :    0.098223

-------------------------------
LOEWDIN REDUCED ORBITAL CHARGES
-------------------------------
  0 C s       :     2.869577  s :     2.869577
      pz      :     1.085943  p :     3.051443
      px      :     1.096474
      py      :     0.869027
      dz2     :     0.040542  d :     0.417798
      dxz     :     0.063107
      dyz     :     0.106893
      dx2y2   :     0.091619
      dxy     :     0.115637
      f0      :     0.005341  f :     0.057926
      f+1     :     0.001988
      f-1     :     0.012170
      f+2     :     0.007943
      f-2     :     0.003825
      f+3     :     0.013090
      f-3     :     0.013568
  1 O s       :     3.374023  s :     3.374023
      pz      :     1.527710  p :     4.621239
      px      :     1.650829
      py      :     1.442699
      dz2     :     0.010386  d :     0.072317
      dxz     :     0.013101
      dyz     :     0.014593
      dx2y2   :     0.016805
      dxy     :     0.017432
      f0      :     0.000359  f :     0.004918
      f+1     :     0.000951
      f-1     :     0.000501
      f+2     :     0.000915
      f-2     :     0.000437
      f+3     :     0.000930
      f-3     :     0.000824
  2 H s       :     0.669503  s :     0.669503
      pz      :     0.065805  p :     0.157801
      px      :     0.060127
      py      :     0.031868
  3 H s       :     0.839353  s :     0.839353
      pz      :     0.019530  p :     0.067251
      px      :     0.029902
      py      :     0.017819
  4 H s       :     0.844681  s :     0.844681
      pz      :     0.020786  p :     0.050393
      px      :     0.022987
      py      :     0.006620
  5 H s       :     0.843993  s :     0.843993
      pz      :     0.027551  p :     0.057784
      px      :     0.014267
      py      :     0.015966


                      *****************************
                      * MAYER POPULATION ANALYSIS *
                      *****************************

  NA   - Mulliken gross atomic population
  ZA   - Total nuclear charge
  QA   - Mulliken gross atomic charge
  VA   - Mayer's total valence
  BVA  - Mayer's bonded valence
  FA   - Mayer's free valence

  ATOM       NA         ZA         QA         VA         BVA        FA
  0 C      6.1775     6.0000    -0.1775     3.9466     3.9466     0.0000
  1 O      8.4578     8.0000    -0.4578     1.8939     1.8939    -0.0000
  2 H      0.6841     1.0000     0.3159     0.9110     0.9110     0.0000
  3 H      0.8763     1.0000     0.1237     0.9526     0.9526    -0.0000
  4 H      0.9064     1.0000     0.0936     0.9611     0.9611     0.0000
  5 H      0.8979     1.0000     0.1021     0.9609     0.9609     0.0000

  Mayer bond orders larger than 0.1
B(  0-C ,  1-O ) :   1.0071 B(  0-C ,  3-H ) :   0.9731 B(  0-C ,  4-H ) :   0.9763 
B(  0-C ,  5-H ) :   0.9812 B(  1-O ,  2-H ) :   0.9026 


------------------
HIRSHFELD ANALYSIS
------------------

Total integrated alpha density =      9.000736113
Total integrated beta density  =      9.000736113

  ATOM     CHARGE      SPIN    
   0 C    0.006635    0.000000
   1 O   -0.248618    0.000000
   2 H    0.158831    0.000000
   3 H    0.034140    0.000000
   4 H    0.019682    0.000000
   5 H    0.027858    0.000000

  TOTAL  -0.001472    0.000000

-------
TIMINGS
-------

Total SCF time: 0 days 0 hours 0 min 26 sec 

Total time                  ....      26.039 sec
Sum of individual times     ....      22.607 sec  ( 86.8%)

Fock matrix formation       ....      14.071 sec  ( 54.0%)
  XC integration            ....       3.267 sec  ( 23.2% of F)
    Basis function eval.    ....       0.038 sec  (  1.2% of XC)
    Density eval.           ....       0.069 sec  (  2.1% of XC)
    XC-Functional eval.     ....       0.073 sec  (  2.2% of XC)
    XC-Potential eval.      ....       0.034 sec  (  1.1% of XC)
Diagonalization             ....       1.645 sec  (  6.3%)
Density matrix formation    ....       0.709 sec  (  2.7%)
Population analysis         ....       0.033 sec  (  0.1%)
Initial guess               ....       0.644 sec  (  2.5%)
Orbital Transformation      ....       0.000 sec  (  0.0%)
Orbital Orthonormalization  ....       0.000 sec  (  0.0%)
DIIS solution               ....       0.229 sec  (  0.9%)
SOSCF solution              ....       0.442 sec  (  1.7%)
Grid generation             ....       4.834 sec  ( 18.6%)


-------------------------------------------------------------------------------
                          DFT DISPERSION CORRECTION                            
                                                                               
                              DFTD3 V3.1  Rev 1                                
                              USING zero damping                               
-------------------------------------------------------------------------------
The omegaB97X-D3 functional is recognized. Fit by Chai et al.
Active option DFTDOPT                   ...         3   

molecular C6(AA) [au] = 208.770857 


            DFT-D V3
 parameters
 s6 scaling factor         :     1.0000 
 rs6 scaling factor        :     1.2810 
 s8 scaling factor         :     1.0000 
 rs8 scaling factor        :     1.0940 
 Damping factor alpha6     :    14.0000 
 Damping factor alpha8     :    16.0000 
 ad hoc parameters k1-k3   :    16.0000     1.3333    -4.0000 

 Edisp/kcal,au: -0.145932959167  -0.000232558949 
 E6   /kcal   :  -0.026656083 
 E8   /kcal   :  -0.119276876 
 % E8         :  81.734021447 

-------------------------   ----------------
Dispersion correction           -0.000232559
-------------------------   ----------------


-------------------------   --------------------
FINAL SINGLE POINT ENERGY      -115.731218924118
-------------------------   --------------------


                            ***************************************
                            *     ORCA property calculations      *
                            ***************************************

                                    ---------------------
                                    Active property flags
                                    ---------------------
   (+) Dipole Moment


------------------------------------------------------------------------------
                       ORCA ELECTRIC PROPERTIES CALCULATION
------------------------------------------------------------------------------

Dipole Moment Calculation                       ... on
Quadrupole Moment Calculation                   ... off
Polarizability Calculation                      ... off
GBWName                                         ... 153_charges.gbw
Electron density file                           ... 153_charges.scfp.tmp
The origin for moment calculation is the CENTER OF MASS  = ( 3.287234, -8.774024  4.532057)

-------------
DIPOLE MOMENT
-------------
                                X             Y             Z
Electronic contribution:     -0.67342       1.73853       0.28673
Nuclear contribution   :      1.11707      -2.12727       0.09669
                        -----------------------------------------
Total Dipole Moment    :      0.44366      -0.38874       0.38342
                        -----------------------------------------
Magnitude (a.u.)       :      0.70353
Magnitude (Debye)      :      1.78824



--------------------
Rotational spectrum 
--------------------
 
Rotational constants in cm-1:     4.156678     0.837746     0.814983 
Rotational constants in MHz : 124614.082668 25115.000039 24432.589834 

 Dipole components along the rotational axes: 
x,y,z [a.u.] :     0.369502     0.598067     0.027287 
x,y,z [Debye]:     0.939198     1.520165     0.069358 

 
------------------------------------------------------------------------------
                      ORCA CHELPG CHARGES GENERATION
------------------------------------------------------------------------------

GBW file                           ... 153_charges.gbw

Reading the GBW file               ... done

Grid spacing                       ...     0.300000
Point Cut-Off                      ...     2.800000
Van-der-Waals Radii                ...        COSMO
Total charge                       ...            0


Number of points X direction       ...           24
Number of points Y direction       ...           25
Number of points Z direction       ...           24
Maximum number of possible points  ...        14400
Final number of points             ...         5873


CHELPG Charges            
--------------------------------
  0   C   :       0.106945
  1   O   :      -0.579308
  2   H   :       0.389976
  3   H   :       0.072384
  4   H   :       0.007801
  5   H   :       0.002202
--------------------------------
Total charge:    -0.000000
--------------------------------

CHELPG charges calculated...

Timings for individual parts in CHELPG calculation:
Grid generation                 ...        0.002 sec (=   0.000 min)
Potential calculation           ...        0.656 sec (=   0.011 min)
Fit to the potential            ...        0.001 sec (=   0.000 min)
------------------------------------------------------------------------------


Timings for individual modules:

Sum of individual times         ...       37.181 sec (=   0.620 min)
GTO integral calculation        ...        4.344 sec (=   0.072 min)  11.7 %
SCF iterations                  ...       32.118 sec (=   0.535 min)  86.4 %
CHELPG charge generation        ...        0.719 sec (=   0.012 min)   1.9 %
                             ****ORCA TERMINATED NORMALLY****
TOTAL RUN TIME: 0 days 0 hours 0 minutes 41 seconds 75 msec
