
                                 *****************
                                 * O   R   C   A *
                                 *****************

           --- An Ab Initio, DFT and Semiempirical electronic structure package ---

                  #######################################################
                  #                        -***-                        #
                  #          Department of theory and spectroscopy      #
                  #               Directorship: Frank Neese             #
                  #        Max Planck Institute fuer Kohlenforschung    #
                  #                Kaiser Wilhelm Platz 1               #
                  #                 D-45470 Muelheim/Ruhr               #
                  #                      Germany                        #
                  #                                                     #
                  #                  All rights reserved                #
                  #                        -***-                        #
                  #######################################################


                         Program Version 4.1.2  - RELEASE  -


 With contributions from (in alphabetic order):
   Daniel Aravena         : Magnetic Properties
   Michael Atanasov       : Ab Initio Ligand Field Theory
   Alexander A. Auer      : GIAO ZORA
   Ute Becker             : Parallelization
   Giovanni Bistoni       : ED, Open-shell LED
   Martin Brehm           : Molecular dynamics
   Dmytro Bykov           : SCF Hessian
   Vijay G. Chilkuri      : MRCI spin determinant printing
   Dipayan Datta          : RHF DLPNO-CCSD density
   Achintya Kumar Dutta   : EOM-CC, STEOM-CC
   Dmitry Ganyushin       : Spin-Orbit,Spin-Spin,Magnetic field MRCI
   Miquel Garcia          : C-PCM Hessian
   Yang Guo               : DLPNO-NEVPT2, CIM, IAO-localization
   Andreas Hansen         : Spin unrestricted coupled pair/coupled cluster methods
   Benjamin Helmich-Paris : CASSCF linear response (MC-RPA)
   Lee Huntington         : MR-EOM, pCC
   Robert Izsak           : Overlap fitted RIJCOSX, COSX-SCS-MP3, EOM
   Christian Kollmar      : KDIIS, OOCD, Brueckner-CCSD(T), CCSD density
   Simone Kossmann        : Meta GGA functionals, TD-DFT gradient, OOMP2, MP2 Hessian
   Martin Krupicka        : AUTO-CI
   Lucas Lang             : DCDCAS
   Dagmar Lenk            : GEPOL surface, SMD
   Dimitrios Liakos       : Extrapolation schemes; parallel MDCI
   Dimitrios Manganas     : ROCIS; embedding schemes
   Dimitrios Pantazis     : SARC Basis sets
   Taras Petrenko         : DFT Hessian,TD-DFT gradient, ASA, ECA, R-Raman, ABS, FL, XAS/XES, NRVS
   Peter Pinski           : DLPNO-MP2, DLPNO-MP2 Gradient
   Christoph Reimann      : Effective Core Potentials
   Marius Retegan         : Local ZFS, SOC
   Christoph Riplinger    : Optimizer, TS searches, QM/MM, DLPNO-CCSD(T), (RO)-DLPNO pert. Triples
   Tobias Risthaus        : Range-separated hybrids, TD-DFT gradient, RPA, STAB
   Michael Roemelt        : Restricted open shell CIS
   Masaaki Saitow         : Open-shell DLPNO
   Barbara Sandhoefer     : DKH picture change effects
   Avijit Sen             : IP-ROCIS
   Kantharuban Sivalingam : CASSCF convergence, NEVPT2, FIC-MRCI
   Bernardo de Souza      : ESD, SOC TD-DFT
   Georgi Stoychev        : AutoAux, RI-MP2 NMR
   Willem Van den Heuvel  : Paramagnetic NMR
   Boris Wezisla          : Elementary symmetry handling
   Frank Wennmohs         : Technical directorship


 We gratefully acknowledge several colleagues who have allowed us to
 interface, adapt or use parts of their codes:
   Stefan Grimme, W. Hujo, H. Kruse,             : VdW corrections, initial TS optimization,
                  C. Bannwarth                     DFT functionals, gCP, sTDA/sTD-DF
   Ed Valeev                                     : LibInt (2-el integral package), F12 methods
   Garnet Chan, S. Sharma, J. Yang, R. Olivares  : DMRG
   Ulf Ekstrom                                   : XCFun DFT Library
   Mihaly Kallay                                 : mrcc  (arbitrary order and MRCC methods)
   Andreas Klamt, Michael Diedenhofen            : otool_cosmo (COSMO solvation model)
   Jiri Pittner, Ondrej Demel                    : Mk-CCSD
   Frank Weinhold                                : gennbo (NPA and NBO analysis)
   Christopher J. Cramer and Donald G. Truhlar   : smd solvation model
   Lars Goerigk                                  : TD-DFT with DH, B97 family of functionals
   V. Asgeirsson, H. Jonsson                     : NEB implementation
   FAccTs GmbH                                   : IRC, NEB, NEB-TS, Multilevel


 Your calculation uses the libint2 library for the computation of 2-el integrals
 For citations please refer to: http://libint.valeyev.net

 This ORCA versions uses:
   CBLAS   interface :  Fast vector & matrix operations
   LAPACKE interface :  Fast linear algebra routines
   SCALAPACK package :  Parallel linear algebra routines


Your calculation utilizes the atom-pairwise dispersion correction
with the zero-damping scheme (D30)
Cite in your paper:
S.Grimme, J.Antony, S.Ehrlich and H.Krieg, J.Chem.Phys., 132, (2010), 154104 
   

XCFun DFT library Copyright 2009-2010 Ulf Ekstrom and contributors.
See http://admol.org/xcfun for more information. This is free soft-
ware; see the source code for copying conditions. There is ABSOLUTELY
NO WARRANTY; not even for MERCHANTABILITY or FITNESS FOR A PARTICULAR
PURPOSE. For details see the documentation. Scientific users of this 
library should cite U. Ekstrom, L. Visscher, R. Bast, A. J. Thorvald-
sen and K. Ruud; J.Chem.Theor.Comp. 2010, DOI: 10.1021/ct100117s
XCFun Version 0.99 
----- Orbital basis set information -----
Your calculation utilizes the basis: def2-TZVP
   F. Weigend and R. Ahlrichs, Phys. Chem. Chem. Phys. 7, 3297 (2005).

================================================================================
                                        WARNINGS
                       Please study these warnings very carefully!
================================================================================


INFO   : the flag for use of LIBINT has been found!

================================================================================
                                       INPUT FILE
================================================================================
NAME = 190.in
|  1> #Run DFT-D3 single point of the dimer
|  2> ! wB97X-D3 def2-TZVP TIGHTSCF  CHELPG PAL8
|  3> 
|  4> %base "190_charges"
|  5> 
|  6> %scf
|  7> MaxIter 1000
|  8> end
|  9> %output
| 10>   Print[ P_Mayer ] 1
| 11>   Print[ P_NatPop ] 1
| 12>   Print[ P_Hirshfeld ] 1
| 13>   Print[ P_Mulliken ] 1
| 14>   Print [ P_Loewdin ] 1
| 15> end
| 16> 
| 17> * xyz 0 1
| 18>   C                      0.993669             -5.120101            4.973170            
| 19>   O                      0.699055             -4.452116            3.728005            
| 20>   H                      0.792849             -3.525101            3.766989            
| 21>   H                      2.041942             -5.144663            5.356298            
| 22>   H                      0.450708             -4.807946            5.855779            
| 23>   H                      0.886586             -6.254100            4.764746            
| 24> *
| 25> 
| 26>                          ****END OF INPUT****
================================================================================

                       ****************************
                       * Single Point Calculation *
                       ****************************

---------------------------------
CARTESIAN COORDINATES (ANGSTROEM)
---------------------------------
  C      0.993669   -5.120101    4.973170
  O      0.699055   -4.452116    3.728005
  H      0.792849   -3.525101    3.766989
  H      2.041942   -5.144663    5.356298
  H      0.450708   -4.807946    5.855779
  H      0.886586   -6.254100    4.764746

----------------------------
CARTESIAN COORDINATES (A.U.)
----------------------------
  NO LB      ZA    FRAG     MASS         X           Y           Z
   0 C     6.0000    0    12.011    1.877762   -9.675589    9.397929
   1 O     8.0000    0    15.999    1.321023   -8.413280    7.044908
   2 H     1.0000    0     1.008    1.498267   -6.661475    7.118578
   3 H     1.0000    0     1.008    3.858711   -9.722004   10.121936
   4 H     1.0000    0     1.008    0.851715   -9.085701   11.065819
   5 H     1.0000    0     1.008    1.675405  -11.818536    9.004065

--------------------------------
INTERNAL COORDINATES (ANGSTROEM)
--------------------------------
 C      0   0   0     0.000000000000     0.00000000     0.00000000
 O      1   0   0     1.443411669083     0.00000000     0.00000000
 H      2   1   0     0.932563068600   113.79331901     0.00000000
 H      1   2   3     1.116363130329   119.86110556   291.26437509
 H      1   2   3     1.082241210834   117.88143910    55.42154987
 H      1   2   3     1.157955553839   106.20415296   182.63667194

---------------------------
INTERNAL COORDINATES (A.U.)
---------------------------
 C      0   0   0     0.000000000000     0.00000000     0.00000000
 O      1   0   0     2.727652753074     0.00000000     0.00000000
 H      2   1   0     1.762288802264   113.79331901     0.00000000
 H      1   2   3     2.109620582328   119.86110556   291.26437509
 H      1   2   3     2.045139499319   117.88143910    55.42154987
 H      1   2   3     2.188218872008   106.20415296   182.63667194

---------------------
BASIS SET INFORMATION
---------------------
There are 3 groups of distinct atoms

 Group   1 Type C   : 11s6p2d1f contracted to 5s3p2d1f pattern {62111/411/11/1}
 Group   2 Type O   : 11s6p2d1f contracted to 5s3p2d1f pattern {62111/411/11/1}
 Group   3 Type H   : 5s1p contracted to 3s1p pattern {311/1}

Atom   0C    basis set group =>   1
Atom   1O    basis set group =>   2
Atom   2H    basis set group =>   3
Atom   3H    basis set group =>   3
Atom   4H    basis set group =>   3
Atom   5H    basis set group =>   3


           ************************************************************
           *        Program running with 8 parallel MPI-processes     *
           *              working on a common directory               *
           ************************************************************
------------------------------------------------------------------------------
                           ORCA GTO INTEGRAL CALCULATION
------------------------------------------------------------------------------

                         BASIS SET STATISTICS AND STARTUP INFO

 # of primitive gaussian shells          ...   64
 # of primitive gaussian functions       ...  124
 # of contracted shells                  ...   38
 # of contracted basis functions         ...   86
 Highest angular momentum                ...    3
 Maximum contraction depth               ...    6
 Integral package used                   ... LIBINT
 Integral threshhold            Thresh   ...  2.500e-11
 Primitive cut-off              TCut     ...  2.500e-12


------------------------------ INTEGRAL EVALUATION ----------------------------


 * One electron integrals 
 Pre-screening matrix                    ... done
 Shell pair data                         ... done (   0.000 sec)



           ************************************************************
           *        Program running with 8 parallel MPI-processes     *
           *              working on a common directory               *
           ************************************************************
-------------------------------------------------------------------------------
                                 ORCA SCF
-------------------------------------------------------------------------------

------------
SCF SETTINGS
------------
Hamiltonian:
 Density Functional     Method          .... DFT(GTOs)
 Exchange Functional    Exchange        .... WB97X-D3
 Correlation Functional Correlation     .... WB97X-D3
 Gradients option       PostSCFGGA      .... off
 Hybrid DFT is turned on
   Fraction HF Exchange ScalHFX         ....  0.195728
   Scaling of DF-GGA-X  ScalDFX         ....  0.000000
   Scaling of DF-GGA-C  ScalDFC         ....  1.000000
   Scaling of DF-LDA-C  ScalLDAC        ....  1.000000
   Perturbative correction              ....  0.000000
   Density functional embedding theory  .... OFF
 Long-range corrected/Screened/Range-Separated Hybrid DFT is turned on
   Amount of maximum screened exact exchange              ....  0.804272
   Range separation parameter mu (erf(mu*r12)/r12)        ....  0.250000


General Settings:
 Integral files         IntName         .... 190_charges
 Hartree-Fock type      HFTyp           .... RHF
 Total Charge           Charge          ....    0
 Multiplicity           Mult            ....    1
 Number of Electrons    NEL             ....   18
 Basis Dimension        Dim             ....   86
 Nuclear Repulsion      ENuc            ....     39.6252030914 Eh

Convergence Acceleration:
 DIIS                   CNVDIIS         .... on
   Start iteration      DIISMaxIt       ....    12
   Startup error        DIISStart       ....  0.200000
   # of expansion vecs  DIISMaxEq       ....     5
   Bias factor          DIISBfac        ....   1.050
   Max. coefficient     DIISMaxC        ....  10.000
 Newton-Raphson         CNVNR           .... off
 SOSCF                  CNVSOSCF        .... on
   Start iteration      SOSCFMaxIt      ....   150
   Startup grad/error   SOSCFStart      ....  0.003300
 Level Shifting         CNVShift        .... on
   Level shift para.    LevelShift      ....    0.2500
   Turn off err/grad.   ShiftErr        ....    0.0010
 Zerner damping         CNVZerner       .... off
 Static damping         CNVDamp         .... on
   Fraction old density DampFac         ....    0.7000
   Max. Damping (<1)    DampMax         ....    0.9800
   Min. Damping (>=0)   DampMin         ....    0.0000
   Turn off err/grad.   DampErr         ....    0.1000
 Fernandez-Rico         CNVRico         .... off

SCF Procedure:
 Maximum # iterations   MaxIter         ....  1000
 SCF integral mode      SCFMode         .... Direct
   Integral package                     .... LIBINT
 Reset frequency        DirectResetFreq ....    20
 Integral Threshold     Thresh          ....  2.500e-11 Eh
 Primitive CutOff       TCut            ....  2.500e-12 Eh

Convergence Tolerance:
 Convergence Check Mode ConvCheckMode   .... Total+1el-Energy
 Convergence forced     ConvForced      .... 0
 Energy Change          TolE            ....  1.000e-08 Eh
 1-El. energy change                    ....  1.000e-05 Eh
 Orbital Gradient       TolG            ....  1.000e-05
 Orbital Rotation angle TolX            ....  1.000e-05
 DIIS Error             TolErr          ....  5.000e-07


Diagonalization of the overlap matrix:
Smallest eigenvalue                        ... 1.858e-03
Time for diagonalization                   ...    0.809 sec
Threshold for overlap eigenvalues          ... 1.000e-08
Number of eigenvalues below threshold      ... 0
Time for construction of square roots      ...    0.203 sec
Total time needed                          ...    1.012 sec

-------------------
DFT GRID GENERATION
-------------------

General Integration Accuracy     IntAcc      ...  4.340
Radial Grid Type                 RadialGrid  ... Gauss-Chebyshev
Angular Grid (max. acc.)         AngularGrid ... Lebedev-110
Angular grid pruning method      GridPruning ... 3 (G Style)
Weight generation scheme         WeightScheme... Becke
Basis function cutoff            BFCut       ...    1.0000e-11
Integration weight cutoff        WCut        ...    1.0000e-14
Grids for H and He will be reduced by one unit

# of grid points (after initial pruning)     ...   6548 (   0.0 sec)
# of grid points (after weights+screening)   ...   6387 (   2.5 sec)
nearest neighbour list constructed           ...    0.0 sec
Grid point re-assignment to atoms done       ...    0.0 sec
Grid point division into batches done        ...    0.0 sec
Reduced shell lists constructed in    0.0 sec

Total number of grid points                  ...     6387
Total number of batches                      ...      103
Average number of points per batch           ...       62
Average number of grid points per atom       ...     1064
Average number of shells per batch           ...    32.71 (86.09%)
Average number of basis functions per batch  ...    75.14 (87.38%)
Average number of large shells per batch     ...    31.86 (97.38%)
Average number of large basis fcns per batch ...    73.86 (98.29%)
Maximum spatial batch extension              ...  25.65,  9.70, 15.16 au
Average spatial batch extension              ...   0.41,  0.25,  0.32 au

Time for grid setup =    5.815 sec

------------------------------
INITIAL GUESS: MODEL POTENTIAL
------------------------------
Loading Hartree-Fock densities                     ... done
Calculating cut-offs                               ... done
Setting up the integral package                    ... done
Initializing the effective Hamiltonian             ... done
Starting the Coulomb interaction                   ... done (   0.0 sec)
Reading the grid                                   ... done
Mapping shells                                     ... done
Starting the XC term evaluation                    ... done (   0.2 sec)
  promolecular density results
     # of electrons  =     17.998584521
     EX              =    -14.413388280
     EC              =     -0.572160676
     EX+EC           =    -14.985548956
Transforming the Hamiltonian                       ... done (   0.0 sec)
Diagonalizing the Hamiltonian                      ... done (   0.7 sec)
Back transforming the eigenvectors                 ... done (   0.0 sec)
Now organizing SCF variables                       ... done
                      ------------------
                      INITIAL GUESS DONE (   7.0 sec)
                      ------------------
--------------
SCF ITERATIONS
--------------
ITER       Energy         Delta-E        Max-DP      RMS-DP      [F,P]     Damp
               ***  Starting incremental Fock matrix formation  ***
  0   -115.6436888556   0.000000000000 0.03722158  0.00143855  0.2433058 0.7000
  1   -115.6786369677  -0.034948112149 0.02156574  0.00101747  0.1197019 0.7000
                               ***Turning on DIIS***
  2   -115.6945841179  -0.015947150137 0.03327502  0.00183673  0.0490245 0.0000
  3   -115.7205896318  -0.026005513888 0.01827843  0.00067030  0.0618737 0.0000
  4   -115.7248533173  -0.004263685562 0.00387228  0.00012921  0.0057098 0.0000
                      *** Initiating the SOSCF procedure ***
                           *** Shutting down DIIS ***
                      *** Re-Reading the Fockian *** 
                      *** Removing any level shift *** 
ITER      Energy       Delta-E        Grad      Rot      Max-DP    RMS-DP
  5   -115.72493579  -0.0000824708  0.000499  0.000499  0.000658  0.000043
               *** Restarting incremental Fock matrix formation ***
  6   -115.72494313  -0.0000073381  0.000159  0.000203  0.000510  0.000026
  7   -115.72494386  -0.0000007325  0.000056  0.000114  0.000220  0.000012
  8   -115.72494391  -0.0000000524  0.000030  0.000023  0.000042  0.000002
  9   -115.72494393  -0.0000000149  0.000010  0.000009  0.000021  0.000001
 10   -115.72494393  -0.0000000016  0.000003  0.000003  0.000004  0.000000
                  ***Gradient check signals convergence***
              ***Rediagonalizing the Fockian in SOSCF/NRSCF***

               *****************************************************
               *                     SUCCESS                       *
               *           SCF CONVERGED AFTER  11 CYCLES          *
               *****************************************************

Setting up the final grid:

General Integration Accuracy     IntAcc      ...  4.670
Radial Grid Type                 RadialGrid  ... Gauss-Chebyshev
Angular Grid (max. acc.)         AngularGrid ... Lebedev-302
Angular grid pruning method      GridPruning ... 3 (G Style)
Weight generation scheme         WeightScheme... Becke
Basis function cutoff            BFCut       ...    1.0000e-11
Integration weight cutoff        WCut        ...    1.0000e-14
Grids for H and He will be reduced by one unit

# of grid points (after initial pruning)     ...  26000 (   0.0 sec)
# of grid points (after weights+screening)   ...  25195 (   0.0 sec)
nearest neighbour list constructed           ...    0.0 sec
Grid point re-assignment to atoms done       ...    0.0 sec
Grid point division into batches done        ...    0.1 sec
Reduced shell lists constructed in    0.1 sec

Total number of grid points                  ...    25195
Total number of batches                      ...      396
Average number of points per batch           ...       63
Average number of grid points per atom       ...     4199
Average number of shells per batch           ...    31.65 (83.28%)
Average number of basis functions per batch  ...    72.39 (84.18%)
Average number of large shells per batch     ...    30.25 (95.60%)
Average number of large basis fcns per batch ...    69.82 (96.45%)
Maximum spatial batch extension              ...  16.05, 11.72, 14.13 au
Average spatial batch extension              ...   0.32,  0.25,  0.28 au

Final grid set up in    0.1 sec
Final integration                            ... done (   0.1 sec)
Change in XC energy                          ...    -0.000545477
Integrated number of electrons               ...    17.999997989
Previous integrated no of electrons          ...    17.999910740

----------------
TOTAL SCF ENERGY
----------------

Total Energy       :         -115.72548941 Eh           -3149.05066 eV

Components:
Nuclear Repulsion  :           39.62520309 Eh            1078.25659 eV
Electronic Energy  :         -155.35069250 Eh           -4227.30725 eV
One Electron Energy:         -235.66341512 Eh           -6412.72754 eV
Two Electron Energy:           80.31272262 Eh            2185.42029 eV

Virial components:
Potential Energy   :         -230.84587093 Eh           -6281.63550 eV
Kinetic Energy     :          115.12038152 Eh            3132.58484 eV
Virial Ratio       :            2.00525631


DFT components:
N(Alpha)           :        8.999998994729 electrons
N(Beta)            :        8.999998994729 electrons
N(Total)           :       17.999997989458 electrons
E(XC)              :      -10.627361316394 Eh       
DFET-embed. en.    :        0.000000000000 Eh       

---------------
SCF CONVERGENCE
---------------

  Last Energy change         ...   -1.7971e-10  Tolerance :   1.0000e-08
  Last MAX-Density change    ...    1.7889e-06  Tolerance :   1.0000e-07
  Last RMS-Density change    ...    7.7968e-08  Tolerance :   5.0000e-09
  Last Orbital Gradient      ...    1.0298e-06  Tolerance :   1.0000e-05
  Last Orbital Rotation      ...    7.9520e-07  Tolerance :   1.0000e-05

             **** THE GBW FILE WAS UPDATED (190_charges.gbw) ****
             **** DENSITY FILE WAS UPDATED (190_charges.scfp.tmp) ****
             **** ENERGY FILE WAS UPDATED (190_charges.en.tmp) ****
----------------
ORBITAL ENERGIES
----------------

  NO   OCC          E(Eh)            E(eV) 
   0   2.0000     -19.233083      -523.3588 
   1   2.0000     -10.324606      -280.9468 
   2   2.0000      -1.132734       -30.8233 
   3   2.0000      -0.799604       -21.7583 
   4   2.0000      -0.619659       -16.8618 
   5   2.0000      -0.534936       -14.5564 
   6   2.0000      -0.507678       -13.8146 
   7   2.0000      -0.432489       -11.7686 
   8   2.0000      -0.377404       -10.2697 
   9   0.0000       0.120288         3.2732 
  10   0.0000       0.144249         3.9252 
  11   0.0000       0.189396         5.1537 
  12   0.0000       0.207392         5.6434 
  13   0.0000       0.229927         6.2566 
  14   0.0000       0.304483         8.2854 
  15   0.0000       0.320145         8.7116 
  16   0.0000       0.383417        10.4333 
  17   0.0000       0.447203        12.1690 
  18   0.0000       0.486135        13.2284 
  19   0.0000       0.523201        14.2370 
  20   0.0000       0.553895        15.0722 
  21   0.0000       0.561070        15.2675 
  22   0.0000       0.581296        15.8179 
  23   0.0000       0.610728        16.6188 
  24   0.0000       0.672813        18.3082 
  25   0.0000       0.756974        20.5983 
  26   0.0000       0.849916        23.1274 
  27   0.0000       0.857926        23.3454 
  28   0.0000       1.002690        27.2846 
  29   0.0000       1.010357        27.4932 
  30   0.0000       1.087419        29.5902 
  31   0.0000       1.394700        37.9517 
  32   0.0000       1.529396        41.6170 
  33   0.0000       1.552701        42.2511 
  34   0.0000       1.575370        42.8680 
  35   0.0000       1.604125        43.6505 
  36   0.0000       1.660660        45.1888 
  37   0.0000       1.666200        45.3396 
  38   0.0000       1.669669        45.4340 
  39   0.0000       1.777187        48.3597 
  40   0.0000       1.933421        52.6111 
  41   0.0000       2.002851        54.5004 
  42   0.0000       2.029037        55.2129 
  43   0.0000       2.085936        56.7612 
  44   0.0000       2.106842        57.3301 
  45   0.0000       2.246127        61.1202 
  46   0.0000       2.317278        63.0564 
  47   0.0000       2.331862        63.4532 
  48   0.0000       2.362372        64.2834 
  49   0.0000       2.441588        66.4390 
  50   0.0000       2.493511        67.8519 
  51   0.0000       2.588881        70.4470 
  52   0.0000       2.661293        72.4175 
  53   0.0000       2.753063        74.9146 
  54   0.0000       2.813742        76.5658 
  55   0.0000       2.864326        77.9423 
  56   0.0000       2.910598        79.2014 
  57   0.0000       2.980702        81.1090 
  58   0.0000       3.054500        83.1172 
  59   0.0000       3.126301        85.0710 
  60   0.0000       3.237047        88.0845 
  61   0.0000       3.316268        90.2402 
  62   0.0000       3.460516        94.1654 
  63   0.0000       3.503099        95.3242 
  64   0.0000       3.538241        96.2804 
  65   0.0000       3.633499        98.8725 
  66   0.0000       3.671531        99.9074 
  67   0.0000       3.984850       108.4333 
  68   0.0000       4.125085       112.2493 
  69   0.0000       4.292184       116.7963 
  70   0.0000       4.381400       119.2240 
  71   0.0000       4.587770       124.8396 
  72   0.0000       5.318499       144.7237 
  73   0.0000       5.367559       146.0587 
  74   0.0000       5.572374       151.6320 
  75   0.0000       5.771378       157.0472 
  76   0.0000       5.852787       159.2624 
  77   0.0000       5.927618       161.2987 
  78   0.0000       6.443534       175.3375 
  79   0.0000       6.503181       176.9606 
  80   0.0000       6.725403       183.0075 
  81   0.0000       6.768995       184.1937 
  82   0.0000       7.032891       191.3747 
  83   0.0000       7.229038       196.7121 
  84   0.0000      22.229202       604.8873 
  85   0.0000      43.632181      1187.2920 

                    ********************************
                    * MULLIKEN POPULATION ANALYSIS *
                    ********************************

-----------------------
MULLIKEN ATOMIC CHARGES
-----------------------
   0 C :   -0.177475
   1 O :   -0.473081
   2 H :    0.310275
   3 H :    0.102756
   4 H :    0.113442
   5 H :    0.124084
Sum of atomic charges:   -0.0000000

--------------------------------
MULLIKEN REDUCED ORBITAL CHARGES
--------------------------------
  0 C s       :     3.226879  s :     3.226879
      pz      :     0.792444  p :     2.849104
      px      :     1.060992
      py      :     0.995669
      dz2     :     0.029617  d :     0.094306
      dxz     :     0.026526
      dyz     :     0.011505
      dx2y2   :     0.019073
      dxy     :     0.007585
      f0      :     0.001789  f :     0.007186
      f+1     :     0.001388
      f-1     :     0.001283
      f+2     :     0.001214
      f-2     :     0.000981
      f+3     :     0.000219
      f-3     :     0.000312
  1 O s       :     3.779901  s :     3.779901
      pz      :     1.492107  p :     4.663326
      px      :     1.873045
      py      :     1.298174
      dz2     :     0.010231  d :     0.028167
      dxz     :     0.004429
      dyz     :     0.004515
      dx2y2   :     0.007189
      dxy     :     0.001804
      f0      :     0.000144  f :     0.001687
      f+1     :     0.000159
      f-1     :     0.000389
      f+2     :     0.000211
      f-2     :     0.000100
      f+3     :     0.000163
      f-3     :     0.000521
  2 H s       :     0.637945  s :     0.637945
      pz      :     0.012855  p :     0.051780
      px      :     0.018653
      py      :     0.020272
  3 H s       :     0.877775  s :     0.877775
      pz      :     0.004058  p :     0.019469
      px      :     0.011215
      py      :     0.004196
  4 H s       :     0.866475  s :     0.866475
      pz      :     0.009406  p :     0.020084
      px      :     0.006701
      py      :     0.003977
  5 H s       :     0.857521  s :     0.857521
      pz      :     0.002424  p :     0.018395
      px      :     0.004179
      py      :     0.011792


                     *******************************
                     * LOEWDIN POPULATION ANALYSIS *
                     *******************************

----------------------
LOEWDIN ATOMIC CHARGES
----------------------
   0 C :   -0.382525
   1 O :   -0.077044
   2 H :    0.146088
   3 H :    0.097251
   4 H :    0.091769
   5 H :    0.124462

-------------------------------
LOEWDIN REDUCED ORBITAL CHARGES
-------------------------------
  0 C s       :     2.875979  s :     2.875979
      pz      :     0.915393  p :     3.063870
      px      :     1.115330
      py      :     1.033147
      dz2     :     0.121458  d :     0.393658
      dxz     :     0.117233
      dyz     :     0.060012
      dx2y2   :     0.074341
      dxy     :     0.020613
      f0      :     0.011320  f :     0.049018
      f+1     :     0.008129
      f-1     :     0.010552
      f+2     :     0.005208
      f-2     :     0.009015
      f+3     :     0.002564
      f-3     :     0.002229
  1 O s       :     3.363911  s :     3.363911
      pz      :     1.528449  p :     4.643456
      px      :     1.779965
      py      :     1.335042
      dz2     :     0.022326  d :     0.065581
      dxz     :     0.009834
      dyz     :     0.012791
      dx2y2   :     0.016814
      dxy     :     0.003814
      f0      :     0.000712  f :     0.004096
      f+1     :     0.000476
      f-1     :     0.001053
      f+2     :     0.000477
      f-2     :     0.000364
      f+3     :     0.000133
      f-3     :     0.000880
  2 H s       :     0.681307  s :     0.681307
      pz      :     0.037263  p :     0.172605
      px      :     0.052129
      py      :     0.083213
  3 H s       :     0.843910  s :     0.843910
      pz      :     0.012329  p :     0.058839
      px      :     0.034163
      py      :     0.012347
  4 H s       :     0.844278  s :     0.844278
      pz      :     0.028930  p :     0.063954
      px      :     0.021173
      py      :     0.013851
  5 H s       :     0.824915  s :     0.824915
      pz      :     0.007511  p :     0.050622
      px      :     0.011180
      py      :     0.031931


                      *****************************
                      * MAYER POPULATION ANALYSIS *
                      *****************************

  NA   - Mulliken gross atomic population
  ZA   - Total nuclear charge
  QA   - Mulliken gross atomic charge
  VA   - Mayer's total valence
  BVA  - Mayer's bonded valence
  FA   - Mayer's free valence

  ATOM       NA         ZA         QA         VA         BVA        FA
  0 C      6.1775     6.0000    -0.1775     3.9234     3.9234    -0.0000
  1 O      8.4731     8.0000    -0.4731     1.9095     1.9095     0.0000
  2 H      0.6897     1.0000     0.3103     0.9197     0.9197     0.0000
  3 H      0.8972     1.0000     0.1028     0.9476     0.9476    -0.0000
  4 H      0.8866     1.0000     0.1134     0.9547     0.9547     0.0000
  5 H      0.8759     1.0000     0.1241     0.9598     0.9598    -0.0000

  Mayer bond orders larger than 0.1
B(  0-C ,  1-O ) :   1.0037 B(  0-C ,  3-H ) :   0.9643 B(  0-C ,  4-H ) :   0.9664 
B(  0-C ,  5-H ) :   0.9765 B(  1-O ,  2-H ) :   0.9028 


------------------
HIRSHFELD ANALYSIS
------------------

Total integrated alpha density =      8.999955370
Total integrated beta density  =      8.999955370

  ATOM     CHARGE      SPIN    
   0 C    0.008701    0.000000
   1 O   -0.249921    0.000000
   2 H    0.156632    0.000000
   3 H    0.019648    0.000000
   4 H    0.028350    0.000000
   5 H    0.036678    0.000000

  TOTAL   0.000089    0.000000

-------
TIMINGS
-------

Total SCF time: 0 days 0 hours 0 min 28 sec 

Total time                  ....      28.143 sec
Sum of individual times     ....      24.282 sec  ( 86.3%)

Fock matrix formation       ....      13.696 sec  ( 48.7%)
  XC integration            ....       2.995 sec  ( 21.9% of F)
    Basis function eval.    ....       0.074 sec  (  2.5% of XC)
    Density eval.           ....       0.041 sec  (  1.4% of XC)
    XC-Functional eval.     ....       0.069 sec  (  2.3% of XC)
    XC-Potential eval.      ....       0.043 sec  (  1.4% of XC)
Diagonalization             ....       1.952 sec  (  6.9%)
Density matrix formation    ....       0.710 sec  (  2.5%)
Population analysis         ....       0.042 sec  (  0.1%)
Initial guess               ....       1.232 sec  (  4.4%)
Orbital Transformation      ....       0.000 sec  (  0.0%)
Orbital Orthonormalization  ....       0.000 sec  (  0.0%)
DIIS solution               ....       0.379 sec  (  1.3%)
SOSCF solution              ....       0.308 sec  (  1.1%)
Grid generation             ....       5.964 sec  ( 21.2%)


-------------------------------------------------------------------------------
                          DFT DISPERSION CORRECTION                            
                                                                               
                              DFTD3 V3.1  Rev 1                                
                              USING zero damping                               
-------------------------------------------------------------------------------
The omegaB97X-D3 functional is recognized. Fit by Chai et al.
Active option DFTDOPT                   ...         3   

molecular C6(AA) [au] = 208.919770 


            DFT-D V3
 parameters
 s6 scaling factor         :     1.0000 
 rs6 scaling factor        :     1.2810 
 s8 scaling factor         :     1.0000 
 rs8 scaling factor        :     1.0940 
 Damping factor alpha6     :    14.0000 
 Damping factor alpha8     :    16.0000 
 ad hoc parameters k1-k3   :    16.0000     1.3333    -4.0000 

 Edisp/kcal,au: -0.195118424369  -0.000310940968 
 E6   /kcal   :  -0.041078649 
 E8   /kcal   :  -0.154039775 
 % E8         :  78.946811698 

-------------------------   ----------------
Dispersion correction           -0.000310941
-------------------------   ----------------


-------------------------   --------------------
FINAL SINGLE POINT ENERGY      -115.725800346237
-------------------------   --------------------


                            ***************************************
                            *     ORCA property calculations      *
                            ***************************************

                                    ---------------------
                                    Active property flags
                                    ---------------------
   (+) Dipole Moment


------------------------------------------------------------------------------
                       ORCA ELECTRIC PROPERTIES CALCULATION
------------------------------------------------------------------------------

Dipole Moment Calculation                       ... on
Quadrupole Moment Calculation                   ... off
Polarizability Calculation                      ... off
GBWName                                         ... 190_charges.gbw
Electron density file                           ... 190_charges.scfp.tmp
The origin for moment calculation is the CENTER OF MASS  = ( 1.611510, -9.000798  8.214185)

-------------
DIPOLE MOMENT
-------------
                                X             Y             Z
Electronic contribution:     -0.51473       0.97431      -1.66037
Nuclear contribution   :      0.71167      -0.63312       2.20192
                        -----------------------------------------
Total Dipole Moment    :      0.19693       0.34119       0.54155
                        -----------------------------------------
Magnitude (a.u.)       :      0.66968
Magnitude (Debye)      :      1.70219



--------------------
Rotational spectrum 
--------------------
 
Rotational constants in cm-1:     4.464409     0.782659     0.749846 
Rotational constants in MHz : 133839.617752 23463.539402 22479.810464 

 Dipole components along the rotational axes: 
x,y,z [a.u.] :     0.317417     0.579659    -0.108220 
x,y,z [Debye]:     0.806810     1.473377    -0.275072 

 
------------------------------------------------------------------------------
                      ORCA CHELPG CHARGES GENERATION
------------------------------------------------------------------------------

GBW file                           ... 190_charges.gbw

Reading the GBW file               ... done

Grid spacing                       ...     0.300000
Point Cut-Off                      ...     2.800000
Van-der-Waals Radii                ...        COSMO
Total charge                       ...            0


Number of points X direction       ...           23
Number of points Y direction       ...           27
Number of points Z direction       ...           25
Maximum number of possible points  ...        15525
Final number of points             ...         5968


CHELPG Charges            
--------------------------------
  0   C   :       0.015639
  1   O   :      -0.609790
  2   H   :       0.419959
  3   H   :       0.037462
  4   H   :       0.045730
  5   H   :       0.091000
--------------------------------
Total charge:     0.000000
--------------------------------

CHELPG charges calculated...

Timings for individual parts in CHELPG calculation:
Grid generation                 ...        0.002 sec (=   0.000 min)
Potential calculation           ...        0.742 sec (=   0.012 min)
Fit to the potential            ...        0.001 sec (=   0.000 min)
------------------------------------------------------------------------------


Timings for individual modules:

Sum of individual times         ...       38.750 sec (=   0.646 min)
GTO integral calculation        ...        5.169 sec (=   0.086 min)  13.3 %
SCF iterations                  ...       32.768 sec (=   0.546 min)  84.6 %
CHELPG charge generation        ...        0.813 sec (=   0.014 min)   2.1 %
                             ****ORCA TERMINATED NORMALLY****
TOTAL RUN TIME: 0 days 0 hours 0 minutes 41 seconds 280 msec
