
                                 *****************
                                 * O   R   C   A *
                                 *****************

           --- An Ab Initio, DFT and Semiempirical electronic structure package ---

                  #######################################################
                  #                        -***-                        #
                  #          Department of theory and spectroscopy      #
                  #               Directorship: Frank Neese             #
                  #        Max Planck Institute fuer Kohlenforschung    #
                  #                Kaiser Wilhelm Platz 1               #
                  #                 D-45470 Muelheim/Ruhr               #
                  #                      Germany                        #
                  #                                                     #
                  #                  All rights reserved                #
                  #                        -***-                        #
                  #######################################################


                         Program Version 4.1.2  - RELEASE  -


 With contributions from (in alphabetic order):
   Daniel Aravena         : Magnetic Properties
   Michael Atanasov       : Ab Initio Ligand Field Theory
   Alexander A. Auer      : GIAO ZORA
   Ute Becker             : Parallelization
   Giovanni Bistoni       : ED, Open-shell LED
   Martin Brehm           : Molecular dynamics
   Dmytro Bykov           : SCF Hessian
   Vijay G. Chilkuri      : MRCI spin determinant printing
   Dipayan Datta          : RHF DLPNO-CCSD density
   Achintya Kumar Dutta   : EOM-CC, STEOM-CC
   Dmitry Ganyushin       : Spin-Orbit,Spin-Spin,Magnetic field MRCI
   Miquel Garcia          : C-PCM Hessian
   Yang Guo               : DLPNO-NEVPT2, CIM, IAO-localization
   Andreas Hansen         : Spin unrestricted coupled pair/coupled cluster methods
   Benjamin Helmich-Paris : CASSCF linear response (MC-RPA)
   Lee Huntington         : MR-EOM, pCC
   Robert Izsak           : Overlap fitted RIJCOSX, COSX-SCS-MP3, EOM
   Christian Kollmar      : KDIIS, OOCD, Brueckner-CCSD(T), CCSD density
   Simone Kossmann        : Meta GGA functionals, TD-DFT gradient, OOMP2, MP2 Hessian
   Martin Krupicka        : AUTO-CI
   Lucas Lang             : DCDCAS
   Dagmar Lenk            : GEPOL surface, SMD
   Dimitrios Liakos       : Extrapolation schemes; parallel MDCI
   Dimitrios Manganas     : ROCIS; embedding schemes
   Dimitrios Pantazis     : SARC Basis sets
   Taras Petrenko         : DFT Hessian,TD-DFT gradient, ASA, ECA, R-Raman, ABS, FL, XAS/XES, NRVS
   Peter Pinski           : DLPNO-MP2, DLPNO-MP2 Gradient
   Christoph Reimann      : Effective Core Potentials
   Marius Retegan         : Local ZFS, SOC
   Christoph Riplinger    : Optimizer, TS searches, QM/MM, DLPNO-CCSD(T), (RO)-DLPNO pert. Triples
   Tobias Risthaus        : Range-separated hybrids, TD-DFT gradient, RPA, STAB
   Michael Roemelt        : Restricted open shell CIS
   Masaaki Saitow         : Open-shell DLPNO
   Barbara Sandhoefer     : DKH picture change effects
   Avijit Sen             : IP-ROCIS
   Kantharuban Sivalingam : CASSCF convergence, NEVPT2, FIC-MRCI
   Bernardo de Souza      : ESD, SOC TD-DFT
   Georgi Stoychev        : AutoAux, RI-MP2 NMR
   Willem Van den Heuvel  : Paramagnetic NMR
   Boris Wezisla          : Elementary symmetry handling
   Frank Wennmohs         : Technical directorship


 We gratefully acknowledge several colleagues who have allowed us to
 interface, adapt or use parts of their codes:
   Stefan Grimme, W. Hujo, H. Kruse,             : VdW corrections, initial TS optimization,
                  C. Bannwarth                     DFT functionals, gCP, sTDA/sTD-DF
   Ed Valeev                                     : LibInt (2-el integral package), F12 methods
   Garnet Chan, S. Sharma, J. Yang, R. Olivares  : DMRG
   Ulf Ekstrom                                   : XCFun DFT Library
   Mihaly Kallay                                 : mrcc  (arbitrary order and MRCC methods)
   Andreas Klamt, Michael Diedenhofen            : otool_cosmo (COSMO solvation model)
   Jiri Pittner, Ondrej Demel                    : Mk-CCSD
   Frank Weinhold                                : gennbo (NPA and NBO analysis)
   Christopher J. Cramer and Donald G. Truhlar   : smd solvation model
   Lars Goerigk                                  : TD-DFT with DH, B97 family of functionals
   V. Asgeirsson, H. Jonsson                     : NEB implementation
   FAccTs GmbH                                   : IRC, NEB, NEB-TS, Multilevel


 Your calculation uses the libint2 library for the computation of 2-el integrals
 For citations please refer to: http://libint.valeyev.net

 This ORCA versions uses:
   CBLAS   interface :  Fast vector & matrix operations
   LAPACKE interface :  Fast linear algebra routines
   SCALAPACK package :  Parallel linear algebra routines


Your calculation utilizes the atom-pairwise dispersion correction
with the zero-damping scheme (D30)
Cite in your paper:
S.Grimme, J.Antony, S.Ehrlich and H.Krieg, J.Chem.Phys., 132, (2010), 154104 
   

XCFun DFT library Copyright 2009-2010 Ulf Ekstrom and contributors.
See http://admol.org/xcfun for more information. This is free soft-
ware; see the source code for copying conditions. There is ABSOLUTELY
NO WARRANTY; not even for MERCHANTABILITY or FITNESS FOR A PARTICULAR
PURPOSE. For details see the documentation. Scientific users of this 
library should cite U. Ekstrom, L. Visscher, R. Bast, A. J. Thorvald-
sen and K. Ruud; J.Chem.Theor.Comp. 2010, DOI: 10.1021/ct100117s
XCFun Version 0.99 
----- Orbital basis set information -----
Your calculation utilizes the basis: def2-TZVP
   F. Weigend and R. Ahlrichs, Phys. Chem. Chem. Phys. 7, 3297 (2005).

================================================================================
                                        WARNINGS
                       Please study these warnings very carefully!
================================================================================


INFO   : the flag for use of LIBINT has been found!

Your calculation utilizes the atom-pairwise dispersion correction
with the zero-damping scheme (D30)
Cite in your paper:
S.Grimme, J.Antony, S.Ehrlich and H.Krieg, J.Chem.Phys., 132, (2010), 154104 
   

XCFun DFT library Copyright 2009-2010 Ulf Ekstrom and contributors.
See http://admol.org/xcfun for more information. This is free soft-
ware; see the source code for copying conditions. There is ABSOLUTELY
NO WARRANTY; not even for MERCHANTABILITY or FITNESS FOR A PARTICULAR
PURPOSE. For details see the documentation. Scientific users of this 
library should cite U. Ekstrom, L. Visscher, R. Bast, A. J. Thorvald-
sen and K. Ruud; J.Chem.Theor.Comp. 2010, DOI: 10.1021/ct100117s
XCFun Version 0.99 
----- Orbital basis set information -----
Your calculation utilizes the basis: def2-TZVP
   F. Weigend and R. Ahlrichs, Phys. Chem. Chem. Phys. 7, 3297 (2005).

================================================================================
                                        WARNINGS
                       Please study these warnings very carefully!
================================================================================


WARNING: MOInp is set but Guess=PModel. MOInp will be ignored!
         To read the initial guess from a file you must also specify
         'MORead' in the simple input or 'Guess MORead' in the %scf block


INFO   : the flag for use of LIBINT has been found!

Your calculation utilizes the atom-pairwise dispersion correction
with the zero-damping scheme (D30)
Cite in your paper:
S.Grimme, J.Antony, S.Ehrlich and H.Krieg, J.Chem.Phys., 132, (2010), 154104 
   

XCFun DFT library Copyright 2009-2010 Ulf Ekstrom and contributors.
See http://admol.org/xcfun for more information. This is free soft-
ware; see the source code for copying conditions. There is ABSOLUTELY
NO WARRANTY; not even for MERCHANTABILITY or FITNESS FOR A PARTICULAR
PURPOSE. For details see the documentation. Scientific users of this 
library should cite U. Ekstrom, L. Visscher, R. Bast, A. J. Thorvald-
sen and K. Ruud; J.Chem.Theor.Comp. 2010, DOI: 10.1021/ct100117s
XCFun Version 0.99 
----- Orbital basis set information -----
Your calculation utilizes the basis: def2-TZVP
   F. Weigend and R. Ahlrichs, Phys. Chem. Chem. Phys. 7, 3297 (2005).

================================================================================
                                        WARNINGS
                       Please study these warnings very carefully!
================================================================================


WARNING: MOInp is set but Guess=PModel. MOInp will be ignored!
         To read the initial guess from a file you must also specify
         'MORead' in the simple input or 'Guess MORead' in the %scf block


INFO   : the flag for use of LIBINT has been found!

================================================================================
                                       INPUT FILE
================================================================================
NAME = 20-82.in
|  1> #Run DFT-D3 single point of the dimer
|  2> ! wB97X-D3 def2-TZVP TIGHTSCF CHELPG PMODEL PAL8
|  3> 
|  4> %base "20-82_DFT_AB"
|  5> 
|  6> %scf
|  7> MaxIter 1000
|  8> end
|  9> 
| 10> * xyz 0 1
| 11>   C                      -2.839955            -3.953407            -0.078150           
| 12>   O                      -2.008247            -2.946951            0.371114            
| 13>   H                      -2.187683            -2.219467            -0.178250           
| 14>   H                      -3.058394            -3.772306            -1.120352           
| 15>   H                      -2.431864            -4.948480            0.016022            
| 16>   H                      -3.792097            -3.920621            0.402216            
| 17>   C                      1.972360             -3.242380            -2.291110           
| 18>   O                      0.886188             -3.726054            -3.031860           
| 19>   H                      0.164085             -3.641322            -2.396645           
| 20>   H                      1.793747             -2.285866            -1.788684           
| 21>   H                      2.331288             -3.957920            -1.507135           
| 22>   H                      2.874275             -3.131901            -2.845409           
| 23> *
| 24> 
| 25> #Run DFT-D3 single point of the molecule with dimer basis set
| 26> $new_job
| 27> %base "20-82_DFT_A"
| 28> ! wB97X-D3 def2-TZVP TIGHTSCF CHELPG PMODEL
| 29> 
| 30> %scf
| 31> MaxIter 1000
| 32> end
| 33> 
| 34> * xyz 0 1
| 35>   C                      -2.839955            -3.953407            -0.078150           
| 36>   O                      -2.008247            -2.946951            0.371114            
| 37>   H                      -2.187683            -2.219467            -0.178250           
| 38>   H                      -3.058394            -3.772306            -1.120352           
| 39>   H                      -2.431864            -4.948480            0.016022            
| 40>   H                      -3.792097            -3.920621            0.402216            
| 41>   C                    : 1.972360             -3.242380            -2.291110           
| 42>   O                    : 0.886188             -3.726054            -3.031860           
| 43>   H                    : 0.164085             -3.641322            -2.396645           
| 44>   H                    : 1.793747             -2.285866            -1.788684           
| 45>   H                    : 2.331288             -3.957920            -1.507135           
| 46>   H                    : 2.874275             -3.131901            -2.845409           
| 47> *
| 48> 
| 49> #Run DFT-D3 single point of the particle with dimer basis set
| 50> $new_job
| 51> %base "20-82_DFT_B"
| 52> ! wB97X-D3 def2-TZVP TIGHTSCF CHELPG PMODEL
| 53> 
| 54> %scf
| 55> MaxIter 1000
| 56> end
| 57> 
| 58> * xyz 0 1
| 59>   C                    : -2.839955            -3.953407            -0.078150           
| 60>   O                    : -2.008247            -2.946951            0.371114            
| 61>   H                    : -2.187683            -2.219467            -0.178250           
| 62>   H                    : -3.058394            -3.772306            -1.120352           
| 63>   H                    : -2.431864            -4.948480            0.016022            
| 64>   H                    : -3.792097            -3.920621            0.402216            
| 65>   C                      1.972360             -3.242380            -2.291110           
| 66>   O                      0.886188             -3.726054            -3.031860           
| 67>   H                      0.164085             -3.641322            -2.396645           
| 68>   H                      1.793747             -2.285866            -1.788684           
| 69>   H                      2.331288             -3.957920            -1.507135           
| 70>   H                      2.874275             -3.131901            -2.845409           
| 71> *
| 72> 
| 73>                          ****END OF INPUT****
================================================================================


                 $$$$$$$$$$$$$$$$$$$$$$$$$$$$$$$$$$$$$$$$$$$$$$ 
                 $ THERE ARE  3 JOBS TO BE PROCESSED THIS RUN $
                 $$$$$$$$$$$$$$$$$$$$$$$$$$$$$$$$$$$$$$$$$$$$$$ 




                 $$$$$$$$$$$$$$$$  JOB NUMBER  1 $$$$$$$$$$$$$$


                       ****************************
                       * Single Point Calculation *
                       ****************************

---------------------------------
CARTESIAN COORDINATES (ANGSTROEM)
---------------------------------
  C     -2.839955   -3.953407   -0.078150
  O     -2.008247   -2.946951    0.371114
  H     -2.187683   -2.219467   -0.178250
  H     -3.058394   -3.772306   -1.120352
  H     -2.431864   -4.948480    0.016022
  H     -3.792097   -3.920621    0.402216
  C      1.972360   -3.242380   -2.291110
  O      0.886188   -3.726054   -3.031860
  H      0.164085   -3.641322   -2.396645
  H      1.793747   -2.285866   -1.788684
  H      2.331288   -3.957920   -1.507135
  H      2.874275   -3.131901   -2.845409

----------------------------
CARTESIAN COORDINATES (A.U.)
----------------------------
  NO LB      ZA    FRAG     MASS         X           Y           Z
   0 C     6.0000    0    12.011   -5.366737   -7.470857   -0.147682
   1 O     8.0000    0    15.999   -3.795037   -5.568930    0.701304
   2 H     1.0000    0     1.008   -4.134122   -4.194185   -0.336844
   3 H     1.0000    0     1.008   -5.779527   -7.128625   -2.117158
   4 H     1.0000    0     1.008   -4.595557   -9.351272    0.030277
   5 H     1.0000    0     1.008   -7.166025   -7.408900    0.760078
   6 C     6.0000    0    12.011    3.727220   -6.127210   -4.329570
   7 O     8.0000    0    15.999    1.674653   -7.041222   -5.729385
   8 H     1.0000    0     1.008    0.310076   -6.881101   -4.529003
   9 H     1.0000    0     1.008    3.389691   -4.319661   -3.380123
  10 H     1.0000    0     1.008    4.405496   -7.479385   -2.848072
  11 H     1.0000    0     1.008    5.431593   -5.918435   -5.377044

--------------------------------
INTERNAL COORDINATES (ANGSTROEM)
--------------------------------
 C      0   0   0     0.000000000000     0.00000000     0.00000000
 O      1   0   0     1.380771530303     0.00000000     0.00000000
 H      2   1   0     0.929102283308   105.18963737     0.00000000
 H      1   2   3     1.080138036422   108.27310527    26.09168774
 H      1   2   3     1.079618870340   114.56719531   147.14653176
 H      1   2   3     1.066958670200   111.63198502   271.71113657
 C      3   2   1     4.776660564350    85.73716856   255.30998070
 O      7   3   2     1.400864274068    68.44257204   100.23174669
 H      8   7   3     0.965458621929   101.63705303   346.86293347
 H      7   3   2     1.095104342719    57.85720269   241.37051459
 H      7   3   2     1.120465796626    96.09921777   347.40099303
 H      7   3   2     1.064379470897   161.10289582   203.63908995

---------------------------
INTERNAL COORDINATES (A.U.)
---------------------------
 C      0   0   0     0.000000000000     0.00000000     0.00000000
 O      1   0   0     2.609280045789     0.00000000     0.00000000
 H      2   1   0     1.755748865853   105.18963737     0.00000000
 H      1   2   3     2.041165075669   108.27310527    26.09168774
 H      1   2   3     2.040183993956   114.56719531   147.14653176
 H      1   2   3     2.016259682892   111.63198502   271.71113657
 C      3   2   1     9.026580301324    85.73716856   255.30998070
 O      7   3   2     2.647249828783    68.44257204   100.23174669
 H      8   7   3     1.824452389080   101.63705303   346.86293347
 H      7   3   2     2.069447295806    57.85720269   241.37051459
 H      7   3   2     2.117373498049    96.09921777   347.40099303
 H      7   3   2     2.011385702563   161.10289582   203.63908995

---------------------
BASIS SET INFORMATION
---------------------
There are 3 groups of distinct atoms

 Group   1 Type C   : 11s6p2d1f contracted to 5s3p2d1f pattern {62111/411/11/1}
 Group   2 Type O   : 11s6p2d1f contracted to 5s3p2d1f pattern {62111/411/11/1}
 Group   3 Type H   : 5s1p contracted to 3s1p pattern {311/1}

Atom   0C    basis set group =>   1
Atom   1O    basis set group =>   2
Atom   2H    basis set group =>   3
Atom   3H    basis set group =>   3
Atom   4H    basis set group =>   3
Atom   5H    basis set group =>   3
Atom   6C    basis set group =>   1
Atom   7O    basis set group =>   2
Atom   8H    basis set group =>   3
Atom   9H    basis set group =>   3
Atom  10H    basis set group =>   3
Atom  11H    basis set group =>   3


           ************************************************************
           *        Program running with 8 parallel MPI-processes     *
           *              working on a common directory               *
           ************************************************************
------------------------------------------------------------------------------
                           ORCA GTO INTEGRAL CALCULATION
------------------------------------------------------------------------------

                         BASIS SET STATISTICS AND STARTUP INFO

 # of primitive gaussian shells          ...  128
 # of primitive gaussian functions       ...  248
 # of contracted shells                  ...   76
 # of contracted basis functions         ...  172
 Highest angular momentum                ...    3
 Maximum contraction depth               ...    6
 Integral package used                   ... LIBINT
 Integral threshhold            Thresh   ...  2.500e-11
 Primitive cut-off              TCut     ...  2.500e-12


------------------------------ INTEGRAL EVALUATION ----------------------------


 * One electron integrals 
 Pre-screening matrix                    ... done
 Shell pair data                         ... done (   0.001 sec)



           ************************************************************
           *        Program running with 8 parallel MPI-processes     *
           *              working on a common directory               *
           ************************************************************
-------------------------------------------------------------------------------
                                 ORCA SCF
-------------------------------------------------------------------------------

------------
SCF SETTINGS
------------
Hamiltonian:
 Density Functional     Method          .... DFT(GTOs)
 Exchange Functional    Exchange        .... WB97X-D3
 Correlation Functional Correlation     .... WB97X-D3
 Gradients option       PostSCFGGA      .... off
 Hybrid DFT is turned on
   Fraction HF Exchange ScalHFX         ....  0.195728
   Scaling of DF-GGA-X  ScalDFX         ....  0.000000
   Scaling of DF-GGA-C  ScalDFC         ....  1.000000
   Scaling of DF-LDA-C  ScalLDAC        ....  1.000000
   Perturbative correction              ....  0.000000
   Density functional embedding theory  .... OFF
 Long-range corrected/Screened/Range-Separated Hybrid DFT is turned on
   Amount of maximum screened exact exchange              ....  0.804272
   Range separation parameter mu (erf(mu*r12)/r12)        ....  0.250000


General Settings:
 Integral files         IntName         .... 20-82_DFT_AB
 Hartree-Fock type      HFTyp           .... RHF
 Total Charge           Charge          ....    0
 Multiplicity           Mult            ....    1
 Number of Electrons    NEL             ....   36
 Basis Dimension        Dim             ....  172
 Nuclear Repulsion      ENuc            ....    117.4527128019 Eh

Convergence Acceleration:
 DIIS                   CNVDIIS         .... on
   Start iteration      DIISMaxIt       ....    12
   Startup error        DIISStart       ....  0.200000
   # of expansion vecs  DIISMaxEq       ....     5
   Bias factor          DIISBfac        ....   1.050
   Max. coefficient     DIISMaxC        ....  10.000
 Newton-Raphson         CNVNR           .... off
 SOSCF                  CNVSOSCF        .... on
   Start iteration      SOSCFMaxIt      ....   150
   Startup grad/error   SOSCFStart      ....  0.003300
 Level Shifting         CNVShift        .... on
   Level shift para.    LevelShift      ....    0.2500
   Turn off err/grad.   ShiftErr        ....    0.0010
 Zerner damping         CNVZerner       .... off
 Static damping         CNVDamp         .... on
   Fraction old density DampFac         ....    0.7000
   Max. Damping (<1)    DampMax         ....    0.9800
   Min. Damping (>=0)   DampMin         ....    0.0000
   Turn off err/grad.   DampErr         ....    0.1000
 Fernandez-Rico         CNVRico         .... off

SCF Procedure:
 Maximum # iterations   MaxIter         ....  1000
 SCF integral mode      SCFMode         .... Direct
   Integral package                     .... LIBINT
 Reset frequency        DirectResetFreq ....    20
 Integral Threshold     Thresh          ....  2.500e-11 Eh
 Primitive CutOff       TCut            ....  2.500e-12 Eh

Convergence Tolerance:
 Convergence Check Mode ConvCheckMode   .... Total+1el-Energy
 Convergence forced     ConvForced      .... 0
 Energy Change          TolE            ....  1.000e-08 Eh
 1-El. energy change                    ....  1.000e-05 Eh
 Orbital Gradient       TolG            ....  1.000e-05
 Orbital Rotation angle TolX            ....  1.000e-05
 DIIS Error             TolErr          ....  5.000e-07


Diagonalization of the overlap matrix:
Smallest eigenvalue                        ... 1.527e-03
Time for diagonalization                   ...    0.017 sec
Threshold for overlap eigenvalues          ... 1.000e-08
Number of eigenvalues below threshold      ... 0
Time for construction of square roots      ...    0.007 sec
Total time needed                          ...    0.024 sec

-------------------
DFT GRID GENERATION
-------------------

General Integration Accuracy     IntAcc      ...  4.340
Radial Grid Type                 RadialGrid  ... Gauss-Chebyshev
Angular Grid (max. acc.)         AngularGrid ... Lebedev-110
Angular grid pruning method      GridPruning ... 3 (G Style)
Weight generation scheme         WeightScheme... Becke
Basis function cutoff            BFCut       ...    1.0000e-11
Integration weight cutoff        WCut        ...    1.0000e-14
Grids for H and He will be reduced by one unit

# of grid points (after initial pruning)     ...  13096 (   0.0 sec)
# of grid points (after weights+screening)   ...  12591 (   0.0 sec)
nearest neighbour list constructed           ...    0.0 sec
Grid point re-assignment to atoms done       ...    0.0 sec
Grid point division into batches done        ...    0.0 sec
Reduced shell lists constructed in    0.0 sec

Total number of grid points                  ...    12591
Total number of batches                      ...      203
Average number of points per batch           ...       62
Average number of grid points per atom       ...     1049
Average number of shells per batch           ...    47.67 (62.72%)
Average number of basis functions per batch  ...   103.15 (59.97%)
Average number of large shells per batch     ...    39.70 (83.29%)
Average number of large basis fcns per batch ...    87.85 (85.17%)
Maximum spatial batch extension              ...  12.32, 13.35, 14.05 au
Average spatial batch extension              ...   0.33,  0.32,  0.34 au

Time for grid setup =    0.040 sec

------------------------------
INITIAL GUESS: MODEL POTENTIAL
------------------------------
Loading Hartree-Fock densities                     ... done
Calculating cut-offs                               ... done
Setting up the integral package                    ... done
Initializing the effective Hamiltonian             ... done
Starting the Coulomb interaction                   ... done (   0.0 sec)
Reading the grid                                   ... done
Mapping shells                                     ... done
Starting the XC term evaluation                    ... done (   0.0 sec)
  promolecular density results
     # of electrons  =     35.993138647
     EX              =    -28.892451073
     EC              =     -1.155382411
     EX+EC           =    -30.047833484
Transforming the Hamiltonian                       ... done (   0.0 sec)
Diagonalizing the Hamiltonian                      ... done (   0.0 sec)
Back transforming the eigenvectors                 ... done (   0.0 sec)
Now organizing SCF variables                       ... done
                      ------------------
                      INITIAL GUESS DONE (   0.1 sec)
                      ------------------
--------------
SCF ITERATIONS
--------------
ITER       Energy         Delta-E        Max-DP      RMS-DP      [F,P]     Damp
               ***  Starting incremental Fock matrix formation  ***
  0   -231.2888077705   0.000000000000 0.03666607  0.00106332  0.2439271 0.7000
  1   -231.3634113516  -0.074603581121 0.02155467  0.00075723  0.1226928 0.7000
                               ***Turning on DIIS***
  2   -231.3981779164  -0.034766564774 0.03267908  0.00137949  0.0480328 0.0000
  3   -231.4547481329  -0.056570216523 0.01751351  0.00049614  0.0598859 0.0000
  4   -231.4638205818  -0.009072448892 0.00408487  0.00009489  0.0059491 0.0000
                      *** Initiating the SOSCF procedure ***
                           *** Shutting down DIIS ***
                      *** Re-Reading the Fockian *** 
                      *** Removing any level shift *** 
ITER      Energy       Delta-E        Grad      Rot      Max-DP    RMS-DP
  5   -231.46400199  -0.0001814044  0.000419  0.000419  0.000819  0.000033
               *** Restarting incremental Fock matrix formation ***
  6   -231.46401874  -0.0000167564  0.000140  0.000265  0.000588  0.000021
  7   -231.46402033  -0.0000015920  0.000053  0.000157  0.000313  0.000010
  8   -231.46402046  -0.0000001266  0.000041  0.000028  0.000062  0.000002
  9   -231.46402050  -0.0000000429  0.000011  0.000009  0.000019  0.000001
 10   -231.46402051  -0.0000000027  0.000004  0.000004  0.000007  0.000000
                  ***Gradient check signals convergence***
              ***Rediagonalizing the Fockian in SOSCF/NRSCF***

               *****************************************************
               *                     SUCCESS                       *
               *           SCF CONVERGED AFTER  11 CYCLES          *
               *****************************************************

Setting up the final grid:

General Integration Accuracy     IntAcc      ...  4.670
Radial Grid Type                 RadialGrid  ... Gauss-Chebyshev
Angular Grid (max. acc.)         AngularGrid ... Lebedev-302
Angular grid pruning method      GridPruning ... 3 (G Style)
Weight generation scheme         WeightScheme... Becke
Basis function cutoff            BFCut       ...    1.0000e-11
Integration weight cutoff        WCut        ...    1.0000e-14
Grids for H and He will be reduced by one unit

# of grid points (after initial pruning)     ...  52000 (   0.0 sec)
# of grid points (after weights+screening)   ...  49438 (   0.0 sec)
nearest neighbour list constructed           ...    0.0 sec
Grid point re-assignment to atoms done       ...    0.0 sec
Grid point division into batches done        ...    0.2 sec
Reduced shell lists constructed in    0.2 sec

Total number of grid points                  ...    49438
Total number of batches                      ...      780
Average number of points per batch           ...       63
Average number of grid points per atom       ...     4120
Average number of shells per batch           ...    46.49 (61.18%)
Average number of basis functions per batch  ...   100.47 (58.42%)
Average number of large shells per batch     ...    37.91 (81.53%)
Average number of large basis fcns per batch ...    84.17 (83.77%)
Maximum spatial batch extension              ...  14.80, 15.20, 13.28 au
Average spatial batch extension              ...   0.23,  0.22,  0.23 au

Final grid set up in    0.3 sec
Final integration                            ... done (   0.1 sec)
Change in XC energy                          ...    -0.000508700
Integrated number of electrons               ...    36.000048713
Previous integrated no of electrons          ...    35.997045600

----------------
TOTAL SCF ENERGY
----------------

Total Energy       :         -231.46452921 Eh           -6298.47005 eV

Components:
Nuclear Repulsion  :          117.45271280 Eh            3196.05080 eV
Electronic Energy  :         -348.91724201 Eh           -9494.52085 eV
One Electron Energy:         -547.45472561 Eh          -14897.00043 eV
Two Electron Energy:          198.53748360 Eh            5402.47959 eV

Virial components:
Potential Energy   :         -462.18933493 Eh          -12576.81120 eV
Kinetic Energy     :          230.72480573 Eh            6278.34115 eV
Virial Ratio       :            2.00320609


DFT components:
N(Alpha)           :       18.000024356375 electrons
N(Beta)            :       18.000024356375 electrons
N(Total)           :       36.000048712750 electrons
E(XC)              :      -21.353145749111 Eh       
DFET-embed. en.    :        0.000000000000 Eh       

---------------
SCF CONVERGENCE
---------------

  Last Energy change         ...   -7.9825e-10  Tolerance :   1.0000e-08
  Last MAX-Density change    ...    2.5043e-06  Tolerance :   1.0000e-07
  Last RMS-Density change    ...    8.0508e-08  Tolerance :   5.0000e-09
  Last Orbital Gradient      ...    6.9851e-07  Tolerance :   1.0000e-05
  Last Orbital Rotation      ...    1.7292e-06  Tolerance :   1.0000e-05

             **** THE GBW FILE WAS UPDATED (20-82_DFT_AB.gbw) ****
             **** DENSITY FILE WAS UPDATED (20-82_DFT_AB.scfp.tmp) ****
             **** ENERGY FILE WAS UPDATED (20-82_DFT_AB.en.tmp) ****
----------------
ORBITAL ENERGIES
----------------

  NO   OCC          E(Eh)            E(eV) 
   0   2.0000     -19.235993      -523.4380 
   1   2.0000     -19.234871      -523.4074 
   2   2.0000     -10.311713      -280.5960 
   3   2.0000     -10.308547      -280.5098 
   4   2.0000      -1.164250       -31.6808 
   5   2.0000      -1.143377       -31.1129 
   6   2.0000      -0.807324       -21.9684 
   7   2.0000      -0.792762       -21.5722 
   8   2.0000      -0.632097       -17.2002 
   9   2.0000      -0.610658       -16.6168 
  10   2.0000      -0.555691       -15.1211 
  11   2.0000      -0.546272       -14.8648 
  12   2.0000      -0.538995       -14.6668 
  13   2.0000      -0.528882       -14.3916 
  14   2.0000      -0.442942       -12.0531 
  15   2.0000      -0.437104       -11.8942 
  16   2.0000      -0.381578       -10.3833 
  17   2.0000      -0.371896       -10.1198 
  18   0.0000       0.086248         2.3469 
  19   0.0000       0.139386         3.7929 
  20   0.0000       0.149048         4.0558 
  21   0.0000       0.160666         4.3719 
  22   0.0000       0.194151         5.2831 
  23   0.0000       0.205148         5.5824 
  24   0.0000       0.209326         5.6961 
  25   0.0000       0.211693         5.7605 
  26   0.0000       0.218769         5.9530 
  27   0.0000       0.241512         6.5719 
  28   0.0000       0.301612         8.2073 
  29   0.0000       0.313966         8.5435 
  30   0.0000       0.323050         8.7906 
  31   0.0000       0.356421         9.6987 
  32   0.0000       0.401820        10.9341 
  33   0.0000       0.412196        11.2164 
  34   0.0000       0.449727        12.2377 
  35   0.0000       0.463098        12.6015 
  36   0.0000       0.482115        13.1190 
  37   0.0000       0.496871        13.5205 
  38   0.0000       0.523882        14.2556 
  39   0.0000       0.540326        14.7030 
  40   0.0000       0.543906        14.8004 
  41   0.0000       0.549283        14.9468 
  42   0.0000       0.560340        15.2476 
  43   0.0000       0.567999        15.4560 
  44   0.0000       0.593266        16.1436 
  45   0.0000       0.605559        16.4781 
  46   0.0000       0.616638        16.7796 
  47   0.0000       0.641847        17.4656 
  48   0.0000       0.676920        18.4199 
  49   0.0000       0.760913        20.7055 
  50   0.0000       0.762234        20.7414 
  51   0.0000       0.770897        20.9772 
  52   0.0000       0.805714        21.9246 
  53   0.0000       0.828564        22.5464 
  54   0.0000       0.855177        23.2705 
  55   0.0000       0.873096        23.7582 
  56   0.0000       0.976801        26.5801 
  57   0.0000       0.997645        27.1473 
  58   0.0000       1.033221        28.1154 
  59   0.0000       1.073244        29.2044 
  60   0.0000       1.111756        30.2524 
  61   0.0000       1.118693        30.4412 
  62   0.0000       1.365243        37.1502 
  63   0.0000       1.369863        37.2759 
  64   0.0000       1.486788        40.4576 
  65   0.0000       1.506887        41.0045 
  66   0.0000       1.540084        41.9078 
  67   0.0000       1.551596        42.2211 
  68   0.0000       1.593064        43.3495 
  69   0.0000       1.607012        43.7290 
  70   0.0000       1.628918        44.3251 
  71   0.0000       1.634775        44.4845 
  72   0.0000       1.645153        44.7669 
  73   0.0000       1.649190        44.8767 
  74   0.0000       1.657037        45.0903 
  75   0.0000       1.678437        45.6726 
  76   0.0000       1.697881        46.2017 
  77   0.0000       1.711155        46.5629 
  78   0.0000       1.789201        48.6866 
  79   0.0000       1.826524        49.7023 
  80   0.0000       1.935322        52.6628 
  81   0.0000       1.959102        53.3099 
  82   0.0000       2.019188        54.9449 
  83   0.0000       2.022365        55.0313 
  84   0.0000       2.062879        56.1338 
  85   0.0000       2.069635        56.3176 
  86   0.0000       2.090287        56.8796 
  87   0.0000       2.094662        56.9987 
  88   0.0000       2.118918        57.6587 
  89   0.0000       2.172403        59.1141 
  90   0.0000       2.240446        60.9656 
  91   0.0000       2.257616        61.4329 
  92   0.0000       2.296185        62.4824 
  93   0.0000       2.345987        63.8376 
  94   0.0000       2.369335        64.4729 
  95   0.0000       2.381813        64.8124 
  96   0.0000       2.425309        65.9960 
  97   0.0000       2.454094        66.7793 
  98   0.0000       2.462048        66.9957 
  99   0.0000       2.467525        67.1448 
 100   0.0000       2.513663        68.4003 
 101   0.0000       2.546625        69.2972 
 102   0.0000       2.578076        70.1530 
 103   0.0000       2.580223        70.2114 
 104   0.0000       2.642574        71.9081 
 105   0.0000       2.680985        72.9533 
 106   0.0000       2.696834        73.3846 
 107   0.0000       2.738301        74.5129 
 108   0.0000       2.817351        76.6640 
 109   0.0000       2.853613        77.6507 
 110   0.0000       2.875545        78.2476 
 111   0.0000       2.896373        78.8143 
 112   0.0000       2.924731        79.5860 
 113   0.0000       2.951428        80.3124 
 114   0.0000       2.972210        80.8779 
 115   0.0000       3.003990        81.7427 
 116   0.0000       3.102520        84.4239 
 117   0.0000       3.112856        84.7051 
 118   0.0000       3.166822        86.1736 
 119   0.0000       3.177251        86.4574 
 120   0.0000       3.240252        88.1717 
 121   0.0000       3.282301        89.3159 
 122   0.0000       3.341654        90.9310 
 123   0.0000       3.399670        92.5097 
 124   0.0000       3.444914        93.7409 
 125   0.0000       3.486037        94.8599 
 126   0.0000       3.511623        95.5561 
 127   0.0000       3.556408        96.7748 
 128   0.0000       3.598176        97.9114 
 129   0.0000       3.637853        98.9910 
 130   0.0000       3.654607        99.4469 
 131   0.0000       3.660812        99.6158 
 132   0.0000       3.672782        99.9415 
 133   0.0000       3.693429       100.5033 
 134   0.0000       4.045932       110.0954 
 135   0.0000       4.056083       110.3716 
 136   0.0000       4.216309       114.7316 
 137   0.0000       4.266366       116.0937 
 138   0.0000       4.354834       118.5011 
 139   0.0000       4.367955       118.8581 
 140   0.0000       4.386197       119.3545 
 141   0.0000       4.430213       120.5522 
 142   0.0000       4.527473       123.1988 
 143   0.0000       4.538713       123.5047 
 144   0.0000       5.376603       146.3048 
 145   0.0000       5.376882       146.3124 
 146   0.0000       5.472078       148.9028 
 147   0.0000       5.493723       149.4918 
 148   0.0000       5.525536       150.3575 
 149   0.0000       5.569977       151.5668 
 150   0.0000       5.765930       156.8989 
 151   0.0000       5.819457       158.3555 
 152   0.0000       5.840563       158.9298 
 153   0.0000       5.884992       160.1388 
 154   0.0000       6.047127       164.5507 
 155   0.0000       6.050279       164.6365 
 156   0.0000       6.330173       172.2528 
 157   0.0000       6.423701       174.7978 
 158   0.0000       6.526905       177.6061 
 159   0.0000       6.534933       177.8246 
 160   0.0000       6.770393       184.2318 
 161   0.0000       6.787002       184.6837 
 162   0.0000       6.802555       185.1069 
 163   0.0000       6.825480       185.7308 
 164   0.0000       7.005701       190.6348 
 165   0.0000       7.024492       191.1461 
 166   0.0000       7.203797       196.0253 
 167   0.0000       7.247175       197.2057 
 168   0.0000      22.453243       610.9838 
 169   0.0000      22.574472       614.2826 
 170   0.0000      43.653083      1187.8608 
 171   0.0000      43.685920      1188.7543 

                    ********************************
                    * MULLIKEN POPULATION ANALYSIS *
                    ********************************

-----------------------
MULLIKEN ATOMIC CHARGES
-----------------------
   0 C :   -0.175051
   1 O :   -0.464173
   2 H :    0.312712
   3 H :    0.100185
   4 H :    0.120805
   5 H :    0.107499
   6 C :   -0.176066
   7 O :   -0.462998
   8 H :    0.318067
   9 H :    0.102327
  10 H :    0.097313
  11 H :    0.119381
Sum of atomic charges:    0.0000000

--------------------------------
MULLIKEN REDUCED ORBITAL CHARGES
--------------------------------
  0 C s       :     3.214766  s :     3.214766
      pz      :     1.013058  p :     2.848745
      px      :     0.932132
      py      :     0.903555
      dz2     :     0.015717  d :     0.103332
      dxz     :     0.014107
      dyz     :     0.017492
      dx2y2   :     0.041174
      dxy     :     0.014843
      f0      :     0.000946  f :     0.008208
      f+1     :     0.000735
      f-1     :     0.001056
      f+2     :     0.000710
      f-2     :     0.001216
      f+3     :     0.001631
      f-3     :     0.001914
  1 O s       :     3.788973  s :     3.788973
      pz      :     1.680480  p :     4.641794
      px      :     1.682803
      py      :     1.278512
      dz2     :     0.003763  d :     0.031631
      dxz     :     0.005385
      dyz     :     0.010199
      dx2y2   :     0.005134
      dxy     :     0.007151
      f0      :     0.000191  f :     0.001774
      f+1     :     0.000130
      f-1     :     0.000229
      f+2     :     0.000357
      f-2     :     0.000290
      f+3     :     0.000313
      f-3     :     0.000265
  2 H s       :     0.635570  s :     0.635570
      pz      :     0.017693  p :     0.051717
      px      :     0.016321
      py      :     0.017703
  3 H s       :     0.879902  s :     0.879902
      pz      :     0.011830  p :     0.019913
      px      :     0.004470
      py      :     0.003613
  4 H s       :     0.858948  s :     0.858948
      pz      :     0.004334  p :     0.020247
      px      :     0.004388
      py      :     0.011525
  5 H s       :     0.871894  s :     0.871894
      pz      :     0.006096  p :     0.020607
      px      :     0.010874
      py      :     0.003637
  6 C s       :     3.216142  s :     3.216142
      pz      :     0.974673  p :     2.854201
      px      :     0.867806
      py      :     1.011722
      dz2     :     0.015656  d :     0.098109
      dxz     :     0.022974
      dyz     :     0.017615
      dx2y2   :     0.020955
      dxy     :     0.020909
      f0      :     0.000306  f :     0.007614
      f+1     :     0.001540
      f-1     :     0.000299
      f+2     :     0.002001
      f-2     :     0.001454
      f+3     :     0.001283
      f-3     :     0.000730
  7 O s       :     3.807477  s :     3.807477
      pz      :     1.533162  p :     4.621970
      px      :     1.253224
      py      :     1.835584
      dz2     :     0.004685  d :     0.031934
      dxz     :     0.015114
      dyz     :     0.004502
      dx2y2   :     0.003867
      dxy     :     0.003766
      f0      :     0.000061  f :     0.001617
      f+1     :     0.000260
      f-1     :     0.000080
      f+2     :     0.000475
      f-2     :     0.000219
      f+3     :     0.000278
      f-3     :     0.000245
  8 H s       :     0.635401  s :     0.635401
      pz      :     0.015034  p :     0.046532
      px      :     0.015255
      py      :     0.016243
  9 H s       :     0.878356  s :     0.878356
      pz      :     0.005799  p :     0.019317
      px      :     0.003037
      py      :     0.010482
 10 H s       :     0.883608  s :     0.883608
      pz      :     0.007893  p :     0.019079
      px      :     0.004410
      py      :     0.006777
 11 H s       :     0.859254  s :     0.859254
      pz      :     0.006036  p :     0.021365
      px      :     0.010232
      py      :     0.005097


                     *******************************
                     * LOEWDIN POPULATION ANALYSIS *
                     *******************************

----------------------
LOEWDIN ATOMIC CHARGES
----------------------
   0 C :   -0.403685
   1 O :   -0.039495
   2 H :    0.154591
   3 H :    0.094042
   4 H :    0.103850
   5 H :    0.091831
   6 C :   -0.408155
   7 O :   -0.065506
   8 H :    0.178372
   9 H :    0.094894
  10 H :    0.098995
  11 H :    0.100268

-------------------------------
LOEWDIN REDUCED ORBITAL CHARGES
-------------------------------
  0 C s       :     2.842287  s :     2.842287
      pz      :     1.071644  p :     3.060990
      px      :     1.011472
      py      :     0.977874
      dz2     :     0.085133  d :     0.436941
      dxz     :     0.066273
      dyz     :     0.059475
      dx2y2   :     0.138973
      dxy     :     0.087087
      f0      :     0.006626  f :     0.063466
      f+1     :     0.004056
      f-1     :     0.008851
      f+2     :     0.008311
      f-2     :     0.011607
      f+3     :     0.011229
      f-3     :     0.012786
  1 O s       :     3.335686  s :     3.335686
      pz      :     1.644593  p :     4.621087
      px      :     1.661885
      py      :     1.314610
      dz2     :     0.007638  d :     0.077282
      dxz     :     0.009107
      dyz     :     0.024571
      dx2y2   :     0.018998
      dxy     :     0.016968
      f0      :     0.000391  f :     0.005439
      f+1     :     0.000433
      f-1     :     0.000774
      f+2     :     0.000981
      f-2     :     0.001125
      f+3     :     0.000826
      f-3     :     0.000909
  2 H s       :     0.674083  s :     0.674083
      pz      :     0.063469  p :     0.171327
      px      :     0.049223
      py      :     0.058635
  3 H s       :     0.843931  s :     0.843931
      pz      :     0.035433  p :     0.062028
      px      :     0.014137
      py      :     0.012458
  4 H s       :     0.834654  s :     0.834654
      pz      :     0.013734  p :     0.061496
      px      :     0.014713
      py      :     0.033049
  5 H s       :     0.843942  s :     0.843942
      pz      :     0.019126  p :     0.064227
      px      :     0.032867
      py      :     0.012234
  6 C s       :     2.852333  s :     2.852333
      pz      :     1.048069  p :     3.068454
      px      :     0.949838
      py      :     1.070547
      dz2     :     0.047674  d :     0.429646
      dxz     :     0.118886
      dyz     :     0.090202
      dx2y2   :     0.097704
      dxy     :     0.075179
      f0      :     0.006228  f :     0.057722
      f+1     :     0.011018
      f-1     :     0.003594
      f+2     :     0.008904
      f-2     :     0.008909
      f+3     :     0.011213
      f-3     :     0.007856
  7 O s       :     3.373222  s :     3.373222
      pz      :     1.565988  p :     4.614638
      px      :     1.296313
      py      :     1.752338
      dz2     :     0.008944  d :     0.072705
      dxz     :     0.031720
      dyz     :     0.007131
      dx2y2   :     0.013705
      dxy     :     0.011206
      f0      :     0.000313  f :     0.004941
      f+1     :     0.001426
      f-1     :     0.000159
      f+2     :     0.001199
      f-2     :     0.000749
      f+3     :     0.000595
      f-3     :     0.000500
  8 H s       :     0.667114  s :     0.667114
      pz      :     0.060093  p :     0.154515
      px      :     0.050384
      py      :     0.044038
  9 H s       :     0.844641  s :     0.844641
      pz      :     0.017850  p :     0.060465
      px      :     0.010558
      py      :     0.032057
 10 H s       :     0.844481  s :     0.844481
      pz      :     0.023207  p :     0.056525
      px      :     0.012922
      py      :     0.020396
 11 H s       :     0.834567  s :     0.834567
      pz      :     0.019590  p :     0.065165
      px      :     0.030042
      py      :     0.015534


                      *****************************
                      * MAYER POPULATION ANALYSIS *
                      *****************************

  NA   - Mulliken gross atomic population
  ZA   - Total nuclear charge
  QA   - Mulliken gross atomic charge
  VA   - Mayer's total valence
  BVA  - Mayer's bonded valence
  FA   - Mayer's free valence

  ATOM       NA         ZA         QA         VA         BVA        FA
  0 C      6.1751     6.0000    -0.1751     3.9473     3.9473     0.0000
  1 O      8.4642     8.0000    -0.4642     1.8855     1.8855    -0.0000
  2 H      0.6873     1.0000     0.3127     0.9151     0.9151    -0.0000
  3 H      0.8998     1.0000     0.1002     0.9630     0.9630     0.0000
  4 H      0.8792     1.0000     0.1208     0.9572     0.9572     0.0000
  5 H      0.8925     1.0000     0.1075     0.9553     0.9553     0.0000
  6 C      6.1761     6.0000    -0.1761     3.9376     3.9376     0.0000
  7 O      8.4630     8.0000    -0.4630     1.9013     1.9013     0.0000
  8 H      0.6819     1.0000     0.3181     0.9123     0.9123     0.0000
  9 H      0.8977     1.0000     0.1023     0.9609     0.9609    -0.0000
 10 H      0.9027     1.0000     0.0973     0.9550     0.9550     0.0000
 11 H      0.8806     1.0000     0.1194     0.9558     0.9558     0.0000

  Mayer bond orders larger than 0.1
B(  0-C ,  1-O ) :   0.9938 B(  0-C ,  3-H ) :   0.9950 B(  0-C ,  4-H ) :   0.9736 
B(  0-C ,  5-H ) :   0.9755 B(  1-O ,  2-H ) :   0.9069 B(  6-C ,  7-O ) :   1.0034 
B(  6-C ,  9-H ) :   0.9779 B(  6-C , 10-H ) :   0.9752 B(  6-C , 11-H ) :   0.9743 
B(  7-O ,  8-H ) :   0.9001 

-------
TIMINGS
-------

Total SCF time: 0 days 0 hours 0 min 17 sec 

Total time                  ....      17.132 sec
Sum of individual times     ....      16.606 sec  ( 96.9%)

Fock matrix formation       ....      15.897 sec  ( 92.8%)
  XC integration            ....       7.031 sec  ( 44.2% of F)
    Basis function eval.    ....       0.058 sec  (  0.8% of XC)
    Density eval.           ....       0.135 sec  (  1.9% of XC)
    XC-Functional eval.     ....       0.160 sec  (  2.3% of XC)
    XC-Potential eval.      ....       0.060 sec  (  0.9% of XC)
Diagonalization             ....       0.083 sec  (  0.5%)
Density matrix formation    ....       0.006 sec  (  0.0%)
Population analysis         ....       0.016 sec  (  0.1%)
Initial guess               ....       0.105 sec  (  0.6%)
Orbital Transformation      ....       0.000 sec  (  0.0%)
Orbital Orthonormalization  ....       0.000 sec  (  0.0%)
DIIS solution               ....       0.097 sec  (  0.6%)
SOSCF solution              ....       0.096 sec  (  0.6%)
Grid generation             ....       0.306 sec  (  1.8%)


-------------------------------------------------------------------------------
                          DFT DISPERSION CORRECTION                            
                                                                               
                              DFTD3 V3.1  Rev 1                                
                              USING zero damping                               
-------------------------------------------------------------------------------
The omegaB97X-D3 functional is recognized. Fit by Chai et al.
Active option DFTDOPT                   ...         3   

molecular C6(AA) [au] = 834.452701 


            DFT-D V3
 parameters
 s6 scaling factor         :     1.0000 
 rs6 scaling factor        :     1.2810 
 s8 scaling factor         :     1.0000 
 rs8 scaling factor        :     1.0940 
 Damping factor alpha6     :    14.0000 
 Damping factor alpha8     :    16.0000 
 ad hoc parameters k1-k3   :    16.0000     1.3333    -4.0000 

 Edisp/kcal,au: -0.618941054254  -0.000986345249 
 E6   /kcal   :  -0.316699588 
 E8   /kcal   :  -0.302241466 
 % E8         :  48.832027531 

-------------------------   ----------------
Dispersion correction           -0.000986345
-------------------------   ----------------


-------------------------   --------------------
FINAL SINGLE POINT ENERGY      -231.465515552970
-------------------------   --------------------


                            ***************************************
                            *     ORCA property calculations      *
                            ***************************************

                                    ---------------------
                                    Active property flags
                                    ---------------------
   (+) Dipole Moment


------------------------------------------------------------------------------
                       ORCA ELECTRIC PROPERTIES CALCULATION
------------------------------------------------------------------------------

Dipole Moment Calculation                       ... on
Quadrupole Moment Calculation                   ... off
Polarizability Calculation                      ... off
GBWName                                         ... 20-82_DFT_AB.gbw
Electron density file                           ... 20-82_DFT_AB.scfp.tmp
The origin for moment calculation is the CENTER OF MASS  = (-0.964667, -6.525486 -2.374396)

-------------
DIPOLE MOMENT
-------------
                                X             Y             Z
Electronic contribution:     -0.28162       0.55581      -0.44620
Nuclear contribution   :     -0.21052      -0.23370       0.59222
                        -----------------------------------------
Total Dipole Moment    :     -0.49214       0.32211       0.14602
                        -----------------------------------------
Magnitude (a.u.)       :      0.60604
Magnitude (Debye)      :      1.54042



--------------------
Rotational spectrum 
--------------------
 
Rotational constants in cm-1:     0.462826     0.045288     0.042505 
Rotational constants in MHz : 13875.160881  1357.703256  1274.263353 

 Dipole components along the rotational axes: 
x,y,z [a.u.] :    -0.487395     0.066170     0.354045 
x,y,z [Debye]:    -1.238859     0.168191     0.899912 

 
------------------------------------------------------------------------------
                      ORCA CHELPG CHARGES GENERATION
------------------------------------------------------------------------------

GBW file                           ... 20-82_DFT_AB.gbw

Reading the GBW file               ... done

Grid spacing                       ...     0.300000
Point Cut-Off                      ...     2.800000
Van-der-Waals Radii                ...        COSMO
Total charge                       ...            0


Number of points X direction       ...           40
Number of points Y direction       ...           27
Number of points Z direction       ...           30
Maximum number of possible points  ...        32400
Final number of points             ...        10681


CHELPG Charges            
--------------------------------
  0   C   :       0.278830
  1   O   :      -0.646097
  2   H   :       0.420010
  3   H   :      -0.042256
  4   H   :       0.020133
  5   H   :      -0.020246
  6   C   :       0.134044
  7   O   :      -0.580215
  8   H   :       0.377920
  9   H   :      -0.009727
 10   H   :      -0.001481
 11   H   :       0.069085
--------------------------------
Total charge:    -0.000000
--------------------------------

CHELPG charges calculated...

Timings for individual parts in CHELPG calculation:
Grid generation                 ...        0.001 sec (=   0.000 min)
Potential calculation           ...        2.105 sec (=   0.035 min)
Fit to the potential            ...        0.004 sec (=   0.000 min)
------------------------------------------------------------------------------


Timings for individual modules:

Sum of individual times         ...       25.052 sec (=   0.418 min)
GTO integral calculation        ...        4.768 sec (=   0.079 min)  19.0 %
SCF iterations                  ...       18.144 sec (=   0.302 min)  72.4 %
CHELPG charge generation        ...        2.141 sec (=   0.036 min)   8.5 %


                 $$$$$$$$$$$$$$$$  JOB NUMBER  2 $$$$$$$$$$$$$$


                       ****************************
                       * Single Point Calculation *
                       ****************************

---------------------------------
CARTESIAN COORDINATES (ANGSTROEM)
---------------------------------
  C     -2.839955   -3.953407   -0.078150
  O     -2.008247   -2.946951    0.371114
  H     -2.187683   -2.219467   -0.178250
  H     -3.058394   -3.772306   -1.120352
  H     -2.431864   -4.948480    0.016022
  H     -3.792097   -3.920621    0.402216
  C      1.972360   -3.242380   -2.291110
  O      0.886188   -3.726054   -3.031860
  H      0.164085   -3.641322   -2.396645
  H      1.793747   -2.285866   -1.788684
  H      2.331288   -3.957920   -1.507135
  H      2.874275   -3.131901   -2.845409

----------------------------
CARTESIAN COORDINATES (A.U.)
----------------------------
  NO LB      ZA    FRAG     MASS         X           Y           Z
   0 C     6.0000    0    12.011   -5.366737   -7.470857   -0.147682
   1 O     8.0000    0    15.999   -3.795037   -5.568930    0.701304
   2 H     1.0000    0     1.008   -4.134122   -4.194185   -0.336844
   3 H     1.0000    0     1.008   -5.779527   -7.128625   -2.117158
   4 H     1.0000    0     1.008   -4.595557   -9.351272    0.030277
   5 H     1.0000    0     1.008   -7.166025   -7.408900    0.760078
   6 C     0.0000    0     0.000    3.727220   -6.127210   -4.329570
   7 O     0.0000    0     0.000    1.674653   -7.041222   -5.729385
   8 H     0.0000    0     0.000    0.310076   -6.881101   -4.529003
   9 H     0.0000    0     0.000    3.389691   -4.319661   -3.380123
  10 H     0.0000    0     0.000    4.405496   -7.479385   -2.848072
  11 H     0.0000    0     0.000    5.431593   -5.918435   -5.377044

--------------------------------
INTERNAL COORDINATES (ANGSTROEM)
--------------------------------
 C      0   0   0     0.000000000000     0.00000000     0.00000000
 O      1   0   0     1.380771530303     0.00000000     0.00000000
 H      2   1   0     0.929102283308   105.18963737     0.00000000
 H      1   2   3     1.080138036422   108.27310527    26.09168774
 H      1   2   3     1.079618870340   114.56719531   147.14653176
 H      1   2   3     1.066958670200   111.63198502   271.71113657
 C      3   2   1     4.776660564350    85.73716856   255.30998070
 O      7   3   2     1.400864274068    68.44257204   100.23174669
 H      8   7   3     0.965458621929   101.63705303   346.86293347
 H      7   3   2     1.095104342719    57.85720269   241.37051459
 H      7   3   2     1.120465796626    96.09921777   347.40099303
 H      7   3   2     1.064379470897   161.10289582   203.63908995

---------------------------
INTERNAL COORDINATES (A.U.)
---------------------------
 C      0   0   0     0.000000000000     0.00000000     0.00000000
 O      1   0   0     2.609280045789     0.00000000     0.00000000
 H      2   1   0     1.755748865853   105.18963737     0.00000000
 H      1   2   3     2.041165075669   108.27310527    26.09168774
 H      1   2   3     2.040183993956   114.56719531   147.14653176
 H      1   2   3     2.016259682892   111.63198502   271.71113657
 C      3   2   1     9.026580301324    85.73716856   255.30998070
 O      7   3   2     2.647249828783    68.44257204   100.23174669
 H      8   7   3     1.824452389080   101.63705303   346.86293347
 H      7   3   2     2.069447295806    57.85720269   241.37051459
 H      7   3   2     2.117373498049    96.09921777   347.40099303
 H      7   3   2     2.011385702563   161.10289582   203.63908995

---------------------
BASIS SET INFORMATION
---------------------
There are 3 groups of distinct atoms

 Group   1 Type C   : 11s6p2d1f contracted to 5s3p2d1f pattern {62111/411/11/1}
 Group   2 Type O   : 11s6p2d1f contracted to 5s3p2d1f pattern {62111/411/11/1}
 Group   3 Type H   : 5s1p contracted to 3s1p pattern {311/1}

Atom   0C    basis set group =>   1
Atom   1O    basis set group =>   2
Atom   2H    basis set group =>   3
Atom   3H    basis set group =>   3
Atom   4H    basis set group =>   3
Atom   5H    basis set group =>   3
Atom   6C    basis set group =>   1
Atom   7O    basis set group =>   2
Atom   8H    basis set group =>   3
Atom   9H    basis set group =>   3
Atom  10H    basis set group =>   3
Atom  11H    basis set group =>   3


           ************************************************************
           *        Program running with 8 parallel MPI-processes     *
           *              working on a common directory               *
           ************************************************************
------------------------------------------------------------------------------
                           ORCA GTO INTEGRAL CALCULATION
------------------------------------------------------------------------------

                         BASIS SET STATISTICS AND STARTUP INFO

 # of primitive gaussian shells          ...  128
 # of primitive gaussian functions       ...  248
 # of contracted shells                  ...   76
 # of contracted basis functions         ...  172
 Highest angular momentum                ...    3
 Maximum contraction depth               ...    6
 Integral package used                   ... LIBINT
 Integral threshhold            Thresh   ...  2.500e-11
 Primitive cut-off              TCut     ...  2.500e-12


------------------------------ INTEGRAL EVALUATION ----------------------------


 * One electron integrals 
 Pre-screening matrix                    ... done
 Shell pair data                         ... done (   0.001 sec)



           ************************************************************
           *        Program running with 8 parallel MPI-processes     *
           *              working on a common directory               *
           ************************************************************
-------------------------------------------------------------------------------
                                 ORCA SCF
-------------------------------------------------------------------------------

------------
SCF SETTINGS
------------
Hamiltonian:
 Density Functional     Method          .... DFT(GTOs)
 Exchange Functional    Exchange        .... WB97X-D3
 Correlation Functional Correlation     .... WB97X-D3
 Gradients option       PostSCFGGA      .... off
 Hybrid DFT is turned on
   Fraction HF Exchange ScalHFX         ....  0.195728
   Scaling of DF-GGA-X  ScalDFX         ....  0.000000
   Scaling of DF-GGA-C  ScalDFC         ....  1.000000
   Scaling of DF-LDA-C  ScalLDAC        ....  1.000000
   Perturbative correction              ....  0.000000
   Density functional embedding theory  .... OFF
 Long-range corrected/Screened/Range-Separated Hybrid DFT is turned on
   Amount of maximum screened exact exchange              ....  0.804272
   Range separation parameter mu (erf(mu*r12)/r12)        ....  0.250000


General Settings:
 Integral files         IntName         .... 20-82_DFT_A
 Hartree-Fock type      HFTyp           .... RHF
 Total Charge           Charge          ....    0
 Multiplicity           Mult            ....    1
 Number of Electrons    NEL             ....   18
 Basis Dimension        Dim             ....  172
 Nuclear Repulsion      ENuc            ....     41.3477919639 Eh

Convergence Acceleration:
 DIIS                   CNVDIIS         .... on
   Start iteration      DIISMaxIt       ....    12
   Startup error        DIISStart       ....  0.200000
   # of expansion vecs  DIISMaxEq       ....     5
   Bias factor          DIISBfac        ....   1.050
   Max. coefficient     DIISMaxC        ....  10.000
 Newton-Raphson         CNVNR           .... off
 SOSCF                  CNVSOSCF        .... on
   Start iteration      SOSCFMaxIt      ....   150
   Startup grad/error   SOSCFStart      ....  0.003300
 Level Shifting         CNVShift        .... on
   Level shift para.    LevelShift      ....    0.2500
   Turn off err/grad.   ShiftErr        ....    0.0010
 Zerner damping         CNVZerner       .... off
 Static damping         CNVDamp         .... on
   Fraction old density DampFac         ....    0.7000
   Max. Damping (<1)    DampMax         ....    0.9800
   Min. Damping (>=0)   DampMin         ....    0.0000
   Turn off err/grad.   DampErr         ....    0.1000
 Fernandez-Rico         CNVRico         .... off

SCF Procedure:
 Maximum # iterations   MaxIter         ....  1000
 SCF integral mode      SCFMode         .... Direct
   Integral package                     .... LIBINT
 Reset frequency        DirectResetFreq ....    20
 Integral Threshold     Thresh          ....  2.500e-11 Eh
 Primitive CutOff       TCut            ....  2.500e-12 Eh

Convergence Tolerance:
 Convergence Check Mode ConvCheckMode   .... Total+1el-Energy
 Convergence forced     ConvForced      .... 0
 Energy Change          TolE            ....  1.000e-08 Eh
 1-El. energy change                    ....  1.000e-05 Eh
 Orbital Gradient       TolG            ....  1.000e-05
 Orbital Rotation angle TolX            ....  1.000e-05
 DIIS Error             TolErr          ....  5.000e-07


Diagonalization of the overlap matrix:
Smallest eigenvalue                        ... 1.527e-03
Time for diagonalization                   ...    0.003 sec
Threshold for overlap eigenvalues          ... 1.000e-08
Number of eigenvalues below threshold      ... 0
Time for construction of square roots      ...    0.017 sec
Total time needed                          ...    0.021 sec

-------------------
DFT GRID GENERATION
-------------------

General Integration Accuracy     IntAcc      ...  4.340
Radial Grid Type                 RadialGrid  ... Gauss-Chebyshev
Angular Grid (max. acc.)         AngularGrid ... Lebedev-110
Angular grid pruning method      GridPruning ... 3 (G Style)
Weight generation scheme         WeightScheme... Becke
Basis function cutoff            BFCut       ...    1.0000e-11
Integration weight cutoff        WCut        ...    1.0000e-14
Grids for H and He will be reduced by one unit

# of grid points (after initial pruning)     ...  13096 (   0.0 sec)
# of grid points (after weights+screening)   ...  12591 (   0.0 sec)
nearest neighbour list constructed           ...    0.0 sec
Grid point re-assignment to atoms done       ...    0.0 sec
Grid point division into batches done        ...    0.0 sec
Reduced shell lists constructed in    0.0 sec

Total number of grid points                  ...    12591
Total number of batches                      ...      203
Average number of points per batch           ...       62
Average number of grid points per atom       ...     1049
Average number of shells per batch           ...    47.67 (62.72%)
Average number of basis functions per batch  ...   103.15 (59.97%)
Average number of large shells per batch     ...    39.70 (83.29%)
Average number of large basis fcns per batch ...    87.85 (85.17%)
Maximum spatial batch extension              ...  12.32, 13.35, 14.05 au
Average spatial batch extension              ...   0.33,  0.32,  0.34 au

Time for grid setup =    0.044 sec

------------------------------
INITIAL GUESS: MODEL POTENTIAL
------------------------------
Loading Hartree-Fock densities                     ... done
Calculating cut-offs                               ... done
Setting up the integral package                    ... done
Initializing the effective Hamiltonian             ... done
Starting the Coulomb interaction                   ... done (   0.0 sec)
Reading the grid                                   ... done
Mapping shells                                     ... done
Starting the XC term evaluation                    ... done (   0.0 sec)
  promolecular density results
     # of electrons  =     17.995907987
     EX              =    -14.457911545
     EC              =     -0.578965693
     EX+EC           =    -15.036877237
Transforming the Hamiltonian                       ... done (   0.0 sec)
Diagonalizing the Hamiltonian                      ... done (   0.0 sec)
Back transforming the eigenvectors                 ... done (   0.0 sec)
Now organizing SCF variables                       ... done
                      ------------------
                      INITIAL GUESS DONE (   0.1 sec)
                      ------------------
--------------
SCF ITERATIONS
--------------
ITER       Energy         Delta-E        Max-DP      RMS-DP      [F,P]     Damp
               ***  Starting incremental Fock matrix formation  ***
  0   -115.6400132352   0.000000000000 0.03668625  0.00076843  0.2437399 0.7000
  1   -115.6789406855  -0.038927450308 0.02154191  0.00054830  0.1223547 0.7000
                               ***Turning on DIIS***
  2   -115.6971083758  -0.018167690351 0.03016059  0.00099932  0.0476744 0.0000
  3   -115.7266489212  -0.029540545377 0.01750391  0.00035728  0.0600248 0.0000
  4   -115.7313796911  -0.004730769923 0.00413935  0.00006845  0.0060441 0.0000
                      *** Initiating the SOSCF procedure ***
                           *** Shutting down DIIS ***
                      *** Re-Reading the Fockian *** 
                      *** Removing any level shift *** 
ITER      Energy       Delta-E        Grad      Rot      Max-DP    RMS-DP
  5   -115.73147309  -0.0000933989  0.000420  0.000420  0.000751  0.000024
               *** Restarting incremental Fock matrix formation ***
  6   -115.73148164  -0.0000085490  0.000131  0.000238  0.000590  0.000015
  7   -115.73148247  -0.0000008326  0.000051  0.000141  0.000298  0.000007
  8   -115.73148255  -0.0000000762  0.000021  0.000018  0.000031  0.000001
  9   -115.73148256  -0.0000000113  0.000009  0.000007  0.000018  0.000001
 10   -115.73148256  -0.0000000015  0.000003  0.000002  0.000005  0.000000
                  ***Gradient check signals convergence***
              ***Rediagonalizing the Fockian in SOSCF/NRSCF***

               *****************************************************
               *                     SUCCESS                       *
               *           SCF CONVERGED AFTER  11 CYCLES          *
               *****************************************************

Setting up the final grid:

General Integration Accuracy     IntAcc      ...  4.670
Radial Grid Type                 RadialGrid  ... Gauss-Chebyshev
Angular Grid (max. acc.)         AngularGrid ... Lebedev-302
Angular grid pruning method      GridPruning ... 3 (G Style)
Weight generation scheme         WeightScheme... Becke
Basis function cutoff            BFCut       ...    1.0000e-11
Integration weight cutoff        WCut        ...    1.0000e-14
Grids for H and He will be reduced by one unit

# of grid points (after initial pruning)     ...  52000 (   0.0 sec)
# of grid points (after weights+screening)   ...  49438 (   0.0 sec)
nearest neighbour list constructed           ...    0.0 sec
Grid point re-assignment to atoms done       ...    0.0 sec
Grid point division into batches done        ...    0.2 sec
Reduced shell lists constructed in    0.2 sec

Total number of grid points                  ...    49438
Total number of batches                      ...      780
Average number of points per batch           ...       63
Average number of grid points per atom       ...     4120
Average number of shells per batch           ...    46.49 (61.18%)
Average number of basis functions per batch  ...   100.47 (58.42%)
Average number of large shells per batch     ...    37.91 (81.53%)
Average number of large basis fcns per batch ...    84.17 (83.77%)
Maximum spatial batch extension              ...  14.80, 15.20, 13.28 au
Average spatial batch extension              ...   0.23,  0.22,  0.23 au

Final grid set up in    0.3 sec
Final integration                            ... done (   0.1 sec)
Change in XC energy                          ...    -0.000228455
Integrated number of electrons               ...    18.000034504
Previous integrated no of electrons          ...    17.998668673

----------------
TOTAL SCF ENERGY
----------------

Total Energy       :         -115.73171102 Eh           -3149.21996 eV

Components:
Nuclear Repulsion  :           41.34779196 Eh            1125.13062 eV
Electronic Energy  :         -157.07950298 Eh           -4274.35058 eV
One Electron Energy:         -238.99510267 Eh           -6503.38737 eV
Two Electron Energy:           81.91559969 Eh            2229.03679 eV

Virial components:
Potential Energy   :         -231.18880927 Eh           -6290.96733 eV
Kinetic Energy     :          115.45709826 Eh            3141.74737 eV
Virial Ratio       :            2.00237848


DFT components:
N(Alpha)           :        9.000017251945 electrons
N(Beta)            :        9.000017251945 electrons
N(Total)           :       18.000034503889 electrons
E(XC)              :      -10.695932391937 Eh       
DFET-embed. en.    :        0.000000000000 Eh       

---------------
SCF CONVERGENCE
---------------

  Last Energy change         ...   -2.5541e-10  Tolerance :   1.0000e-08
  Last MAX-Density change    ...    2.2629e-06  Tolerance :   1.0000e-07
  Last RMS-Density change    ...    6.3846e-08  Tolerance :   5.0000e-09
  Last Orbital Gradient      ...    9.9659e-07  Tolerance :   1.0000e-05
  Last Orbital Rotation      ...    1.2050e-06  Tolerance :   1.0000e-05

             **** THE GBW FILE WAS UPDATED (20-82_DFT_A.gbw) ****
             **** DENSITY FILE WAS UPDATED (20-82_DFT_A.scfp.tmp) ****
             **** ENERGY FILE WAS UPDATED (20-82_DFT_A.en.tmp) ****
----------------
ORBITAL ENERGIES
----------------

  NO   OCC          E(Eh)            E(eV) 
   0   2.0000     -19.226850      -523.1892 
   1   2.0000     -10.304425      -280.3976 
   2   2.0000      -1.155201       -31.4346 
   3   2.0000      -0.799617       -21.7587 
   4   2.0000      -0.623689       -16.9714 
   5   2.0000      -0.547658       -14.9025 
   6   2.0000      -0.538290       -14.6476 
   7   2.0000      -0.434697       -11.8287 
   8   2.0000      -0.372752       -10.1431 
   9   0.0000       0.086517         2.3543 
  10   0.0000       0.117693         3.2026 
  11   0.0000       0.157311         4.2807 
  12   0.0000       0.176897         4.8136 
  13   0.0000       0.198002         5.3879 
  14   0.0000       0.205440         5.5903 
  15   0.0000       0.209008         5.6874 
  16   0.0000       0.214446         5.8354 
  17   0.0000       0.236492         6.4353 
  18   0.0000       0.267216         7.2713 
  19   0.0000       0.309629         8.4254 
  20   0.0000       0.328424         8.9369 
  21   0.0000       0.338535         9.2120 
  22   0.0000       0.359695         9.7878 
  23   0.0000       0.370999        10.0954 
  24   0.0000       0.416853        11.3431 
  25   0.0000       0.453603        12.3432 
  26   0.0000       0.470549        12.8043 
  27   0.0000       0.492079        13.3902 
  28   0.0000       0.516741        14.0612 
  29   0.0000       0.531189        14.4544 
  30   0.0000       0.555610        15.1189 
  31   0.0000       0.563344        15.3294 
  32   0.0000       0.569552        15.4983 
  33   0.0000       0.612734        16.6733 
  34   0.0000       0.623842        16.9756 
  35   0.0000       0.679149        18.4806 
  36   0.0000       0.689981        18.7753 
  37   0.0000       0.728110        19.8129 
  38   0.0000       0.767833        20.8938 
  39   0.0000       0.789450        21.4820 
  40   0.0000       0.803329        21.8597 
  41   0.0000       0.831543        22.6274 
  42   0.0000       0.869832        23.6693 
  43   0.0000       0.914093        24.8737 
  44   0.0000       0.984421        26.7875 
  45   0.0000       1.036330        28.2000 
  46   0.0000       1.073213        29.2036 
  47   0.0000       1.122845        30.5542 
  48   0.0000       1.149912        31.2907 
  49   0.0000       1.161412        31.6036 
  50   0.0000       1.176936        32.0261 
  51   0.0000       1.195652        32.5353 
  52   0.0000       1.217077        33.1183 
  53   0.0000       1.351687        36.7813 
  54   0.0000       1.374494        37.4019 
  55   0.0000       1.400806        38.1179 
  56   0.0000       1.461176        39.7606 
  57   0.0000       1.494834        40.6765 
  58   0.0000       1.543058        41.9887 
  59   0.0000       1.554261        42.2936 
  60   0.0000       1.604080        43.6492 
  61   0.0000       1.642824        44.7035 
  62   0.0000       1.655173        45.0395 
  63   0.0000       1.672927        45.5227 
  64   0.0000       1.719001        46.7764 
  65   0.0000       1.795273        48.8519 
  66   0.0000       1.811638        49.2972 
  67   0.0000       1.930003        52.5180 
  68   0.0000       1.940547        52.8050 
  69   0.0000       1.967083        53.5271 
  70   0.0000       2.030442        55.2511 
  71   0.0000       2.074781        56.4577 
  72   0.0000       2.100399        57.1548 
  73   0.0000       2.105301        57.2881 
  74   0.0000       2.179695        59.3125 
  75   0.0000       2.209892        60.1342 
  76   0.0000       2.234843        60.8132 
  77   0.0000       2.255490        61.3750 
  78   0.0000       2.266884        61.6851 
  79   0.0000       2.312334        62.9218 
  80   0.0000       2.320488        63.1437 
  81   0.0000       2.393890        65.1410 
  82   0.0000       2.454841        66.7996 
  83   0.0000       2.473015        67.2941 
  84   0.0000       2.521138        68.6036 
  85   0.0000       2.532487        68.9125 
  86   0.0000       2.579196        70.1835 
  87   0.0000       2.589647        70.4679 
  88   0.0000       2.644198        71.9523 
  89   0.0000       2.650788        72.1316 
  90   0.0000       2.671222        72.6876 
  91   0.0000       2.704321        73.5883 
  92   0.0000       2.811214        76.4970 
  93   0.0000       2.861531        77.8662 
  94   0.0000       2.875250        78.2395 
  95   0.0000       2.902997        78.9946 
  96   0.0000       2.975979        80.9805 
  97   0.0000       2.983297        81.1796 
  98   0.0000       3.059263        83.2468 
  99   0.0000       3.118798        84.8668 
 100   0.0000       3.132378        85.2363 
 101   0.0000       3.166771        86.1722 
 102   0.0000       3.184767        86.6619 
 103   0.0000       3.230242        87.8993 
 104   0.0000       3.288814        89.4932 
 105   0.0000       3.324084        90.4529 
 106   0.0000       3.338946        90.8573 
 107   0.0000       3.394958        92.3815 
 108   0.0000       3.407541        92.7239 
 109   0.0000       3.494068        95.0784 
 110   0.0000       3.564125        96.9848 
 111   0.0000       3.645158        99.1898 
 112   0.0000       3.652164        99.3804 
 113   0.0000       3.656645        99.5024 
 114   0.0000       3.668477        99.8243 
 115   0.0000       3.681341       100.1744 
 116   0.0000       3.764575       102.4393 
 117   0.0000       4.055580       110.3579 
 118   0.0000       4.076747       110.9339 
 119   0.0000       4.090800       111.3163 
 120   0.0000       4.255609       115.8010 
 121   0.0000       4.275213       116.3345 
 122   0.0000       4.294041       116.8468 
 123   0.0000       4.357317       118.5686 
 124   0.0000       4.375251       119.0566 
 125   0.0000       4.437053       120.7384 
 126   0.0000       4.515930       122.8847 
 127   0.0000       4.533033       123.3501 
 128   0.0000       4.538285       123.4930 
 129   0.0000       4.554836       123.9434 
 130   0.0000       4.611403       125.4827 
 131   0.0000       5.043447       137.2392 
 132   0.0000       5.098636       138.7409 
 133   0.0000       5.134620       139.7201 
 134   0.0000       5.311024       144.5203 
 135   0.0000       5.386036       146.5615 
 136   0.0000       5.434139       147.8704 
 137   0.0000       5.481182       149.1505 
 138   0.0000       5.579247       151.8190 
 139   0.0000       5.709411       155.3610 
 140   0.0000       5.828330       158.5969 
 141   0.0000       5.893923       160.3818 
 142   0.0000       5.911881       160.8704 
 143   0.0000       6.058930       164.8719 
 144   0.0000       6.111277       166.2963 
 145   0.0000       6.432840       175.0465 
 146   0.0000       6.544189       178.0764 
 147   0.0000       6.648400       180.9122 
 148   0.0000       6.788725       184.7306 
 149   0.0000       6.796895       184.9529 
 150   0.0000       6.814625       185.4354 
 151   0.0000       6.834731       185.9825 
 152   0.0000       7.033173       191.3824 
 153   0.0000       7.070964       192.4107 
 154   0.0000       7.255315       197.4272 
 155   0.0000       7.262891       197.6333 
 156   0.0000       7.455118       202.8641 
 157   0.0000       8.089011       220.1132 
 158   0.0000       8.879686       241.6286 
 159   0.0000       9.341934       254.2069 
 160   0.0000       9.545694       259.7515 
 161   0.0000       9.553795       259.9720 
 162   0.0000       9.790200       266.4049 
 163   0.0000       9.881089       268.8781 
[...]
  82   0.0000       2.427695        66.0609 
  83   0.0000       2.453733        66.7695 
  84   0.0000       2.490579        67.7721 
  85   0.0000       2.542328        69.1803 
  86   0.0000       2.573652        70.0326 
  87   0.0000       2.593490        70.5724 
  88   0.0000       2.666749        72.5659 
  89   0.0000       2.677703        72.8640 
  90   0.0000       2.711172        73.7747 
  91   0.0000       2.736462        74.4629 
  92   0.0000       2.811564        76.5065 
  93   0.0000       2.830228        77.0144 
  94   0.0000       2.872766        78.1719 
  95   0.0000       2.921849        79.5075 
  96   0.0000       2.932466        79.7965 
  97   0.0000       2.974716        80.9461 
  98   0.0000       3.044839        82.8543 
  99   0.0000       3.099004        84.3282 
 100   0.0000       3.137666        85.3802 
 101   0.0000       3.157642        85.9238 
 102   0.0000       3.163380        86.0800 
 103   0.0000       3.211120        87.3790 
 104   0.0000       3.237399        88.0941 
 105   0.0000       3.285189        89.3945 
 106   0.0000       3.310079        90.0718 
 107   0.0000       3.338690        90.8504 
 108   0.0000       3.365973        91.5928 
 109   0.0000       3.442467        93.6743 
 110   0.0000       3.508928        95.4828 
 111   0.0000       3.595246        97.8316 
 112   0.0000       3.645765        99.2063 
 113   0.0000       3.651943        99.3744 
 114   0.0000       3.689571       100.3983 
 115   0.0000       3.715634       101.1076 
 116   0.0000       3.743119       101.8554 
 117   0.0000       4.047147       110.1285 
 118   0.0000       4.087898       111.2374 
 119   0.0000       4.166217       113.3685 
 120   0.0000       4.213555       114.6567 
 121   0.0000       4.266708       116.1030 
 122   0.0000       4.302528       117.0777 
 123   0.0000       4.351416       118.4081 
 124   0.0000       4.375026       119.0505 
 125   0.0000       4.383407       119.2786 
 126   0.0000       4.503826       122.5553 
 127   0.0000       4.529637       123.2577 
 128   0.0000       4.535633       123.4209 
 129   0.0000       4.555215       123.9537 
 130   0.0000       4.616826       125.6302 
 131   0.0000       5.054879       137.5503 
 132   0.0000       5.097628       138.7135 
 133   0.0000       5.132339       139.6580 
 134   0.0000       5.374485       146.2472 
 135   0.0000       5.384401       146.5170 
 136   0.0000       5.491325       149.4266 
 137   0.0000       5.491907       149.4424 
 138   0.0000       5.523520       150.3026 
 139   0.0000       5.763847       156.8422 
 140   0.0000       5.817234       158.2950 
 141   0.0000       5.838502       158.8737 
 142   0.0000       6.030911       164.1094 
 143   0.0000       6.045078       164.4949 
 144   0.0000       6.117424       166.4636 
 145   0.0000       6.328056       172.1952 
 146   0.0000       6.524884       177.5511 
 147   0.0000       6.653330       181.0463 
 148   0.0000       6.768477       184.1796 
 149   0.0000       6.779540       184.4807 
 150   0.0000       6.800628       185.0545 
 151   0.0000       6.870918       186.9672 
 152   0.0000       7.003933       190.5867 
 153   0.0000       7.151762       194.6093 
 154   0.0000       7.202100       195.9791 
 155   0.0000       7.335123       199.5988 
 156   0.0000       7.533615       205.0001 
 157   0.0000       8.298408       225.8112 
 158   0.0000       8.885403       241.7841 
 159   0.0000       9.337642       254.0902 
 160   0.0000       9.548981       259.8410 
 161   0.0000       9.555731       260.0247 
 162   0.0000       9.795803       266.5573 
 163   0.0000       9.875300       268.7206 
 164   0.0000       9.960771       271.0464 
 165   0.0000      10.130632       275.6685 
 166   0.0000      11.239820       305.8510 
 167   0.0000      19.092424       519.5313 
 168   0.0000      22.450433       610.9073 
 169   0.0000      43.675545      1188.4720 
 170   0.0000      66.080291      1798.1361 
 171   0.0000     126.409028      3439.7645 

                    ********************************
                    * MULLIKEN POPULATION ANALYSIS *
                    ********************************

-----------------------
MULLIKEN ATOMIC CHARGES
-----------------------
   0 C :   -0.000393
   1 O :    0.000001
   2 H :   -0.000063
   3 H :    0.000004
   4 H :    0.000039
   5 H :   -0.000011
   6 C :   -0.181371
   7 O :   -0.457109
   8 H :    0.318628
   9 H :    0.103398
  10 H :    0.095374
  11 H :    0.121504
Sum of atomic charges:   -0.0000000

--------------------------------
MULLIKEN REDUCED ORBITAL CHARGES
--------------------------------
  0 C s       :     0.000102  s :     0.000102
      pz      :     0.000068  p :     0.000295
      px      :     0.000253
      py      :    -0.000026
      dz2     :     0.000000  d :    -0.000004
      dxz     :    -0.000003
      dyz     :    -0.000000
      dx2y2   :    -0.000002
      dxy     :    -0.000000
      f0      :     0.000000  f :    -0.000000
      f+1     :     0.000000
      f-1     :    -0.000000
      f+2     :     0.000000
      f-2     :    -0.000000
      f+3     :    -0.000000
      f-3     :    -0.000000
  1 O s       :    -0.000012  s :    -0.000012
      pz      :     0.000027  p :     0.000011
      px      :    -0.000004
      py      :    -0.000012
      dz2     :     0.000000  d :    -0.000001
      dxz     :    -0.000000
      dyz     :    -0.000000
      dx2y2   :    -0.000000
      dxy     :     0.000000
      f0      :    -0.000000  f :    -0.000000
      f+1     :    -0.000000
      f-1     :    -0.000000
      f+2     :    -0.000000
      f-2     :    -0.000000
      f+3     :    -0.000000
      f-3     :     0.000000
  2 H s       :     0.000063  s :     0.000063
      pz      :     0.000000  p :    -0.000000
      px      :    -0.000000
      py      :    -0.000000
  3 H s       :    -0.000004  s :    -0.000004
      pz      :     0.000000  p :    -0.000000
      px      :    -0.000000
      py      :     0.000000
  4 H s       :    -0.000039  s :    -0.000039
      pz      :    -0.000000  p :     0.000000
      px      :     0.000000
      py      :     0.000000
  5 H s       :     0.000011  s :     0.000011
      pz      :    -0.000000  p :    -0.000000
      px      :    -0.000000
      py      :     0.000000
  6 C s       :     3.218461  s :     3.218461
      pz      :     0.977037  p :     2.856437
      px      :     0.870523
      py      :     1.008878
      dz2     :     0.015856  d :     0.098849
      dxz     :     0.022945
      dyz     :     0.017681
      dx2y2   :     0.021319
      dxy     :     0.021049
      f0      :     0.000310  f :     0.007623
      f+1     :     0.001544
      f-1     :     0.000300
      f+2     :     0.002007
      f-2     :     0.001451
      f+3     :     0.001286
      f-3     :     0.000727
  7 O s       :     3.807957  s :     3.807957
      pz      :     1.529958  p :     4.615554
      px      :     1.251319
      py      :     1.834277
      dz2     :     0.004702  d :     0.031979
      dxz     :     0.015136
      dyz     :     0.004515
      dx2y2   :     0.003870
      dxy     :     0.003756
      f0      :     0.000061  f :     0.001618
      f+1     :     0.000260
      f-1     :     0.000080
      f+2     :     0.000475
      f-2     :     0.000219
      f+3     :     0.000278
      f-3     :     0.000245
  8 H s       :     0.634760  s :     0.634760
      pz      :     0.014963  p :     0.046612
      px      :     0.015347
      py      :     0.016301
  9 H s       :     0.877317  s :     0.877317
      pz      :     0.005754  p :     0.019285
      px      :     0.003040
      py      :     0.010492
 10 H s       :     0.885586  s :     0.885586
      pz      :     0.007852  p :     0.019040
      px      :     0.004413
      py      :     0.006775
 11 H s       :     0.857098  s :     0.857098
      pz      :     0.006054  p :     0.021398
      px      :     0.010245
      py      :     0.005100


                     *******************************
                     * LOEWDIN POPULATION ANALYSIS *
                     *******************************

----------------------
LOEWDIN ATOMIC CHARGES
----------------------
   0 C :   -0.000574
   1 O :   -0.000081
   2 H :   -0.000105
   3 H :   -0.000112
   4 H :   -0.000038
   5 H :   -0.000014
   6 C :   -0.408964
   7 O :   -0.063103
   8 H :    0.179227
   9 H :    0.094752
  10 H :    0.097929
  11 H :    0.101085

-------------------------------
LOEWDIN REDUCED ORBITAL CHARGES
-------------------------------
  0 C s       :     0.000064  s :     0.000064
      pz      :     0.000154  p :     0.000506
      px      :     0.000347
      py      :     0.000004
      dz2     :     0.000000  d :     0.000005
      dxz     :     0.000003
      dyz     :     0.000000
      dx2y2   :     0.000000
      dxy     :     0.000000
      f0      :     0.000000  f :     0.000000
      f+1     :     0.000000
      f-1     :     0.000000
      f+2     :     0.000000
      f-2     :     0.000000
      f+3     :     0.000000
      f-3     :     0.000000
  1 O s       :     0.000002  s :     0.000002
      pz      :     0.000047  p :     0.000078
      px      :     0.000029
      py      :     0.000003
      dz2     :     0.000000  d :     0.000001
      dxz     :     0.000000
      dyz     :     0.000000
      dx2y2   :     0.000000
      dxy     :     0.000000
      f0      :     0.000000  f :     0.000000
      f+1     :     0.000000
      f-1     :     0.000000
      f+2     :     0.000000
      f-2     :     0.000000
      f+3     :     0.000000
      f-3     :     0.000000
  2 H s       :     0.000105  s :     0.000105
      pz      :     0.000000  p :     0.000000
      px      :     0.000000
      py      :     0.000000
  3 H s       :     0.000111  s :     0.000111
      pz      :     0.000000  p :     0.000000
      px      :     0.000000
      py      :     0.000000
  4 H s       :     0.000038  s :     0.000038
      pz      :     0.000000  p :     0.000000
      px      :     0.000000
      py      :     0.000000
  5 H s       :     0.000014  s :     0.000014
      pz      :     0.000000  p :     0.000000
      px      :     0.000000
      py      :     0.000000
  6 C s       :     2.852412  s :     2.852412
      pz      :     1.048295  p :     3.068640
      px      :     0.950748
      py      :     1.069596
      dz2     :     0.047812  d :     0.430200
      dxz     :     0.118834
      dyz     :     0.090640
      dx2y2   :     0.097719
      dxy     :     0.075195
      f0      :     0.006210  f :     0.057713
      f+1     :     0.011012
      f-1     :     0.003602
      f+2     :     0.008904
      f-2     :     0.008904
      f+3     :     0.011228
      f-3     :     0.007852
  7 O s       :     3.373507  s :     3.373507
      pz      :     1.564618  p :     4.611827
      px      :     1.295375
      py      :     1.751834
      dz2     :     0.008963  d :     0.072823
      dxz     :     0.031836
      dyz     :     0.007143
      dx2y2   :     0.013699
      dxy     :     0.011183
      f0      :     0.000312  f :     0.004946
      f+1     :     0.001428
      f-1     :     0.000159
      f+2     :     0.001201
      f-2     :     0.000750
      f+3     :     0.000595
      f-3     :     0.000500
  8 H s       :     0.666380  s :     0.666380
      pz      :     0.059991  p :     0.154393
      px      :     0.050358
      py      :     0.044044
  9 H s       :     0.844776  s :     0.844776
      pz      :     0.017794  p :     0.060472
      px      :     0.010587
      py      :     0.032092
 10 H s       :     0.845566  s :     0.845566
      pz      :     0.023135  p :     0.056506
      px      :     0.012983
      py      :     0.020388
 11 H s       :     0.833728  s :     0.833728
      pz      :     0.019596  p :     0.065187
      px      :     0.030105
      py      :     0.015486


                      *****************************
                      * MAYER POPULATION ANALYSIS *
                      *****************************

  NA   - Mulliken gross atomic population
  ZA   - Total nuclear charge
  QA   - Mulliken gross atomic charge
  VA   - Mayer's total valence
  BVA  - Mayer's bonded valence
  FA   - Mayer's free valence

  ATOM       NA         ZA         QA         VA         BVA        FA
  0 C      0.0004     0.0000    -0.0004     0.0008     0.0008     0.0000
  1 O     -0.0000     0.0000     0.0000    -0.0000    -0.0000    -0.0000
  2 H      0.0001     0.0000    -0.0001     0.0001     0.0001    -0.0000
  3 H     -0.0000     0.0000     0.0000    -0.0000    -0.0000    -0.0000
  4 H     -0.0000     0.0000     0.0000    -0.0001    -0.0001    -0.0000
  5 H      0.0000     0.0000    -0.0000     0.0000     0.0000     0.0000
  6 C      6.1814     6.0000    -0.1814     3.9398     3.9398    -0.0000
  7 O      8.4571     8.0000    -0.4571     1.9054     1.9054    -0.0000
  8 H      0.6814     1.0000     0.3186     0.9090     0.9090     0.0000
  9 H      0.8966     1.0000     0.1034     0.9591     0.9591    -0.0000
 10 H      0.9046     1.0000     0.0954     0.9538     0.9538     0.0000
 11 H      0.8785     1.0000     0.1215     0.9569     0.9569    -0.0000

  Mayer bond orders larger than 0.1
B(  6-C ,  7-O ) :   1.0062 B(  6-C ,  9-H ) :   0.9771 B(  6-C , 10-H ) :   0.9742 
B(  6-C , 11-H ) :   0.9747 B(  7-O ,  8-H ) :   0.9010 

-------
TIMINGS
-------

Total SCF time: 0 days 0 hours 0 min 12 sec 

Total time                  ....      12.720 sec
Sum of individual times     ....      12.414 sec  ( 97.6%)

Fock matrix formation       ....      11.806 sec  ( 92.8%)
  XC integration            ....       4.936 sec  ( 41.8% of F)
    Basis function eval.    ....       0.058 sec  (  1.2% of XC)
    Density eval.           ....       0.067 sec  (  1.4% of XC)
    XC-Functional eval.     ....       0.094 sec  (  1.9% of XC)
    XC-Potential eval.      ....       0.058 sec  (  1.2% of XC)
Diagonalization             ....       0.075 sec  (  0.6%)
Density matrix formation    ....       0.006 sec  (  0.0%)
Population analysis         ....       0.019 sec  (  0.1%)
Initial guess               ....       0.100 sec  (  0.8%)
Orbital Transformation      ....       0.000 sec  (  0.0%)
Orbital Orthonormalization  ....       0.000 sec  (  0.0%)
DIIS solution               ....       0.048 sec  (  0.4%)
SOSCF solution              ....       0.054 sec  (  0.4%)
Grid generation             ....       0.306 sec  (  2.4%)


-------------------------------------------------------------------------------
                          DFT DISPERSION CORRECTION                            
                                                                               
                              DFTD3 V3.1  Rev 1                                
                              USING zero damping                               
-------------------------------------------------------------------------------
The omegaB97X-D3 functional is recognized. Fit by Chai et al.
Active option DFTDOPT                   ...         3   

molecular C6(AA) [au] = 208.661310 


            DFT-D V3
 parameters
 s6 scaling factor         :     1.0000 
 rs6 scaling factor        :     1.2810 
 s8 scaling factor         :     1.0000 
 rs8 scaling factor        :     1.0940 
 Damping factor alpha6     :    14.0000 
 Damping factor alpha8     :    16.0000 
 ad hoc parameters k1-k3   :    16.0000     1.3333    -4.0000 

 Edisp/kcal,au: -0.148607368973  -0.000236820892 
 E6   /kcal   :  -0.028272880 
 E8   /kcal   :  -0.120334489 
 % E8         :  80.974779029 

-------------------------   ----------------
Dispersion correction           -0.000236821
-------------------------   ----------------


-------------------------   --------------------
FINAL SINGLE POINT ENERGY      -115.732254357988
-------------------------   --------------------


                            ***************************************
                            *     ORCA property calculations      *
                            ***************************************

                                    ---------------------
                                    Active property flags
                                    ---------------------
   (+) Dipole Moment


------------------------------------------------------------------------------
                       ORCA ELECTRIC PROPERTIES CALCULATION
------------------------------------------------------------------------------

Dipole Moment Calculation                       ... on
Quadrupole Moment Calculation                   ... off
Polarizability Calculation                      ... off
GBWName                                         ... 20-82_DFT_B.gbw
Electron density file                           ... 20-82_DFT_B.scfp.tmp
The origin for moment calculation is the CENTER OF MASS  = ( 2.659184, -6.586412 -4.991268)

-------------
DIPOLE MOMENT
-------------
                                X             Y             Z
Electronic contribution:     -1.45319      -0.62121      -1.24517
Nuclear contribution   :      1.43209       0.86379       1.89608
                        -----------------------------------------
Total Dipole Moment    :     -0.02110       0.24258       0.65091
                        -----------------------------------------
Magnitude (a.u.)       :      0.69496
Magnitude (Debye)      :      1.76646



--------------------
Rotational spectrum 
--------------------
 
Rotational constants in cm-1:     4.398267     0.836789     0.807690 
Rotational constants in MHz : 131856.716097 25086.308483 24213.926377 

 Dipole components along the rotational axes: 
x,y,z [a.u.] :     0.381080    -0.577804     0.062413 
x,y,z [Debye]:     0.968628    -1.468662     0.158642 

 
------------------------------------------------------------------------------
                      ORCA CHELPG CHARGES GENERATION
------------------------------------------------------------------------------

GBW file                           ... 20-82_DFT_B.gbw

Reading the GBW file               ... done

Grid spacing                       ...     0.300000
Point Cut-Off                      ...     2.800000
Van-der-Waals Radii                ...        COSMO
Total charge                       ...            0


Number of points X direction       ...           40
Number of points Y direction       ...           27
Number of points Z direction       ...           30
Maximum number of possible points  ...        32400
Final number of points             ...         5889


CHELPG Charges            
--------------------------------
  0   C   :       0.034313
  1   O   :      -0.013457
  2   H   :       0.013125
  3   H   :      -0.006619
  4   H   :      -0.010587
  5   H   :      -0.020869
  6   C   :       0.132718
  7   O   :      -0.580133
  8   H   :       0.389193
  9   H   :      -0.006775
 10   H   :      -0.003300
 11   H   :       0.072392
--------------------------------
Total charge:    -0.000000
--------------------------------

CHELPG charges calculated...

Timings for individual parts in CHELPG calculation:
Grid generation                 ...        0.001 sec (=   0.000 min)
Potential calculation           ...        1.095 sec (=   0.018 min)
Fit to the potential            ...        0.002 sec (=   0.000 min)
------------------------------------------------------------------------------


Timings for individual modules:

Sum of individual times         ...       14.908 sec (=   0.248 min)
GTO integral calculation        ...        0.676 sec (=   0.011 min)   4.5 %
SCF iterations                  ...       13.102 sec (=   0.218 min)  87.9 %
CHELPG charge generation        ...        1.130 sec (=   0.019 min)   7.6 %



                             ****ORCA TERMINATED NORMALLY****
TOTAL RUN TIME: 0 days 0 hours 0 minutes 56 seconds 262 msec
