
                                 *****************
                                 * O   R   C   A *
                                 *****************

           --- An Ab Initio, DFT and Semiempirical electronic structure package ---

                  #######################################################
                  #                        -***-                        #
                  #          Department of theory and spectroscopy      #
                  #               Directorship: Frank Neese             #
                  #        Max Planck Institute fuer Kohlenforschung    #
                  #                Kaiser Wilhelm Platz 1               #
                  #                 D-45470 Muelheim/Ruhr               #
                  #                      Germany                        #
                  #                                                     #
                  #                  All rights reserved                #
                  #                        -***-                        #
                  #######################################################


                         Program Version 4.1.2  - RELEASE  -


 With contributions from (in alphabetic order):
   Daniel Aravena         : Magnetic Properties
   Michael Atanasov       : Ab Initio Ligand Field Theory
   Alexander A. Auer      : GIAO ZORA
   Ute Becker             : Parallelization
   Giovanni Bistoni       : ED, Open-shell LED
   Martin Brehm           : Molecular dynamics
   Dmytro Bykov           : SCF Hessian
   Vijay G. Chilkuri      : MRCI spin determinant printing
   Dipayan Datta          : RHF DLPNO-CCSD density
   Achintya Kumar Dutta   : EOM-CC, STEOM-CC
   Dmitry Ganyushin       : Spin-Orbit,Spin-Spin,Magnetic field MRCI
   Miquel Garcia          : C-PCM Hessian
   Yang Guo               : DLPNO-NEVPT2, CIM, IAO-localization
   Andreas Hansen         : Spin unrestricted coupled pair/coupled cluster methods
   Benjamin Helmich-Paris : CASSCF linear response (MC-RPA)
   Lee Huntington         : MR-EOM, pCC
   Robert Izsak           : Overlap fitted RIJCOSX, COSX-SCS-MP3, EOM
   Christian Kollmar      : KDIIS, OOCD, Brueckner-CCSD(T), CCSD density
   Simone Kossmann        : Meta GGA functionals, TD-DFT gradient, OOMP2, MP2 Hessian
   Martin Krupicka        : AUTO-CI
   Lucas Lang             : DCDCAS
   Dagmar Lenk            : GEPOL surface, SMD
   Dimitrios Liakos       : Extrapolation schemes; parallel MDCI
   Dimitrios Manganas     : ROCIS; embedding schemes
   Dimitrios Pantazis     : SARC Basis sets
   Taras Petrenko         : DFT Hessian,TD-DFT gradient, ASA, ECA, R-Raman, ABS, FL, XAS/XES, NRVS
   Peter Pinski           : DLPNO-MP2, DLPNO-MP2 Gradient
   Christoph Reimann      : Effective Core Potentials
   Marius Retegan         : Local ZFS, SOC
   Christoph Riplinger    : Optimizer, TS searches, QM/MM, DLPNO-CCSD(T), (RO)-DLPNO pert. Triples
   Tobias Risthaus        : Range-separated hybrids, TD-DFT gradient, RPA, STAB
   Michael Roemelt        : Restricted open shell CIS
   Masaaki Saitow         : Open-shell DLPNO
   Barbara Sandhoefer     : DKH picture change effects
   Avijit Sen             : IP-ROCIS
   Kantharuban Sivalingam : CASSCF convergence, NEVPT2, FIC-MRCI
   Bernardo de Souza      : ESD, SOC TD-DFT
   Georgi Stoychev        : AutoAux, RI-MP2 NMR
   Willem Van den Heuvel  : Paramagnetic NMR
   Boris Wezisla          : Elementary symmetry handling
   Frank Wennmohs         : Technical directorship


 We gratefully acknowledge several colleagues who have allowed us to
 interface, adapt or use parts of their codes:
   Stefan Grimme, W. Hujo, H. Kruse,             : VdW corrections, initial TS optimization,
                  C. Bannwarth                     DFT functionals, gCP, sTDA/sTD-DF
   Ed Valeev                                     : LibInt (2-el integral package), F12 methods
   Garnet Chan, S. Sharma, J. Yang, R. Olivares  : DMRG
   Ulf Ekstrom                                   : XCFun DFT Library
   Mihaly Kallay                                 : mrcc  (arbitrary order and MRCC methods)
   Andreas Klamt, Michael Diedenhofen            : otool_cosmo (COSMO solvation model)
   Jiri Pittner, Ondrej Demel                    : Mk-CCSD
   Frank Weinhold                                : gennbo (NPA and NBO analysis)
   Christopher J. Cramer and Donald G. Truhlar   : smd solvation model
   Lars Goerigk                                  : TD-DFT with DH, B97 family of functionals
   V. Asgeirsson, H. Jonsson                     : NEB implementation
   FAccTs GmbH                                   : IRC, NEB, NEB-TS, Multilevel


 Your calculation uses the libint2 library for the computation of 2-el integrals
 For citations please refer to: http://libint.valeyev.net

 This ORCA versions uses:
   CBLAS   interface :  Fast vector & matrix operations
   LAPACKE interface :  Fast linear algebra routines
   SCALAPACK package :  Parallel linear algebra routines


Your calculation utilizes the atom-pairwise dispersion correction
with the zero-damping scheme (D30)
Cite in your paper:
S.Grimme, J.Antony, S.Ehrlich and H.Krieg, J.Chem.Phys., 132, (2010), 154104 
   

XCFun DFT library Copyright 2009-2010 Ulf Ekstrom and contributors.
See http://admol.org/xcfun for more information. This is free soft-
ware; see the source code for copying conditions. There is ABSOLUTELY
NO WARRANTY; not even for MERCHANTABILITY or FITNESS FOR A PARTICULAR
PURPOSE. For details see the documentation. Scientific users of this 
library should cite U. Ekstrom, L. Visscher, R. Bast, A. J. Thorvald-
sen and K. Ruud; J.Chem.Theor.Comp. 2010, DOI: 10.1021/ct100117s
XCFun Version 0.99 
----- Orbital basis set information -----
Your calculation utilizes the basis: def2-TZVP
   F. Weigend and R. Ahlrichs, Phys. Chem. Chem. Phys. 7, 3297 (2005).

================================================================================
                                        WARNINGS
                       Please study these warnings very carefully!
================================================================================


INFO   : the flag for use of LIBINT has been found!

Your calculation utilizes the atom-pairwise dispersion correction
with the zero-damping scheme (D30)
Cite in your paper:
S.Grimme, J.Antony, S.Ehrlich and H.Krieg, J.Chem.Phys., 132, (2010), 154104 
   

XCFun DFT library Copyright 2009-2010 Ulf Ekstrom and contributors.
See http://admol.org/xcfun for more information. This is free soft-
ware; see the source code for copying conditions. There is ABSOLUTELY
NO WARRANTY; not even for MERCHANTABILITY or FITNESS FOR A PARTICULAR
PURPOSE. For details see the documentation. Scientific users of this 
library should cite U. Ekstrom, L. Visscher, R. Bast, A. J. Thorvald-
sen and K. Ruud; J.Chem.Theor.Comp. 2010, DOI: 10.1021/ct100117s
XCFun Version 0.99 
----- Orbital basis set information -----
Your calculation utilizes the basis: def2-TZVP
   F. Weigend and R. Ahlrichs, Phys. Chem. Chem. Phys. 7, 3297 (2005).

================================================================================
                                        WARNINGS
                       Please study these warnings very carefully!
================================================================================


WARNING: MOInp is set but Guess=PModel. MOInp will be ignored!
         To read the initial guess from a file you must also specify
         'MORead' in the simple input or 'Guess MORead' in the %scf block


INFO   : the flag for use of LIBINT has been found!

Your calculation utilizes the atom-pairwise dispersion correction
with the zero-damping scheme (D30)
Cite in your paper:
S.Grimme, J.Antony, S.Ehrlich and H.Krieg, J.Chem.Phys., 132, (2010), 154104 
   

XCFun DFT library Copyright 2009-2010 Ulf Ekstrom and contributors.
See http://admol.org/xcfun for more information. This is free soft-
ware; see the source code for copying conditions. There is ABSOLUTELY
NO WARRANTY; not even for MERCHANTABILITY or FITNESS FOR A PARTICULAR
PURPOSE. For details see the documentation. Scientific users of this 
library should cite U. Ekstrom, L. Visscher, R. Bast, A. J. Thorvald-
sen and K. Ruud; J.Chem.Theor.Comp. 2010, DOI: 10.1021/ct100117s
XCFun Version 0.99 
----- Orbital basis set information -----
Your calculation utilizes the basis: def2-TZVP
   F. Weigend and R. Ahlrichs, Phys. Chem. Chem. Phys. 7, 3297 (2005).

================================================================================
                                        WARNINGS
                       Please study these warnings very carefully!
================================================================================


WARNING: MOInp is set but Guess=PModel. MOInp will be ignored!
         To read the initial guess from a file you must also specify
         'MORead' in the simple input or 'Guess MORead' in the %scf block


INFO   : the flag for use of LIBINT has been found!

================================================================================
                                       INPUT FILE
================================================================================
NAME = 19-171.in
|  1> #Run DFT-D3 single point of the dimer
|  2> ! wB97X-D3 def2-TZVP TIGHTSCF CHELPG PMODEL PAL8
|  3> 
|  4> %base "19-171_DFT_AB"
|  5> 
|  6> %scf
|  7> MaxIter 1000
|  8> end
|  9> 
| 10> * xyz 0 1
| 11>   C                      -2.906077            0.377006             -8.148405           
| 12>   O                      -1.989494            1.235935             -7.461935           
| 13>   H                      -2.399023            1.249863             -6.599244           
| 14>   H                      -3.340453            -0.457180            -7.600596           
| 15>   H                      -3.818018            0.871088             -8.437188           
| 16>   H                      -2.566180            -0.111384            -9.125792           
| 17>   C                      -2.016624            2.634609             -4.850103           
| 18>   O                      -2.856557            1.560374             -4.670585           
| 19>   H                      -2.979499            1.629369             -3.730284           
| 20>   H                      -1.816031            2.931660             -5.920906           
| 21>   H                      -2.354388            3.592985             -4.373275           
| 22>   H                      -1.068017            2.438966             -4.327261           
| 23> *
| 24> 
| 25> #Run DFT-D3 single point of the molecule with dimer basis set
| 26> $new_job
| 27> %base "19-171_DFT_A"
| 28> ! wB97X-D3 def2-TZVP TIGHTSCF CHELPG PMODEL
| 29> 
| 30> %scf
| 31> MaxIter 1000
| 32> end
| 33> 
| 34> * xyz 0 1
| 35>   C                      -2.906077            0.377006             -8.148405           
| 36>   O                      -1.989494            1.235935             -7.461935           
| 37>   H                      -2.399023            1.249863             -6.599244           
| 38>   H                      -3.340453            -0.457180            -7.600596           
| 39>   H                      -3.818018            0.871088             -8.437188           
| 40>   H                      -2.566180            -0.111384            -9.125792           
| 41>   C                    : -2.016624            2.634609             -4.850103           
| 42>   O                    : -2.856557            1.560374             -4.670585           
| 43>   H                    : -2.979499            1.629369             -3.730284           
| 44>   H                    : -1.816031            2.931660             -5.920906           
| 45>   H                    : -2.354388            3.592985             -4.373275           
| 46>   H                    : -1.068017            2.438966             -4.327261           
| 47> *
| 48> 
| 49> #Run DFT-D3 single point of the particle with dimer basis set
| 50> $new_job
| 51> %base "19-171_DFT_B"
| 52> ! wB97X-D3 def2-TZVP TIGHTSCF CHELPG PMODEL
| 53> 
| 54> %scf
| 55> MaxIter 1000
| 56> end
| 57> 
| 58> * xyz 0 1
| 59>   C                    : -2.906077            0.377006             -8.148405           
| 60>   O                    : -1.989494            1.235935             -7.461935           
| 61>   H                    : -2.399023            1.249863             -6.599244           
| 62>   H                    : -3.340453            -0.457180            -7.600596           
| 63>   H                    : -3.818018            0.871088             -8.437188           
| 64>   H                    : -2.566180            -0.111384            -9.125792           
| 65>   C                      -2.016624            2.634609             -4.850103           
| 66>   O                      -2.856557            1.560374             -4.670585           
| 67>   H                      -2.979499            1.629369             -3.730284           
| 68>   H                      -1.816031            2.931660             -5.920906           
| 69>   H                      -2.354388            3.592985             -4.373275           
| 70>   H                      -1.068017            2.438966             -4.327261           
| 71> *
| 72> 
| 73>                          ****END OF INPUT****
================================================================================


                 $$$$$$$$$$$$$$$$$$$$$$$$$$$$$$$$$$$$$$$$$$$$$$ 
                 $ THERE ARE  3 JOBS TO BE PROCESSED THIS RUN $
                 $$$$$$$$$$$$$$$$$$$$$$$$$$$$$$$$$$$$$$$$$$$$$$ 




                 $$$$$$$$$$$$$$$$  JOB NUMBER  1 $$$$$$$$$$$$$$


                       ****************************
                       * Single Point Calculation *
                       ****************************

---------------------------------
CARTESIAN COORDINATES (ANGSTROEM)
---------------------------------
  C     -2.906077    0.377006   -8.148405
  O     -1.989494    1.235935   -7.461935
  H     -2.399023    1.249863   -6.599244
  H     -3.340453   -0.457180   -7.600596
  H     -3.818018    0.871088   -8.437188
  H     -2.566180   -0.111384   -9.125792
  C     -2.016624    2.634609   -4.850103
  O     -2.856557    1.560374   -4.670585
  H     -2.979499    1.629369   -3.730284
  H     -1.816031    2.931660   -5.920906
  H     -2.354388    3.592985   -4.373275
  H     -1.068017    2.438966   -4.327261

----------------------------
CARTESIAN COORDINATES (A.U.)
----------------------------
  NO LB      ZA    FRAG     MASS         X           Y           Z
   0 C     6.0000    0    12.011   -5.491690    0.712438  -15.398254
   1 O     8.0000    0    15.999   -3.759599    2.335579  -14.101014
   2 H     1.0000    0     1.008   -4.533496    2.361899  -12.470764
   3 H     1.0000    0     1.008   -6.312541   -0.863945  -14.363045
   4 H     1.0000    0     1.008   -7.215008    1.646118  -15.943975
   5 H     1.0000    0     1.008   -4.849377   -0.210485  -17.245248
   6 C     6.0000    0    12.011   -3.810867    4.978689   -9.165366
   7 O     8.0000    0    15.999   -5.398110    2.948680   -8.826127
   8 H     1.0000    0     1.008   -5.630437    3.079061   -7.049215
   9 H     1.0000    0     1.008   -3.431801    5.540035  -11.188891
  10 H     1.0000    0     1.008   -4.449149    6.789758   -8.264292
  11 H     1.0000    0     1.008   -2.018260    4.608978   -8.177338

--------------------------------
INTERNAL COORDINATES (ANGSTROEM)
--------------------------------
 C      0   0   0     0.000000000000     0.00000000     0.00000000
 O      1   0   0     1.431476330168     0.00000000     0.00000000
 H      2   1   0     0.955062172063    99.63441428     0.00000000
 H      1   2   3     1.088413291196   118.29776048   323.07072273
 H      1   2   3     1.076637836644   113.30492553    77.63954096
 H      1   2   3     1.144264003837   118.39320763   197.84673257
 C      3   2   1     2.263458574306   129.38377121   193.91214198
 O      7   3   2     1.375389032979    61.30569110   186.94400143
 H      8   7   3     0.950810715122    98.70612288   172.39370489
 H      7   3   2     1.129201449281    57.18969748    25.75296487
 H      7   3   2     1.122467825221   143.10975751    92.18944169
 H      7   3   2     1.100679417842   113.82477168   286.37866013

---------------------------
INTERNAL COORDINATES (A.U.)
---------------------------
 C      0   0   0     0.000000000000     0.00000000     0.00000000
 O      1   0   0     2.705098231207     0.00000000     0.00000000
 H      2   1   0     1.804805946067    99.63441428     0.00000000
 H      1   2   3     2.056803040881   118.29776048   323.07072273
 H      1   2   3     2.034550656675   113.30492553    77.63954096
 H      1   2   3     2.162345592157   118.39320763   197.84673257
 C      3   2   1     4.277316820914   129.38377121   193.91214198
 O      7   3   2     2.599108599928    61.30569110   186.94400143
 H      8   7   3     1.796771856778    98.70612288   172.39370489
 H      7   3   2     2.133881489169    57.18969748    25.75296487
 H      7   3   2     2.121156783806   143.10975751    92.18944169
 H      7   3   2     2.079982660966   113.82477168   286.37866013

---------------------
BASIS SET INFORMATION
---------------------
There are 3 groups of distinct atoms

 Group   1 Type C   : 11s6p2d1f contracted to 5s3p2d1f pattern {62111/411/11/1}
 Group   2 Type O   : 11s6p2d1f contracted to 5s3p2d1f pattern {62111/411/11/1}
 Group   3 Type H   : 5s1p contracted to 3s1p pattern {311/1}

Atom   0C    basis set group =>   1
Atom   1O    basis set group =>   2
Atom   2H    basis set group =>   3
Atom   3H    basis set group =>   3
Atom   4H    basis set group =>   3
Atom   5H    basis set group =>   3
Atom   6C    basis set group =>   1
Atom   7O    basis set group =>   2
Atom   8H    basis set group =>   3
Atom   9H    basis set group =>   3
Atom  10H    basis set group =>   3
Atom  11H    basis set group =>   3


           ************************************************************
           *        Program running with 8 parallel MPI-processes     *
           *              working on a common directory               *
           ************************************************************
------------------------------------------------------------------------------
                           ORCA GTO INTEGRAL CALCULATION
------------------------------------------------------------------------------

                         BASIS SET STATISTICS AND STARTUP INFO

 # of primitive gaussian shells          ...  128
 # of primitive gaussian functions       ...  248
 # of contracted shells                  ...   76
 # of contracted basis functions         ...  172
 Highest angular momentum                ...    3
 Maximum contraction depth               ...    6
 Integral package used                   ... LIBINT
 Integral threshhold            Thresh   ...  2.500e-11
 Primitive cut-off              TCut     ...  2.500e-12


------------------------------ INTEGRAL EVALUATION ----------------------------


 * One electron integrals 
 Pre-screening matrix                    ... done
 Shell pair data                         ... done (   0.001 sec)



           ************************************************************
           *        Program running with 8 parallel MPI-processes     *
           *              working on a common directory               *
           ************************************************************
-------------------------------------------------------------------------------
                                 ORCA SCF
-------------------------------------------------------------------------------

------------
SCF SETTINGS
------------
Hamiltonian:
 Density Functional     Method          .... DFT(GTOs)
 Exchange Functional    Exchange        .... WB97X-D3
 Correlation Functional Correlation     .... WB97X-D3
 Gradients option       PostSCFGGA      .... off
 Hybrid DFT is turned on
   Fraction HF Exchange ScalHFX         ....  0.195728
   Scaling of DF-GGA-X  ScalDFX         ....  0.000000
   Scaling of DF-GGA-C  ScalDFC         ....  1.000000
   Scaling of DF-LDA-C  ScalLDAC        ....  1.000000
   Perturbative correction              ....  0.000000
   Density functional embedding theory  .... OFF
 Long-range corrected/Screened/Range-Separated Hybrid DFT is turned on
   Amount of maximum screened exact exchange              ....  0.804272
   Range separation parameter mu (erf(mu*r12)/r12)        ....  0.250000


General Settings:
 Integral files         IntName         .... 19-171_DFT_AB
 Hartree-Fock type      HFTyp           .... RHF
 Total Charge           Charge          ....    0
 Multiplicity           Mult            ....    1
 Number of Electrons    NEL             ....   36
 Basis Dimension        Dim             ....  172
 Nuclear Repulsion      ENuc            ....    131.4879521633 Eh

Convergence Acceleration:
 DIIS                   CNVDIIS         .... on
   Start iteration      DIISMaxIt       ....    12
   Startup error        DIISStart       ....  0.200000
   # of expansion vecs  DIISMaxEq       ....     5
   Bias factor          DIISBfac        ....   1.050
   Max. coefficient     DIISMaxC        ....  10.000
 Newton-Raphson         CNVNR           .... off
 SOSCF                  CNVSOSCF        .... on
   Start iteration      SOSCFMaxIt      ....   150
   Startup grad/error   SOSCFStart      ....  0.003300
 Level Shifting         CNVShift        .... on
   Level shift para.    LevelShift      ....    0.2500
   Turn off err/grad.   ShiftErr        ....    0.0010
 Zerner damping         CNVZerner       .... off
 Static damping         CNVDamp         .... on
   Fraction old density DampFac         ....    0.7000
   Max. Damping (<1)    DampMax         ....    0.9800
   Min. Damping (>=0)   DampMin         ....    0.0000
   Turn off err/grad.   DampErr         ....    0.1000
 Fernandez-Rico         CNVRico         .... off

SCF Procedure:
 Maximum # iterations   MaxIter         ....  1000
 SCF integral mode      SCFMode         .... Direct
   Integral package                     .... LIBINT
 Reset frequency        DirectResetFreq ....    20
 Integral Threshold     Thresh          ....  2.500e-11 Eh
 Primitive CutOff       TCut            ....  2.500e-12 Eh

Convergence Tolerance:
 Convergence Check Mode ConvCheckMode   .... Total+1el-Energy
 Convergence forced     ConvForced      .... 0
 Energy Change          TolE            ....  1.000e-08 Eh
 1-El. energy change                    ....  1.000e-05 Eh
 Orbital Gradient       TolG            ....  1.000e-05
 Orbital Rotation angle TolX            ....  1.000e-05
 DIIS Error             TolErr          ....  5.000e-07


Diagonalization of the overlap matrix:
Smallest eigenvalue                        ... 1.334e-03
Time for diagonalization                   ...    0.111 sec
Threshold for overlap eigenvalues          ... 1.000e-08
Number of eigenvalues below threshold      ... 0
Time for construction of square roots      ...    0.018 sec
Total time needed                          ...    0.130 sec

-------------------
DFT GRID GENERATION
-------------------

General Integration Accuracy     IntAcc      ...  4.340
Radial Grid Type                 RadialGrid  ... Gauss-Chebyshev
Angular Grid (max. acc.)         AngularGrid ... Lebedev-110
Angular grid pruning method      GridPruning ... 3 (G Style)
Weight generation scheme         WeightScheme... Becke
Basis function cutoff            BFCut       ...    1.0000e-11
Integration weight cutoff        WCut        ...    1.0000e-14
Grids for H and He will be reduced by one unit

# of grid points (after initial pruning)     ...  13096 (   0.0 sec)
# of grid points (after weights+screening)   ...  12491 (   0.0 sec)
nearest neighbour list constructed           ...    0.0 sec
Grid point re-assignment to atoms done       ...    0.0 sec
Grid point division into batches done        ...    0.0 sec
Reduced shell lists constructed in    0.0 sec

Total number of grid points                  ...    12491
Total number of batches                      ...      201
Average number of points per batch           ...       62
Average number of grid points per atom       ...     1041
Average number of shells per batch           ...    54.89 (72.22%)
Average number of basis functions per batch  ...   123.85 (72.01%)
Average number of large shells per batch     ...    45.15 (82.25%)
Average number of large basis fcns per batch ...   100.63 (81.25%)
Maximum spatial batch extension              ...  19.10, 11.18, 13.68 au
Average spatial batch extension              ...   0.41,  0.34,  0.33 au

Time for grid setup =    0.053 sec

------------------------------
INITIAL GUESS: MODEL POTENTIAL
------------------------------
Loading Hartree-Fock densities                     ... done
Calculating cut-offs                               ... done
Setting up the integral package                    ... done
Initializing the effective Hamiltonian             ... done
Starting the Coulomb interaction                   ... done (   0.0 sec)
Reading the grid                                   ... done
Mapping shells                                     ... done
Starting the XC term evaluation                    ... done (   0.0 sec)
  promolecular density results
     # of electrons  =     35.986086814
     EX              =    -28.874100803
     EC              =     -1.161783696
     EX+EC           =    -30.035884499
Transforming the Hamiltonian                       ... done (   0.0 sec)
Diagonalizing the Hamiltonian                      ... done (   0.0 sec)
Back transforming the eigenvectors                 ... done (   0.0 sec)
Now organizing SCF variables                       ... done
                      ------------------
                      INITIAL GUESS DONE (   0.2 sec)
                      ------------------
--------------
SCF ITERATIONS
--------------
ITER       Energy         Delta-E        Max-DP      RMS-DP      [F,P]     Damp
               ***  Starting incremental Fock matrix formation  ***
  0   -231.3018880362   0.000000000000 0.03425891  0.00102624  0.2404471 0.7000
  1   -231.3673120844  -0.065424048236 0.02303288  0.00073759  0.1227287 0.7000
                               ***Turning on DIIS***
  2   -231.3978598795  -0.030547795020 0.03831665  0.00135685  0.0505589 0.0000
  3   -231.4477125630  -0.049852683512 0.01586880  0.00048233  0.0546759 0.0000
  4   -231.4556382758  -0.007925712811 0.00394350  0.00009415  0.0056084 0.0000
                      *** Initiating the SOSCF procedure ***
                           *** Shutting down DIIS ***
                      *** Re-Reading the Fockian *** 
                      *** Removing any level shift *** 
ITER      Energy       Delta-E        Grad      Rot      Max-DP    RMS-DP
  5   -231.45579625  -0.0001579709  0.000420  0.000420  0.000709  0.000033
               *** Restarting incremental Fock matrix formation ***
  6   -231.45581206  -0.0000158103  0.000134  0.000242  0.000428  0.000020
  7   -231.45581357  -0.0000015143  0.000048  0.000136  0.000233  0.000009
  8   -231.45581368  -0.0000001108  0.000032  0.000021  0.000053  0.000002
  9   -231.45581372  -0.0000000426  0.000011  0.000009  0.000017  0.000001
 10   -231.45581373  -0.0000000022  0.000004  0.000004  0.000006  0.000000
                  ***Gradient check signals convergence***
              ***Rediagonalizing the Fockian in SOSCF/NRSCF***

               *****************************************************
               *                     SUCCESS                       *
               *           SCF CONVERGED AFTER  11 CYCLES          *
               *****************************************************

Setting up the final grid:

General Integration Accuracy     IntAcc      ...  4.670
Radial Grid Type                 RadialGrid  ... Gauss-Chebyshev
Angular Grid (max. acc.)         AngularGrid ... Lebedev-302
Angular grid pruning method      GridPruning ... 3 (G Style)
Weight generation scheme         WeightScheme... Becke
Basis function cutoff            BFCut       ...    1.0000e-11
Integration weight cutoff        WCut        ...    1.0000e-14
Grids for H and He will be reduced by one unit

# of grid points (after initial pruning)     ...  52000 (   0.0 sec)
# of grid points (after weights+screening)   ...  49070 (   0.0 sec)
nearest neighbour list constructed           ...    0.0 sec
Grid point re-assignment to atoms done       ...    0.0 sec
Grid point division into batches done        ...    0.2 sec
Reduced shell lists constructed in    0.2 sec

Total number of grid points                  ...    49070
Total number of batches                      ...      773
Average number of points per batch           ...       63
Average number of grid points per atom       ...     4089
Average number of shells per batch           ...    53.12 (69.90%)
Average number of basis functions per batch  ...   119.06 (69.22%)
Average number of large shells per batch     ...    42.92 (80.79%)
Average number of large basis fcns per batch ...    95.65 (80.34%)
Maximum spatial batch extension              ...  18.86, 13.08, 10.50 au
Average spatial batch extension              ...   0.24,  0.23,  0.22 au

Final grid set up in    0.3 sec
Final integration                            ... done (   0.1 sec)
Change in XC energy                          ...    -0.000136503
Integrated number of electrons               ...    35.999951224
Previous integrated no of electrons          ...    35.993883258

----------------
TOTAL SCF ENERGY
----------------

Total Energy       :         -231.45595023 Eh           -6298.23660 eV

Components:
Nuclear Repulsion  :          131.48795216 Eh            3577.96908 eV
Electronic Energy  :         -362.94390239 Eh           -9876.20568 eV
One Electron Energy:         -575.61844881 Eh          -15663.37430 eV
Two Electron Energy:          212.67454642 Eh            5787.16862 eV

Virial components:
Potential Energy   :         -461.93901192 Eh          -12569.99956 eV
Kinetic Energy     :          230.48306169 Eh            6271.76296 eV
Virial Ratio       :            2.00422108


DFT components:
N(Alpha)           :       17.999975611941 electrons
N(Beta)            :       17.999975611941 electrons
N(Total)           :       35.999951223883 electrons
E(XC)              :      -21.307198777298 Eh       
DFET-embed. en.    :        0.000000000000 Eh       

---------------
SCF CONVERGENCE
---------------

  Last Energy change         ...   -8.1670e-10  Tolerance :   1.0000e-08
  Last MAX-Density change    ...    1.4480e-06  Tolerance :   1.0000e-07
  Last RMS-Density change    ...    6.2480e-08  Tolerance :   5.0000e-09
  Last Orbital Gradient      ...    6.3649e-07  Tolerance :   1.0000e-05
  Last Orbital Rotation      ...    1.5356e-06  Tolerance :   1.0000e-05

             **** THE GBW FILE WAS UPDATED (19-171_DFT_AB.gbw) ****
             **** DENSITY FILE WAS UPDATED (19-171_DFT_AB.scfp.tmp) ****
             **** ENERGY FILE WAS UPDATED (19-171_DFT_AB.en.tmp) ****
----------------
ORBITAL ENERGIES
----------------

  NO   OCC          E(Eh)            E(eV) 
   0   2.0000     -19.255362      -523.9650 
   1   2.0000     -19.224424      -523.1232 
   2   2.0000     -10.323783      -280.9244 
   3   2.0000     -10.305607      -280.4298 
   4   2.0000      -1.179893       -32.1065 
   5   2.0000      -1.126817       -30.6622 
   6   2.0000      -0.798826       -21.7372 
   7   2.0000      -0.782995       -21.3064 
   8   2.0000      -0.649093       -17.6627 
   9   2.0000      -0.596743       -16.2382 
  10   2.0000      -0.556357       -15.1392 
  11   2.0000      -0.540431       -14.7059 
  12   2.0000      -0.518230       -14.1018 
  13   2.0000      -0.514009       -13.9869 
  14   2.0000      -0.453078       -12.3289 
  15   2.0000      -0.430634       -11.7182 
  16   2.0000      -0.386228       -10.5098 
  17   2.0000      -0.363657        -9.8956 
  18   0.0000       0.101222         2.7544 
  19   0.0000       0.141088         3.8392 
  20   0.0000       0.154083         4.1928 
  21   0.0000       0.174328         4.7437 
  22   0.0000       0.195104         5.3091 
  23   0.0000       0.207629         5.6499 
  24   0.0000       0.215360         5.8602 
  25   0.0000       0.220465         5.9992 
  26   0.0000       0.243784         6.6337 
  27   0.0000       0.292158         7.9500 
  28   0.0000       0.298677         8.1274 
  29   0.0000       0.316540         8.6135 
  30   0.0000       0.327332         8.9072 
  31   0.0000       0.357612         9.7311 
  32   0.0000       0.404876        11.0172 
  33   0.0000       0.430458        11.7134 
  34   0.0000       0.463601        12.6152 
  35   0.0000       0.471113        12.8196 
  36   0.0000       0.487711        13.2713 
  37   0.0000       0.505341        13.7510 
  38   0.0000       0.513356        13.9691 
  39   0.0000       0.535695        14.5770 
  40   0.0000       0.551696        15.0124 
  41   0.0000       0.557865        15.1803 
  42   0.0000       0.568489        15.4694 
  43   0.0000       0.587657        15.9910 
  44   0.0000       0.605752        16.4833 
  45   0.0000       0.641342        17.4518 
  46   0.0000       0.648867        17.6566 
  47   0.0000       0.661971        18.0132 
  48   0.0000       0.752794        20.4846 
  49   0.0000       0.770795        20.9744 
  50   0.0000       0.780723        21.2446 
  51   0.0000       0.803997        21.8779 
  52   0.0000       0.819055        22.2876 
  53   0.0000       0.868408        23.6306 
  54   0.0000       0.911298        24.7977 
  55   0.0000       0.945741        25.7349 
  56   0.0000       0.988291        26.8928 
  57   0.0000       1.018397        27.7120 
  58   0.0000       1.023752        27.8577 
  59   0.0000       1.087067        29.5806 
  60   0.0000       1.136599        30.9284 
  61   0.0000       1.137829        30.9619 
  62   0.0000       1.365499        37.1571 
  63   0.0000       1.391747        37.8714 
  64   0.0000       1.491629        40.5893 
  65   0.0000       1.499157        40.7941 
  66   0.0000       1.538731        41.8710 
  67   0.0000       1.570291        42.7298 
  68   0.0000       1.595596        43.4184 
  69   0.0000       1.611216        43.8434 
  70   0.0000       1.625104        44.2213 
  71   0.0000       1.638870        44.5959 
  72   0.0000       1.650184        44.9038 
  73   0.0000       1.656731        45.0820 
  74   0.0000       1.673617        45.5414 
  75   0.0000       1.696881        46.1745 
  76   0.0000       1.719006        46.7765 
  77   0.0000       1.822086        49.5815 
  78   0.0000       1.835255        49.9398 
  79   0.0000       1.880776        51.1785 
  80   0.0000       1.983365        53.9701 
  81   0.0000       1.996068        54.3158 
  82   0.0000       2.011626        54.7391 
  83   0.0000       2.040199        55.5166 
  84   0.0000       2.062167        56.1144 
  85   0.0000       2.080591        56.6158 
  86   0.0000       2.093496        56.9669 
  87   0.0000       2.117519        57.6206 
  88   0.0000       2.144825        58.3636 
  89   0.0000       2.186187        59.4892 
  90   0.0000       2.213297        60.2269 
  91   0.0000       2.249893        61.2227 
  92   0.0000       2.329986        63.4021 
  93   0.0000       2.350654        63.9645 
  94   0.0000       2.367738        64.4294 
  95   0.0000       2.378992        64.7357 
  96   0.0000       2.403950        65.4148 
  97   0.0000       2.461253        66.9741 
  98   0.0000       2.480571        67.4998 
  99   0.0000       2.514177        68.4142 
 100   0.0000       2.541816        69.1663 
 101   0.0000       2.574884        70.0661 
 102   0.0000       2.614787        71.1520 
 103   0.0000       2.634383        71.6852 
 104   0.0000       2.654707        72.2382 
 105   0.0000       2.673002        72.7361 
 106   0.0000       2.746685        74.7411 
 107   0.0000       2.800552        76.2069 
 108   0.0000       2.806119        76.3584 
 109   0.0000       2.858780        77.7914 
 110   0.0000       2.884222        78.4837 
 111   0.0000       2.892707        78.7146 
 112   0.0000       2.925846        79.6163 
 113   0.0000       2.973935        80.9249 
 114   0.0000       3.011065        81.9353 
 115   0.0000       3.084219        83.9259 
 116   0.0000       3.117197        84.8232 
 117   0.0000       3.122182        84.9589 
 118   0.0000       3.152320        85.7790 
 119   0.0000       3.201336        87.1128 
 120   0.0000       3.222148        87.6791 
 121   0.0000       3.263864        88.8142 
 122   0.0000       3.307240        89.9946 
 123   0.0000       3.328474        90.5724 
 124   0.0000       3.444605        93.7325 
 125   0.0000       3.468320        94.3778 
 126   0.0000       3.485116        94.8348 
 127   0.0000       3.505050        95.3773 
 128   0.0000       3.574832        97.2761 
 129   0.0000       3.625093        98.6438 
 130   0.0000       3.648003        99.2672 
 131   0.0000       3.669738        99.8586 
 132   0.0000       3.685189       100.2791 
 133   0.0000       3.725954       101.3884 
 134   0.0000       4.099228       111.5457 
 135   0.0000       4.123673       112.2108 
 136   0.0000       4.210075       114.5620 
 137   0.0000       4.234656       115.2308 
 138   0.0000       4.260058       115.9221 
 139   0.0000       4.305782       117.1663 
 140   0.0000       4.364088       118.7529 
 141   0.0000       4.382893       119.2646 
 142   0.0000       4.510816       122.7455 
 143   0.0000       4.607394       125.3736 
 144   0.0000       5.380884       146.4213 
 145   0.0000       5.383068       146.4807 
 146   0.0000       5.500329       149.6716 
 147   0.0000       5.510497       149.9483 
 148   0.0000       5.520546       150.2217 
 149   0.0000       5.543302       150.8409 
 150   0.0000       5.724236       155.7644 
 151   0.0000       5.755849       156.6246 
 152   0.0000       5.809047       158.0722 
 153   0.0000       5.868726       159.6962 
 154   0.0000       6.044628       164.4827 
 155   0.0000       6.090278       165.7249 
 156   0.0000       6.303645       171.5309 
 157   0.0000       6.426001       174.8604 
 158   0.0000       6.519978       177.4176 
 159   0.0000       6.547469       178.1657 
 160   0.0000       6.781728       184.5402 
 161   0.0000       6.795263       184.9085 
 162   0.0000       6.808410       185.2662 
 163   0.0000       6.814337       185.4275 
 164   0.0000       6.994887       190.3405 
 165   0.0000       7.055504       191.9900 
 166   0.0000       7.221159       196.4977 
 167   0.0000       7.311247       198.9492 
 168   0.0000      22.355482       608.3236 
 169   0.0000      22.425310       610.2237 
 170   0.0000      43.661400      1188.0871 
 171   0.0000      43.745020      1190.3625 

                    ********************************
                    * MULLIKEN POPULATION ANALYSIS *
                    ********************************

-----------------------
MULLIKEN ATOMIC CHARGES
-----------------------
   0 C :   -0.192170
   1 O :   -0.462754
   2 H :    0.332150
   3 H :    0.112984
   4 H :    0.101063
   5 H :    0.111893
   6 C :   -0.219376
   7 O :   -0.462363
   8 H :    0.324437
   9 H :    0.148278
  10 H :    0.098080
  11 H :    0.107778
Sum of atomic charges:   -0.0000000

--------------------------------
MULLIKEN REDUCED ORBITAL CHARGES
--------------------------------
  0 C s       :     3.209394  s :     3.209394
      pz      :     1.017858  p :     2.876535
      px      :     0.910385
      py      :     0.948292
      dz2     :     0.020909  d :     0.099059
      dxz     :     0.015095
      dyz     :     0.017236
      dx2y2   :     0.027955
      dxy     :     0.017864
      f0      :     0.000316  f :     0.007183
      f+1     :     0.000911
      f-1     :     0.000959
      f+2     :     0.001048
      f-2     :     0.001619
      f+3     :     0.001132
      f-3     :     0.001197
  1 O s       :     3.805110  s :     3.805110
      pz      :     1.340212  p :     4.625881
      px      :     1.598866
      py      :     1.686803
      dz2     :     0.006317  d :     0.030270
      dxz     :     0.009130
      dyz     :     0.002992
      dx2y2   :     0.004600
      dxy     :     0.007231
      f0      :     0.000194  f :     0.001492
      f+1     :     0.000402
      f-1     :     0.000123
      f+2     :     0.000151
      f-2     :     0.000242
      f+3     :     0.000187
      f-3     :     0.000193
  2 H s       :     0.614183  s :     0.614183
      pz      :     0.023036  p :     0.053667
      px      :     0.015352
      py      :     0.015279
  3 H s       :     0.866794  s :     0.866794
      pz      :     0.005369  p :     0.020222
      px      :     0.005558
      py      :     0.009295
  4 H s       :     0.877890  s :     0.877890
      pz      :     0.005448  p :     0.021047
      px      :     0.010152
      py      :     0.005447
  5 H s       :     0.869043  s :     0.869043
      pz      :     0.010276  p :     0.019064
      px      :     0.003396
      py      :     0.005392
  6 C s       :     3.235589  s :     3.235589
      pz      :     1.125934  p :     2.875009
      px      :     0.920460
      py      :     0.828615
      dz2     :     0.011492  d :     0.100662
      dxz     :     0.015661
      dyz     :     0.021979
      dx2y2   :     0.040034
      dxy     :     0.011495
      f0      :     0.001115  f :     0.008117
      f+1     :     0.000499
      f-1     :     0.000669
      f+2     :     0.000126
      f-2     :     0.001281
      f+3     :     0.001786
      f-3     :     0.002640
  7 O s       :     3.809710  s :     3.809710
      pz      :     1.376330  p :     4.619397
      px      :     1.688811
      py      :     1.554256
      dz2     :     0.012135  d :     0.031555
      dxz     :     0.002230
      dyz     :     0.003875
      dx2y2   :     0.005570
      dxy     :     0.007745
      f0      :     0.000613  f :     0.001701
      f+1     :     0.000132
      f-1     :     0.000068
      f+2     :     0.000020
      f-2     :     0.000189
      f+3     :     0.000379
      f-3     :     0.000300
  8 H s       :     0.626991  s :     0.626991
      pz      :     0.019415  p :     0.048572
      px      :     0.015571
      py      :     0.013586
  9 H s       :     0.830731  s :     0.830731
      pz      :     0.013059  p :     0.020991
      px      :     0.003785
      py      :     0.004148
 10 H s       :     0.882746  s :     0.882746
      pz      :     0.005435  p :     0.019174
      px      :     0.003744
      py      :     0.009996
 11 H s       :     0.872374  s :     0.872374
      pz      :     0.005916  p :     0.019849
      px      :     0.010383
      py      :     0.003550


                     *******************************
                     * LOEWDIN POPULATION ANALYSIS *
                     *******************************

----------------------
LOEWDIN ATOMIC CHARGES
----------------------
   0 C :   -0.396126
   1 O :   -0.077063
   2 H :    0.167793
   3 H :    0.096308
   4 H :    0.089836
   5 H :    0.114183
   6 C :   -0.446524
   7 O :   -0.047439
   8 H :    0.181655
   9 H :    0.123117
  10 H :    0.097323
  11 H :    0.096936

-------------------------------
LOEWDIN REDUCED ORBITAL CHARGES
-------------------------------
  0 C s       :     2.858209  s :     2.858209
      pz      :     1.050839  p :     3.075423
      px      :     0.994186
      py      :     1.030399
      dz2     :     0.071181  d :     0.410994
      dxz     :     0.070220
      dyz     :     0.078318
      dx2y2   :     0.093646
      dxy     :     0.097628
      f0      :     0.005314  f :     0.051500
      f+1     :     0.007208
      f-1     :     0.005676
      f+2     :     0.007555
      f-2     :     0.008034
      f+3     :     0.008031
      f-3     :     0.009682
  1 O s       :     3.381860  s :     3.381860
      pz      :     1.348200  p :     4.624028
      px      :     1.617148
      py      :     1.658680
      dz2     :     0.017176  d :     0.066697
      dxz     :     0.017593
      dyz     :     0.008206
      dx2y2   :     0.010200
      dxy     :     0.013521
      f0      :     0.000455  f :     0.004478
      f+1     :     0.001369
      f-1     :     0.000351
      f+2     :     0.000575
      f-2     :     0.000687
      f+3     :     0.000558
      f-3     :     0.000482
  2 H s       :     0.663478  s :     0.663478
      pz      :     0.075456  p :     0.168729
      px      :     0.052111
      py      :     0.041162
  3 H s       :     0.840389  s :     0.840389
      pz      :     0.017722  p :     0.063303
      px      :     0.017130
      py      :     0.028451
  4 H s       :     0.845527  s :     0.845527
      pz      :     0.016762  p :     0.064637
      px      :     0.030543
      py      :     0.017332
  5 H s       :     0.832697  s :     0.832697
      pz      :     0.028033  p :     0.053120
      px      :     0.010344
      py      :     0.014743
  6 C s       :     2.863067  s :     2.863067
      pz      :     1.112743  p :     3.070924
      px      :     1.004939
      py      :     0.953242
      dz2     :     0.067714  d :     0.449329
      dxz     :     0.057088
      dyz     :     0.076217
      dx2y2   :     0.160049
      dxy     :     0.088260
      f0      :     0.006219  f :     0.063204
      f+1     :     0.003977
      f-1     :     0.005935
      f+2     :     0.006325
      f-2     :     0.010469
      f+3     :     0.013403
      f-3     :     0.016876
  7 O s       :     3.347020  s :     3.347020
      pz      :     1.377109  p :     4.616738
      px      :     1.654359
      py      :     1.585270
      dz2     :     0.025257  d :     0.078030
      dxz     :     0.007557
      dyz     :     0.010300
      dx2y2   :     0.016977
      dxy     :     0.017938
      f0      :     0.001909  f :     0.005651
      f+1     :     0.000314
      f-1     :     0.000513
      f+2     :     0.000062
      f-2     :     0.000759
      f+3     :     0.000943
      f-3     :     0.001150
  8 H s       :     0.657973  s :     0.657973
      pz      :     0.079160  p :     0.160373
      px      :     0.042025
      py      :     0.039187
  9 H s       :     0.818325  s :     0.818325
      pz      :     0.037078  p :     0.058558
      px      :     0.010620
      py      :     0.010860
 10 H s       :     0.845731  s :     0.845731
      pz      :     0.016565  p :     0.056946
      px      :     0.011968
      py      :     0.028413
 11 H s       :     0.842999  s :     0.842999
      pz      :     0.018344  p :     0.060065
      px      :     0.030766
      py      :     0.010954


                      *****************************
                      * MAYER POPULATION ANALYSIS *
                      *****************************

  NA   - Mulliken gross atomic population
  ZA   - Total nuclear charge
  QA   - Mulliken gross atomic charge
  VA   - Mayer's total valence
  BVA  - Mayer's bonded valence
  FA   - Mayer's free valence

  ATOM       NA         ZA         QA         VA         BVA        FA
  0 C      6.1922     6.0000    -0.1922     3.9467     3.9467    -0.0000
  1 O      8.4628     8.0000    -0.4628     1.9172     1.9172    -0.0000
  2 H      0.6678     1.0000     0.3322     0.9010     0.9010     0.0000
  3 H      0.8870     1.0000     0.1130     0.9559     0.9559    -0.0000
  4 H      0.8989     1.0000     0.1011     0.9512     0.9512    -0.0000
  5 H      0.8881     1.0000     0.1119     0.9631     0.9631    -0.0000
  6 C      6.2194     6.0000    -0.2194     3.8810     3.8810    -0.0000
  7 O      8.4624     8.0000    -0.4624     1.8934     1.8934    -0.0000
  8 H      0.6756     1.0000     0.3244     0.9097     0.9097     0.0000
  9 H      0.8517     1.0000     0.1483     0.9731     0.9731    -0.0000
 10 H      0.9019     1.0000     0.0981     0.9564     0.9564     0.0000
 11 H      0.8922     1.0000     0.1078     0.9575     0.9575    -0.0000

  Mayer bond orders larger than 0.1
B(  0-C ,  1-O ) :   1.0076 B(  0-C ,  3-H ) :   0.9779 B(  0-C ,  4-H ) :   0.9767 
B(  0-C ,  5-H ) :   0.9746 B(  1-O ,  2-H ) :   0.8785 B(  6-C ,  7-O ) :   0.9570 
B(  6-C ,  9-H ) :   0.9649 B(  6-C , 10-H ) :   0.9723 B(  6-C , 11-H ) :   0.9800 
B(  7-O ,  8-H ) :   0.8952 

-------
TIMINGS
-------

Total SCF time: 0 days 0 hours 0 min 15 sec 

Total time                  ....      15.169 sec
Sum of individual times     ....      14.476 sec  ( 95.4%)

Fock matrix formation       ....      13.736 sec  ( 90.6%)
  XC integration            ....       3.057 sec  ( 22.3% of F)
    Basis function eval.    ....       0.066 sec  (  2.2% of XC)
    Density eval.           ....       0.082 sec  (  2.7% of XC)
    XC-Functional eval.     ....       0.105 sec  (  3.4% of XC)
    XC-Potential eval.      ....       0.080 sec  (  2.6% of XC)
Diagonalization             ....       0.095 sec  (  0.6%)
Density matrix formation    ....       0.005 sec  (  0.0%)
Population analysis         ....       0.017 sec  (  0.1%)
Initial guess               ....       0.113 sec  (  0.7%)
Orbital Transformation      ....       0.000 sec  (  0.0%)
Orbital Orthonormalization  ....       0.000 sec  (  0.0%)
DIIS solution               ....       0.073 sec  (  0.5%)
SOSCF solution              ....       0.045 sec  (  0.3%)
Grid generation             ....       0.390 sec  (  2.6%)


-------------------------------------------------------------------------------
                          DFT DISPERSION CORRECTION                            
                                                                               
                              DFTD3 V3.1  Rev 1                                
                              USING zero damping                               
-------------------------------------------------------------------------------
The omegaB97X-D3 functional is recognized. Fit by Chai et al.
Active option DFTDOPT                   ...         3   

molecular C6(AA) [au] = 834.606417 


            DFT-D V3
 parameters
 s6 scaling factor         :     1.0000 
 rs6 scaling factor        :     1.2810 
 s8 scaling factor         :     1.0000 
 rs8 scaling factor        :     1.0940 
 Damping factor alpha6     :    14.0000 
 Damping factor alpha8     :    16.0000 
 ad hoc parameters k1-k3   :    16.0000     1.3333    -4.0000 

 Edisp/kcal,au: -1.079847690313  -0.001720846648 
 E6   /kcal   :  -0.460169263 
 E8   /kcal   :  -0.619678427 
 % E8         :  57.385725116 

-------------------------   ----------------
Dispersion correction           -0.001720847
-------------------------   ----------------


-------------------------   --------------------
FINAL SINGLE POINT ENERGY      -231.457671077031
-------------------------   --------------------


                            ***************************************
                            *     ORCA property calculations      *
                            ***************************************

                                    ---------------------
                                    Active property flags
                                    ---------------------
   (+) Dipole Moment


------------------------------------------------------------------------------
                       ORCA ELECTRIC PROPERTIES CALCULATION
------------------------------------------------------------------------------

Dipole Moment Calculation                       ... on
Quadrupole Moment Calculation                   ... off
Polarizability Calculation                      ... off
GBWName                                         ... 19-171_DFT_AB.gbw
Electron density file                           ... 19-171_DFT_AB.scfp.tmp
The origin for moment calculation is the CENTER OF MASS  = (-4.634461,  2.746926 -11.817386)

-------------
DIPOLE MOMENT
-------------
                                X             Y             Z
Electronic contribution:      0.27661      -0.32526       0.99095
Nuclear contribution   :     -0.67649       0.48291      -0.07572
                        -----------------------------------------
Total Dipole Moment    :     -0.39988       0.15765       0.91522
                        -----------------------------------------
Magnitude (a.u.)       :      1.01113
Magnitude (Debye)      :      2.57010



--------------------
Rotational spectrum 
--------------------
 
Rotational constants in cm-1:     0.551752     0.086682     0.077533 
Rotational constants in MHz : 16541.109166  2598.651802  2324.387379 

 Dipole components along the rotational axes: 
x,y,z [a.u.] :     0.869867    -0.495202     0.143165 
x,y,z [Debye]:     2.211026    -1.258703     0.363897 

 
------------------------------------------------------------------------------
                      ORCA CHELPG CHARGES GENERATION
------------------------------------------------------------------------------

GBW file                           ... 19-171_DFT_AB.gbw

Reading the GBW file               ... done

Grid spacing                       ...     0.300000
Point Cut-Off                      ...     2.800000
Van-der-Waals Radii                ...        COSMO
Total charge                       ...            0


Number of points X direction       ...           27
Number of points Y direction       ...           32
Number of points Z direction       ...           36
Maximum number of possible points  ...        31104
Final number of points             ...         9582


CHELPG Charges            
--------------------------------
  0   C   :       0.078510
  1   O   :      -0.587730
  2   H   :       0.440874
  3   H   :       0.009691
  4   H   :       0.026037
  5   H   :       0.055877
  6   C   :      -0.017548
  7   O   :      -0.623823
  8   H   :       0.448795
  9   H   :       0.087836
 10   H   :       0.040433
 11   H   :       0.041048
--------------------------------
Total charge:     0.000000
--------------------------------

CHELPG charges calculated...

Timings for individual parts in CHELPG calculation:
Grid generation                 ...        0.001 sec (=   0.000 min)
Potential calculation           ...        2.166 sec (=   0.036 min)
Fit to the potential            ...        0.003 sec (=   0.000 min)
------------------------------------------------------------------------------


Timings for individual modules:

Sum of individual times         ...       51.275 sec (=   0.855 min)
GTO integral calculation        ...       28.894 sec (=   0.482 min)  56.4 %
SCF iterations                  ...       20.140 sec (=   0.336 min)  39.3 %
CHELPG charge generation        ...        2.240 sec (=   0.037 min)   4.4 %


                 $$$$$$$$$$$$$$$$  JOB NUMBER  2 $$$$$$$$$$$$$$


                       ****************************
                       * Single Point Calculation *
                       ****************************

---------------------------------
CARTESIAN COORDINATES (ANGSTROEM)
---------------------------------
  C     -2.906077    0.377006   -8.148405
  O     -1.989494    1.235935   -7.461935
  H     -2.399023    1.249863   -6.599244
  H     -3.340453   -0.457180   -7.600596
  H     -3.818018    0.871088   -8.437188
  H     -2.566180   -0.111384   -9.125792
  C     -2.016624    2.634609   -4.850103
  O     -2.856557    1.560374   -4.670585
  H     -2.979499    1.629369   -3.730284
  H     -1.816031    2.931660   -5.920906
  H     -2.354388    3.592985   -4.373275
  H     -1.068017    2.438966   -4.327261

----------------------------
CARTESIAN COORDINATES (A.U.)
----------------------------
  NO LB      ZA    FRAG     MASS         X           Y           Z
   0 C     6.0000    0    12.011   -5.491690    0.712438  -15.398254
   1 O     8.0000    0    15.999   -3.759599    2.335579  -14.101014
   2 H     1.0000    0     1.008   -4.533496    2.361899  -12.470764
   3 H     1.0000    0     1.008   -6.312541   -0.863945  -14.363045
   4 H     1.0000    0     1.008   -7.215008    1.646118  -15.943975
   5 H     1.0000    0     1.008   -4.849377   -0.210485  -17.245248
   6 C     0.0000    0     0.000   -3.810867    4.978689   -9.165366
   7 O     0.0000    0     0.000   -5.398110    2.948680   -8.826127
   8 H     0.0000    0     0.000   -5.630437    3.079061   -7.049215
   9 H     0.0000    0     0.000   -3.431801    5.540035  -11.188891
  10 H     0.0000    0     0.000   -4.449149    6.789758   -8.264292
  11 H     0.0000    0     0.000   -2.018260    4.608978   -8.177338

--------------------------------
INTERNAL COORDINATES (ANGSTROEM)
--------------------------------
 C      0   0   0     0.000000000000     0.00000000     0.00000000
 O      1   0   0     1.431476330168     0.00000000     0.00000000
 H      2   1   0     0.955062172063    99.63441428     0.00000000
 H      1   2   3     1.088413291196   118.29776048   323.07072273
 H      1   2   3     1.076637836644   113.30492553    77.63954096
 H      1   2   3     1.144264003837   118.39320763   197.84673257
 C      3   2   1     2.263458574306   129.38377121   193.91214198
 O      7   3   2     1.375389032979    61.30569110   186.94400143
 H      8   7   3     0.950810715122    98.70612288   172.39370489
 H      7   3   2     1.129201449281    57.18969748    25.75296487
 H      7   3   2     1.122467825221   143.10975751    92.18944169
 H      7   3   2     1.100679417842   113.82477168   286.37866013

---------------------------
INTERNAL COORDINATES (A.U.)
---------------------------
 C      0   0   0     0.000000000000     0.00000000     0.00000000
 O      1   0   0     2.705098231207     0.00000000     0.00000000
 H      2   1   0     1.804805946067    99.63441428     0.00000000
 H      1   2   3     2.056803040881   118.29776048   323.07072273
 H      1   2   3     2.034550656675   113.30492553    77.63954096
 H      1   2   3     2.162345592157   118.39320763   197.84673257
 C      3   2   1     4.277316820914   129.38377121   193.91214198
 O      7   3   2     2.599108599928    61.30569110   186.94400143
 H      8   7   3     1.796771856778    98.70612288   172.39370489
 H      7   3   2     2.133881489169    57.18969748    25.75296487
 H      7   3   2     2.121156783806   143.10975751    92.18944169
 H      7   3   2     2.079982660966   113.82477168   286.37866013

---------------------
BASIS SET INFORMATION
---------------------
There are 3 groups of distinct atoms

 Group   1 Type C   : 11s6p2d1f contracted to 5s3p2d1f pattern {62111/411/11/1}
 Group   2 Type O   : 11s6p2d1f contracted to 5s3p2d1f pattern {62111/411/11/1}
 Group   3 Type H   : 5s1p contracted to 3s1p pattern {311/1}

Atom   0C    basis set group =>   1
Atom   1O    basis set group =>   2
Atom   2H    basis set group =>   3
Atom   3H    basis set group =>   3
Atom   4H    basis set group =>   3
Atom   5H    basis set group =>   3
Atom   6C    basis set group =>   1
Atom   7O    basis set group =>   2
Atom   8H    basis set group =>   3
Atom   9H    basis set group =>   3
Atom  10H    basis set group =>   3
Atom  11H    basis set group =>   3


           ************************************************************
           *        Program running with 8 parallel MPI-processes     *
           *              working on a common directory               *
           ************************************************************
------------------------------------------------------------------------------
                           ORCA GTO INTEGRAL CALCULATION
------------------------------------------------------------------------------

                         BASIS SET STATISTICS AND STARTUP INFO

 # of primitive gaussian shells          ...  128
 # of primitive gaussian functions       ...  248
 # of contracted shells                  ...   76
 # of contracted basis functions         ...  172
 Highest angular momentum                ...    3
 Maximum contraction depth               ...    6
 Integral package used                   ... LIBINT
 Integral threshhold            Thresh   ...  2.500e-11
 Primitive cut-off              TCut     ...  2.500e-12


------------------------------ INTEGRAL EVALUATION ----------------------------


 * One electron integrals 
 Pre-screening matrix                    ... done
 Shell pair data                         ... done (   0.001 sec)



           ************************************************************
           *        Program running with 8 parallel MPI-processes     *
           *              working on a common directory               *
           ************************************************************
-------------------------------------------------------------------------------
                                 ORCA SCF
-------------------------------------------------------------------------------

------------
SCF SETTINGS
------------
Hamiltonian:
 Density Functional     Method          .... DFT(GTOs)
 Exchange Functional    Exchange        .... WB97X-D3
 Correlation Functional Correlation     .... WB97X-D3
 Gradients option       PostSCFGGA      .... off
 Hybrid DFT is turned on
   Fraction HF Exchange ScalHFX         ....  0.195728
   Scaling of DF-GGA-X  ScalDFX         ....  0.000000
   Scaling of DF-GGA-C  ScalDFC         ....  1.000000
   Scaling of DF-LDA-C  ScalLDAC        ....  1.000000
   Perturbative correction              ....  0.000000
   Density functional embedding theory  .... OFF
 Long-range corrected/Screened/Range-Separated Hybrid DFT is turned on
   Amount of maximum screened exact exchange              ....  0.804272
   Range separation parameter mu (erf(mu*r12)/r12)        ....  0.250000


General Settings:
 Integral files         IntName         .... 19-171_DFT_A
 Hartree-Fock type      HFTyp           .... RHF
 Total Charge           Charge          ....    0
 Multiplicity           Mult            ....    1
 Number of Electrons    NEL             ....   18
 Basis Dimension        Dim             ....  172
 Nuclear Repulsion      ENuc            ....     39.9880373973 Eh

Convergence Acceleration:
 DIIS                   CNVDIIS         .... on
   Start iteration      DIISMaxIt       ....    12
   Startup error        DIISStart       ....  0.200000
   # of expansion vecs  DIISMaxEq       ....     5
   Bias factor          DIISBfac        ....   1.050
   Max. coefficient     DIISMaxC        ....  10.000
 Newton-Raphson         CNVNR           .... off
 SOSCF                  CNVSOSCF        .... on
   Start iteration      SOSCFMaxIt      ....   150
   Startup grad/error   SOSCFStart      ....  0.003300
 Level Shifting         CNVShift        .... on
   Level shift para.    LevelShift      ....    0.2500
   Turn off err/grad.   ShiftErr        ....    0.0010
 Zerner damping         CNVZerner       .... off
 Static damping         CNVDamp         .... on
   Fraction old density DampFac         ....    0.7000
   Max. Damping (<1)    DampMax         ....    0.9800
   Min. Damping (>=0)   DampMin         ....    0.0000
   Turn off err/grad.   DampErr         ....    0.1000
 Fernandez-Rico         CNVRico         .... off

SCF Procedure:
 Maximum # iterations   MaxIter         ....  1000
 SCF integral mode      SCFMode         .... Direct
   Integral package                     .... LIBINT
 Reset frequency        DirectResetFreq ....    20
 Integral Threshold     Thresh          ....  2.500e-11 Eh
 Primitive CutOff       TCut            ....  2.500e-12 Eh

Convergence Tolerance:
 Convergence Check Mode ConvCheckMode   .... Total+1el-Energy
 Convergence forced     ConvForced      .... 0
 Energy Change          TolE            ....  1.000e-08 Eh
 1-El. energy change                    ....  1.000e-05 Eh
 Orbital Gradient       TolG            ....  1.000e-05
 Orbital Rotation angle TolX            ....  1.000e-05
 DIIS Error             TolErr          ....  5.000e-07


Diagonalization of the overlap matrix:
Smallest eigenvalue                        ... 1.334e-03
Time for diagonalization                   ...    0.006 sec
Threshold for overlap eigenvalues          ... 1.000e-08
Number of eigenvalues below threshold      ... 0
Time for construction of square roots      ...    0.006 sec
Total time needed                          ...    0.012 sec

-------------------
DFT GRID GENERATION
-------------------

General Integration Accuracy     IntAcc      ...  4.340
Radial Grid Type                 RadialGrid  ... Gauss-Chebyshev
Angular Grid (max. acc.)         AngularGrid ... Lebedev-110
Angular grid pruning method      GridPruning ... 3 (G Style)
Weight generation scheme         WeightScheme... Becke
Basis function cutoff            BFCut       ...    1.0000e-11
Integration weight cutoff        WCut        ...    1.0000e-14
Grids for H and He will be reduced by one unit

# of grid points (after initial pruning)     ...  13096 (   0.0 sec)
# of grid points (after weights+screening)   ...  12491 (   0.0 sec)
nearest neighbour list constructed           ...    0.0 sec
Grid point re-assignment to atoms done       ...    0.0 sec
Grid point division into batches done        ...    0.0 sec
Reduced shell lists constructed in    0.0 sec

Total number of grid points                  ...    12491
Total number of batches                      ...      201
Average number of points per batch           ...       62
Average number of grid points per atom       ...     1041
Average number of shells per batch           ...    54.89 (72.22%)
Average number of basis functions per batch  ...   123.85 (72.01%)
Average number of large shells per batch     ...    45.15 (82.25%)
Average number of large basis fcns per batch ...   100.63 (81.25%)
Maximum spatial batch extension              ...  19.10, 11.18, 13.68 au
Average spatial batch extension              ...   0.41,  0.34,  0.33 au

Time for grid setup =    0.049 sec

------------------------------
INITIAL GUESS: MODEL POTENTIAL
------------------------------
Loading Hartree-Fock densities                     ... done
Calculating cut-offs                               ... done
Setting up the integral package                    ... done
Initializing the effective Hamiltonian             ... done
Starting the Coulomb interaction                   ... done (   0.0 sec)
Reading the grid                                   ... done
Mapping shells                                     ... done
Starting the XC term evaluation                    ... done (   0.0 sec)
  promolecular density results
     # of electrons  =     17.994150342
     EX              =    -14.422563739
     EC              =     -0.574541925
     EX+EC           =    -14.997105664
Transforming the Hamiltonian                       ... done (   0.0 sec)
Diagonalizing the Hamiltonian                      ... done (   0.0 sec)
Back transforming the eigenvectors                 ... done (   0.0 sec)
Now organizing SCF variables                       ... done
                      ------------------
                      INITIAL GUESS DONE (   0.2 sec)
                      ------------------
--------------
SCF ITERATIONS
--------------
ITER       Energy         Delta-E        Max-DP      RMS-DP      [F,P]     Damp
               ***  Starting incremental Fock matrix formation  ***
  0   -115.6454851603   0.000000000000 0.03236822  0.00072944  0.2250901 0.7000
  1   -115.6797044523  -0.034219292008 0.01952206  0.00052351  0.1119796 0.7000
                               ***Turning on DIIS***
  2   -115.6955787864  -0.015874334118 0.03217240  0.00096226  0.0460206 0.0000
  3   -115.7215303159  -0.025951529546 0.01601689  0.00034314  0.0538308 0.0000
  4   -115.7256803778  -0.004150061894 0.00388801  0.00006722  0.0054906 0.0000
                      *** Initiating the SOSCF procedure ***
                           *** Shutting down DIIS ***
                      *** Re-Reading the Fockian *** 
                      *** Removing any level shift *** 
ITER      Energy       Delta-E        Grad      Rot      Max-DP    RMS-DP
  5   -115.72576680  -0.0000864213  0.000425  0.000425  0.000660  0.000023
               *** Restarting incremental Fock matrix formation ***
  6   -115.72577489  -0.0000080893  0.000130  0.000156  0.000417  0.000014
  7   -115.72577571  -0.0000008173  0.000050  0.000104  0.000209  0.000007
  8   -115.72577576  -0.0000000555  0.000036  0.000026  0.000049  0.000001
  9   -115.72577579  -0.0000000268  0.000009  0.000008  0.000016  0.000001
 10   -115.72577579  -0.0000000012  0.000003  0.000003  0.000005  0.000000
                  ***Gradient check signals convergence***
              ***Rediagonalizing the Fockian in SOSCF/NRSCF***

               *****************************************************
               *                     SUCCESS                       *
               *           SCF CONVERGED AFTER  11 CYCLES          *
               *****************************************************

Setting up the final grid:

General Integration Accuracy     IntAcc      ...  4.670
Radial Grid Type                 RadialGrid  ... Gauss-Chebyshev
Angular Grid (max. acc.)         AngularGrid ... Lebedev-302
Angular grid pruning method      GridPruning ... 3 (G Style)
Weight generation scheme         WeightScheme... Becke
Basis function cutoff            BFCut       ...    1.0000e-11
Integration weight cutoff        WCut        ...    1.0000e-14
Grids for H and He will be reduced by one unit

# of grid points (after initial pruning)     ...  52000 (   0.0 sec)
# of grid points (after weights+screening)   ...  49070 (   0.0 sec)
nearest neighbour list constructed           ...    0.0 sec
Grid point re-assignment to atoms done       ...    0.0 sec
Grid point division into batches done        ...    0.2 sec
Reduced shell lists constructed in    0.2 sec

Total number of grid points                  ...    49070
Total number of batches                      ...      773
Average number of points per batch           ...       63
Average number of grid points per atom       ...     4089
Average number of shells per batch           ...    53.12 (69.90%)
Average number of basis functions per batch  ...   119.06 (69.22%)
Average number of large shells per batch     ...    42.92 (80.79%)
Average number of large basis fcns per batch ...    95.65 (80.34%)
Maximum spatial batch extension              ...  18.86, 13.08, 10.50 au
Average spatial batch extension              ...   0.24,  0.23,  0.22 au

Final grid set up in    0.2 sec
Final integration                            ... done (   0.1 sec)
Change in XC energy                          ...     0.000028085
Integrated number of electrons               ...    17.999957922
Previous integrated no of electrons          ...    17.998364921

----------------
TOTAL SCF ENERGY
----------------

Total Energy       :         -115.72574770 Eh           -3149.05769 eV

Components:
Nuclear Repulsion  :           39.98803740 Eh            1088.12982 eV
Electronic Energy  :         -155.71378510 Eh           -4237.18751 eV
One Electron Energy:         -236.31699422 Eh           -6430.51233 eV
Two Electron Energy:           80.60320912 Eh            2193.32483 eV

Virial components:
Potential Energy   :         -230.90528469 Eh           -6283.25223 eV
Kinetic Energy     :          115.17953699 Eh            3134.19454 eV
Virial Ratio       :            2.00474225


DFT components:
N(Alpha)           :        8.999978960913 electrons
N(Beta)            :        8.999978960913 electrons
N(Total)           :       17.999957921826 electrons
E(XC)              :      -10.638372567102 Eh       
DFET-embed. en.    :        0.000000000000 Eh       

---------------
SCF CONVERGENCE
---------------

  Last Energy change         ...   -2.4882e-10  Tolerance :   1.0000e-08
  Last MAX-Density change    ...    1.6965e-06  Tolerance :   1.0000e-07
  Last RMS-Density change    ...    4.4658e-08  Tolerance :   5.0000e-09
  Last Orbital Gradient      ...    7.3473e-07  Tolerance :   1.0000e-05
  Last Orbital Rotation      ...    5.3165e-07  Tolerance :   1.0000e-05

             **** THE GBW FILE WAS UPDATED (19-171_DFT_A.gbw) ****
             **** DENSITY FILE WAS UPDATED (19-171_DFT_A.scfp.tmp) ****
             **** ENERGY FILE WAS UPDATED (19-171_DFT_A.en.tmp) ****
----------------
ORBITAL ENERGIES
----------------

  NO   OCC          E(Eh)            E(eV) 
   0   2.0000     -19.241783      -523.5955 
   1   2.0000     -10.318361      -280.7769 
   2   2.0000      -1.142407       -31.0865 
   3   2.0000      -0.797475       -21.7004 
   4   2.0000      -0.614785       -16.7291 
   5   2.0000      -0.531380       -14.4596 
   6   2.0000      -0.526093       -14.3157 
   7   2.0000      -0.445474       -12.1220 
   8   2.0000      -0.377742       -10.2789 
   9   0.0000       0.076284         2.0758 
  10   0.0000       0.127855         3.4791 
  11   0.0000       0.154012         4.1909 
  12   0.0000       0.168690         4.5903 
  13   0.0000       0.195809         5.3282 
  14   0.0000       0.201700         5.4885 
  15   0.0000       0.209766         5.7080 
  16   0.0000       0.229635         6.2487 
  17   0.0000       0.266432         7.2500 
  18   0.0000       0.297957         8.1078 
  19   0.0000       0.314692         8.5632 
  20   0.0000       0.325763         8.8645 
  21   0.0000       0.352696         9.5974 
  22   0.0000       0.361118         9.8265 
  23   0.0000       0.377997        10.2858 
  24   0.0000       0.423871        11.5341 
  25   0.0000       0.444079        12.0840 
  26   0.0000       0.465674        12.6716 
  27   0.0000       0.488248        13.2859 
  28   0.0000       0.502479        13.6732 
  29   0.0000       0.535163        14.5625 
  30   0.0000       0.544007        14.8032 
  31   0.0000       0.570377        15.5208 
  32   0.0000       0.623456        16.9651 
  33   0.0000       0.628890        17.1130 
  34   0.0000       0.658181        17.9100 
  35   0.0000       0.691511        18.8170 
  36   0.0000       0.717210        19.5163 
  37   0.0000       0.760871        20.7044 
  38   0.0000       0.791973        21.5507 
  39   0.0000       0.802252        21.8304 
  40   0.0000       0.807230        21.9658 
  41   0.0000       0.864915        23.5355 
  42   0.0000       0.897183        24.4136 
  43   0.0000       0.977646        26.6031 
  44   0.0000       1.006305        27.3830 
  45   0.0000       1.046111        28.4661 
  46   0.0000       1.074791        29.2466 
  47   0.0000       1.114870        30.3372 
  48   0.0000       1.151516        31.3343 
  49   0.0000       1.174181        31.9511 
  50   0.0000       1.188888        32.3513 
  51   0.0000       1.203994        32.7624 
  52   0.0000       1.243819        33.8460 
  53   0.0000       1.353648        36.8346 
  54   0.0000       1.371608        37.3234 
  55   0.0000       1.387544        37.7570 
  56   0.0000       1.461004        39.7559 
  57   0.0000       1.528003        41.5791 
  58   0.0000       1.542679        41.9784 
  59   0.0000       1.574855        42.8540 
  60   0.0000       1.597314        43.4651 
  61   0.0000       1.621762        44.1304 
  62   0.0000       1.659822        45.1660 
  63   0.0000       1.701397        46.2974 
  64   0.0000       1.798325        48.9349 
  65   0.0000       1.819108        49.5004 
  66   0.0000       1.892940        51.5095 
  67   0.0000       1.934428        52.6385 
  68   0.0000       1.963321        53.4247 
  69   0.0000       1.998764        54.3891 
  70   0.0000       2.028309        55.1931 
  71   0.0000       2.071765        56.3756 
  72   0.0000       2.083893        56.7056 
  73   0.0000       2.120015        57.6886 
  74   0.0000       2.145436        58.3803 
  75   0.0000       2.206469        60.0411 
  76   0.0000       2.223339        60.5001 
  77   0.0000       2.233473        60.7759 
  78   0.0000       2.248509        61.1851 
  79   0.0000       2.328166        63.3526 
  80   0.0000       2.345818        63.8330 
  81   0.0000       2.368774        64.4576 
  82   0.0000       2.482183        67.5436 
  83   0.0000       2.506244        68.1984 
  84   0.0000       2.523792        68.6759 
  85   0.0000       2.555773        69.5461 
  86   0.0000       2.588648        70.4407 
  87   0.0000       2.640201        71.8435 
  88   0.0000       2.641129        71.8688 
  89   0.0000       2.672481        72.7219 
  90   0.0000       2.687404        73.1280 
  91   0.0000       2.742504        74.6273 
  92   0.0000       2.796548        76.0980 
  93   0.0000       2.844191        77.3944 
  94   0.0000       2.872045        78.1523 
  95   0.0000       2.884420        78.4891 
  96   0.0000       2.960341        80.5550 
  97   0.0000       3.003772        81.7368 
  98   0.0000       3.075895        83.6994 
  99   0.0000       3.095302        84.2275 
 100   0.0000       3.121387        84.9373 
 101   0.0000       3.144678        85.5710 
 102   0.0000       3.180245        86.5389 
 103   0.0000       3.202295        87.1389 
 104   0.0000       3.277705        89.1909 
 105   0.0000       3.299493        89.7838 
 106   0.0000       3.353032        91.2406 
 107   0.0000       3.392730        92.3209 
 108   0.0000       3.446464        93.7830 
 109   0.0000       3.465295        94.2955 
 110   0.0000       3.527750        95.9950 
 111   0.0000       3.561187        96.9048 
 112   0.0000       3.578997        97.3895 
 113   0.0000       3.650736        99.3416 
 114   0.0000       3.677484       100.0694 
 115   0.0000       3.715589       101.1063 
 116   0.0000       3.747148       101.9651 
 117   0.0000       4.072450       110.8170 
 118   0.0000       4.089077       111.2694 
 119   0.0000       4.097700       111.5041 
 120   0.0000       4.220536       114.8466 
 121   0.0000       4.283596       116.5626 
 122   0.0000       4.291268       116.7713 
 123   0.0000       4.293265       116.8257 
 124   0.0000       4.356130       118.5363 
 125   0.0000       4.363767       118.7441 
 126   0.0000       4.503286       122.5406 
 127   0.0000       4.560965       124.1102 
 128   0.0000       4.572396       124.4212 
 129   0.0000       4.627006       125.9072 
 130   0.0000       4.640403       126.2718 
 131   0.0000       5.081353       138.2707 
 132   0.0000       5.116537       139.2280 
 133   0.0000       5.153494       140.2337 
 134   0.0000       5.341882       145.3600 
 135   0.0000       5.365314       145.9976 
 136   0.0000       5.416171       147.3815 
 137   0.0000       5.504043       149.7726 
 138   0.0000       5.537468       150.6822 
 139   0.0000       5.661751       154.0641 
 140   0.0000       5.722316       155.7121 
 141   0.0000       5.792842       157.6312 
 142   0.0000       5.834278       158.7588 
 143   0.0000       5.943035       161.7182 
 144   0.0000       6.046765       164.5408 
 145   0.0000       6.369077       173.3114 
 146   0.0000       6.524705       177.5462 
 147   0.0000       6.675135       181.6397 
 148   0.0000       6.775878       184.3810 
 149   0.0000       6.791184       184.7975 
 150   0.0000       6.805663       185.1915 
 151   0.0000       6.845651       186.2796 
 152   0.0000       7.039651       191.5587 
 153   0.0000       7.070797       192.4062 
 154   0.0000       7.278512       198.0584 
 155   0.0000       7.317244       199.1123 
 156   0.0000       7.524711       204.7578 
 157   0.0000       8.195094       222.9998 
 158   0.0000       8.879489       241.6232 
 159   0.0000       9.393927       255.6218 
 160   0.0000       9.510902       258.8048 
 161   0.0000       9.544657       259.7233 
 162   0.0000       9.799625       266.6614 
[...]
  82   0.0000       2.411872        65.6304 
  83   0.0000       2.485837        67.6431 
  84   0.0000       2.491726        67.8033 
  85   0.0000       2.553240        69.4772 
  86   0.0000       2.608841        70.9902 
  87   0.0000       2.620842        71.3167 
  88   0.0000       2.663612        72.4806 
  89   0.0000       2.694326        73.3163 
  90   0.0000       2.710291        73.7508 
  91   0.0000       2.735113        74.4262 
  92   0.0000       2.841844        77.3305 
  93   0.0000       2.863989        77.9331 
  94   0.0000       2.909626        79.1750 
  95   0.0000       2.919002        79.4301 
  96   0.0000       2.946446        80.1769 
  97   0.0000       3.081644        83.8558 
  98   0.0000       3.101210        84.3882 
  99   0.0000       3.113771        84.7300 
 100   0.0000       3.138284        85.3970 
 101   0.0000       3.153947        85.8233 
 102   0.0000       3.242429        88.2310 
 103   0.0000       3.257026        88.6282 
 104   0.0000       3.280712        89.2727 
 105   0.0000       3.316802        90.2548 
 106   0.0000       3.330714        90.6333 
 107   0.0000       3.391423        92.2853 
 108   0.0000       3.456270        94.0499 
 109   0.0000       3.486964        94.8851 
 110   0.0000       3.507191        95.4355 
 111   0.0000       3.629051        98.7515 
 112   0.0000       3.640027        99.0502 
 113   0.0000       3.653879        99.4271 
 114   0.0000       3.680191       100.1431 
 115   0.0000       3.697881       100.6245 
 116   0.0000       3.823175       104.0339 
 117   0.0000       4.037722       109.8720 
 118   0.0000       4.064054       110.5885 
 119   0.0000       4.123503       112.2062 
 120   0.0000       4.227896       115.0469 
 121   0.0000       4.261059       115.9493 
 122   0.0000       4.271805       116.2417 
 123   0.0000       4.301310       117.0446 
 124   0.0000       4.358535       118.6018 
 125   0.0000       4.398492       119.6891 
 126   0.0000       4.526278       123.1663 
 127   0.0000       4.545282       123.6834 
 128   0.0000       4.560474       124.0968 
 129   0.0000       4.591653       124.9452 
 130   0.0000       4.681983       127.4032 
 131   0.0000       5.096200       138.6746 
 132   0.0000       5.113243       139.1384 
 133   0.0000       5.147313       140.0655 
 134   0.0000       5.339532       145.2961 
 135   0.0000       5.404354       147.0599 
 136   0.0000       5.491513       149.4317 
 137   0.0000       5.533575       150.5762 
 138   0.0000       5.539787       150.7453 
 139   0.0000       5.656255       153.9145 
 140   0.0000       5.772426       157.0757 
 141   0.0000       5.886127       160.1697 
 142   0.0000       5.921571       161.1341 
 143   0.0000       6.098452       165.9473 
 144   0.0000       6.104445       166.1104 
 145   0.0000       6.382965       173.6893 
 146   0.0000       6.543766       178.0649 
 147   0.0000       6.659663       181.2187 
 148   0.0000       6.801889       185.0888 
 149   0.0000       6.821166       185.6134 
 150   0.0000       6.825294       185.7257 
 151   0.0000       6.842738       186.2004 
 152   0.0000       6.993148       190.2932 
 153   0.0000       7.022553       191.0934 
 154   0.0000       7.225084       196.6045 
 155   0.0000       7.243932       197.1174 
 156   0.0000       7.428775       202.1472 
 157   0.0000       8.143205       221.5879 
 158   0.0000       8.915604       242.6059 
 159   0.0000       9.386580       255.4218 
 160   0.0000       9.561584       260.1839 
 161   0.0000       9.618923       261.7442 
 162   0.0000       9.782586       266.1977 
 163   0.0000       9.902723       269.4668 
 164   0.0000       9.949269       270.7334 
 165   0.0000      10.161376       276.5051 
 166   0.0000      11.165239       303.8216 
 167   0.0000      19.157613       521.3052 
 168   0.0000      22.431510       610.3924 
 169   0.0000      43.686571      1188.7720 
 170   0.0000      65.865814      1792.2999 
 171   0.0000     126.504565      3442.3642 

                    ********************************
                    * MULLIKEN POPULATION ANALYSIS *
                    ********************************

-----------------------
MULLIKEN ATOMIC CHARGES
-----------------------
   0 C :    0.000124
   1 O :   -0.000074
   2 H :    0.001512
   3 H :   -0.001080
   4 H :   -0.000248
   5 H :   -0.000058
   6 C :   -0.182674
   7 O :   -0.433276
   8 H :    0.310771
   9 H :    0.112943
  10 H :    0.093785
  11 H :    0.098275
Sum of atomic charges:   -0.0000000

--------------------------------
MULLIKEN REDUCED ORBITAL CHARGES
--------------------------------
  0 C s       :    -0.001154  s :    -0.001154
      pz      :     0.000677  p :     0.001034
      px      :     0.000063
      py      :     0.000294
      dz2     :     0.000002  d :    -0.000003
      dxz     :    -0.000004
      dyz     :    -0.000003
      dx2y2   :     0.000000
      dxy     :     0.000002
      f0      :    -0.000000  f :    -0.000001
      f+1     :    -0.000000
      f-1     :    -0.000000
      f+2     :    -0.000000
      f-2     :    -0.000000
      f+3     :    -0.000000
      f-3     :    -0.000000
  1 O s       :     0.000414  s :     0.000414
      pz      :    -0.000303  p :    -0.000372
      px      :    -0.000069
      py      :     0.000000
      dz2     :     0.000009  d :     0.000032
      dxz     :     0.000012
      dyz     :     0.000008
      dx2y2   :     0.000004
      dxy     :     0.000000
      f0      :     0.000000  f :     0.000001
      f+1     :     0.000000
      f-1     :     0.000000
      f+2     :     0.000000
      f-2     :    -0.000000
      f+3     :    -0.000000
      f-3     :     0.000000
  2 H s       :    -0.001619  s :    -0.001619
      pz      :     0.000125  p :     0.000107
      px      :    -0.000001
      py      :    -0.000017
  3 H s       :     0.001080  s :     0.001080
      pz      :     0.000001  p :    -0.000000
      px      :    -0.000000
      py      :    -0.000001
  4 H s       :     0.000248  s :     0.000248
      pz      :    -0.000001  p :    -0.000001
      px      :     0.000000
      py      :     0.000000
  5 H s       :     0.000058  s :     0.000058
      pz      :     0.000000  p :     0.000000
      px      :    -0.000000
      py      :     0.000000
  6 C s       :     3.222172  s :     3.222172
      pz      :     1.091492  p :     2.847044
      px      :     0.920220
      py      :     0.835331
      dz2     :     0.011621  d :     0.105277
      dxz     :     0.017142
      dyz     :     0.024150
      dx2y2   :     0.041762
      dxy     :     0.010602
      f0      :     0.001160  f :     0.008182
      f+1     :     0.000489
      f-1     :     0.000704
      f+2     :     0.000096
      f-2     :     0.001327
      f+3     :     0.001761
      f-3     :     0.002645
  7 O s       :     3.812389  s :     3.812389
      pz      :     1.349859  p :     4.585733
      px      :     1.683653
      py      :     1.552221
      dz2     :     0.013237  d :     0.033477
      dxz     :     0.002413
      dyz     :     0.004134
      dx2y2   :     0.005642
      dxy     :     0.008051
      f0      :     0.000583  f :     0.001678
      f+1     :     0.000124
      f-1     :     0.000068
      f+2     :     0.000020
      f-2     :     0.000191
      f+3     :     0.000386
      f-3     :     0.000306
  8 H s       :     0.640684  s :     0.640684
      pz      :     0.019186  p :     0.048545
      px      :     0.015706
      py      :     0.013653
  9 H s       :     0.867516  s :     0.867516
      pz      :     0.011892  p :     0.019540
      px      :     0.003689
      py      :     0.003960
 10 H s       :     0.887362  s :     0.887362
      pz      :     0.005275  p :     0.018853
      px      :     0.003769
      py      :     0.009809
 11 H s       :     0.882212  s :     0.882212
      pz      :     0.005695  p :     0.019513
      px      :     0.010224
      py      :     0.003593


                     *******************************
                     * LOEWDIN POPULATION ANALYSIS *
                     *******************************

----------------------
LOEWDIN ATOMIC CHARGES
----------------------
   0 C :   -0.002050
   1 O :   -0.011536
   2 H :   -0.029977
   3 H :   -0.000361
   4 H :   -0.000056
   5 H :   -0.000013
   6 C :   -0.421958
   7 O :   -0.020700
   8 H :    0.174843
   9 H :    0.123037
  10 H :    0.095027
  11 H :    0.093743

-------------------------------
LOEWDIN REDUCED ORBITAL CHARGES
-------------------------------
  0 C s       :     0.000132  s :     0.000132
      pz      :     0.001328  p :     0.001872
      px      :     0.000300
      py      :     0.000245
      dz2     :     0.000022  d :     0.000044
      dxz     :     0.000009
      dyz     :     0.000008
      dx2y2   :     0.000003
      dxy     :     0.000002
      f0      :     0.000000  f :     0.000001
      f+1     :     0.000000
      f-1     :     0.000000
      f+2     :     0.000000
      f-2     :     0.000001
      f+3     :     0.000000
      f-3     :     0.000000
  1 O s       :     0.000945  s :     0.000945
      pz      :     0.004166  p :     0.010380
      px      :     0.000614
      py      :     0.005600
      dz2     :     0.000011  d :     0.000204
      dxz     :     0.000012
      dyz     :     0.000135
      dx2y2   :     0.000041
      dxy     :     0.000004
      f0      :     0.000001  f :     0.000007
      f+1     :     0.000000
      f-1     :     0.000001
      f+2     :     0.000002
      f-2     :     0.000001
      f+3     :     0.000000
      f-3     :     0.000001
  2 H s       :     0.027993  s :     0.027993
      pz      :     0.001072  p :     0.001984
      px      :     0.000367
      py      :     0.000545
  3 H s       :     0.000360  s :     0.000360
      pz      :     0.000001  p :     0.000001
      px      :     0.000000
      py      :     0.000000
  4 H s       :     0.000055  s :     0.000055
      pz      :     0.000001  p :     0.000001
      px      :     0.000000
      py      :     0.000000
  5 H s       :     0.000011  s :     0.000011
      pz      :     0.000002  p :     0.000002
      px      :     0.000000
      py      :     0.000000
  6 C s       :     2.859433  s :     2.859433
      pz      :     1.092121  p :     3.047559
      px      :     1.003922
      py      :     0.951516
      dz2     :     0.068127  d :     0.451965
      dxz     :     0.057954
      dyz     :     0.076232
      dx2y2   :     0.162668
      dxy     :     0.086985
      f0      :     0.006172  f :     0.063000
      f+1     :     0.004044
      f-1     :     0.006025
      f+2     :     0.006367
      f-2     :     0.010358
      f+3     :     0.013268
      f-3     :     0.016766
  7 O s       :     3.349066  s :     3.349066
      pz      :     1.358733  p :     4.587510
      px      :     1.648907
      py      :     1.579870
      dz2     :     0.026690  d :     0.078549
      dxz     :     0.007204
      dyz     :     0.009731
      dx2y2   :     0.016656
      dxy     :     0.018267
      f0      :     0.001858  f :     0.005575
      f+1     :     0.000315
      f-1     :     0.000517
      f+2     :     0.000061
      f-2     :     0.000730
      f+3     :     0.000961
      f-3     :     0.001133
  8 H s       :     0.664585  s :     0.664585
      pz      :     0.078708  p :     0.160572
      px      :     0.042337
      py      :     0.039527
  9 H s       :     0.822281  s :     0.822281
      pz      :     0.034042  p :     0.054682
      px      :     0.010378
      py      :     0.010262
 10 H s       :     0.848382  s :     0.848382
      pz      :     0.016251  p :     0.056590
      px      :     0.012057
      py      :     0.028282
 11 H s       :     0.846654  s :     0.846654
      pz      :     0.018008  p :     0.059603
      px      :     0.030494
      py      :     0.011102


                      *****************************
                      * MAYER POPULATION ANALYSIS *
                      *****************************

  NA   - Mulliken gross atomic population
  ZA   - Total nuclear charge
  QA   - Mulliken gross atomic charge
  VA   - Mayer's total valence
  BVA  - Mayer's bonded valence
  FA   - Mayer's free valence

  ATOM       NA         ZA         QA         VA         BVA        FA
  0 C     -0.0001     0.0000     0.0001    -0.0002    -0.0002     0.0000
  1 O      0.0001     0.0000    -0.0001     0.0001     0.0001    -0.0000
  2 H     -0.0015     0.0000     0.0015    -0.0030    -0.0030    -0.0000
  3 H      0.0011     0.0000    -0.0011     0.0022     0.0022    -0.0000
  4 H      0.0002     0.0000    -0.0002     0.0005     0.0005    -0.0000
  5 H      0.0001     0.0000    -0.0001     0.0001     0.0001    -0.0000
  6 C      6.1827     6.0000    -0.1827     3.9296     3.9296     0.0000
  7 O      8.4333     8.0000    -0.4333     1.9153     1.9153    -0.0000
  8 H      0.6892     1.0000     0.3108     0.9146     0.9146     0.0000
  9 H      0.8871     1.0000     0.1129     0.9606     0.9606     0.0000
 10 H      0.9062     1.0000     0.0938     0.9563     0.9563     0.0000
 11 H      0.9017     1.0000     0.0983     0.9587     0.9587    -0.0000

  Mayer bond orders larger than 0.1
B(  6-C ,  7-O ) :   0.9972 B(  6-C ,  9-H ) :   0.9773 B(  6-C , 10-H ) :   0.9728 
B(  6-C , 11-H ) :   0.9808 B(  7-O ,  8-H ) :   0.9019 

-------
TIMINGS
-------

Total SCF time: 0 days 0 hours 0 min 8 sec 

Total time                  ....       8.820 sec
Sum of individual times     ....       8.574 sec  ( 97.2%)

Fock matrix formation       ....       8.097 sec  ( 91.8%)
  XC integration            ....       0.700 sec  (  8.6% of F)
    Basis function eval.    ....       0.060 sec  (  8.6% of XC)
    Density eval.           ....       0.052 sec  (  7.5% of XC)
    XC-Functional eval.     ....       0.077 sec  ( 11.1% of XC)
    XC-Potential eval.      ....       0.068 sec  (  9.7% of XC)
Diagonalization             ....       0.037 sec  (  0.4%)
Density matrix formation    ....       0.004 sec  (  0.1%)
Population analysis         ....       0.018 sec  (  0.2%)
Initial guess               ....       0.095 sec  (  1.1%)
Orbital Transformation      ....       0.000 sec  (  0.0%)
Orbital Orthonormalization  ....       0.000 sec  (  0.0%)
DIIS solution               ....       0.019 sec  (  0.2%)
SOSCF solution              ....       0.019 sec  (  0.2%)
Grid generation             ....       0.286 sec  (  3.2%)


-------------------------------------------------------------------------------
                          DFT DISPERSION CORRECTION                            
                                                                               
                              DFTD3 V3.1  Rev 1                                
                              USING zero damping                               
-------------------------------------------------------------------------------
The omegaB97X-D3 functional is recognized. Fit by Chai et al.
Active option DFTDOPT                   ...         3   

molecular C6(AA) [au] = 208.634969 


            DFT-D V3
 parameters
 s6 scaling factor         :     1.0000 
 rs6 scaling factor        :     1.2810 
 s8 scaling factor         :     1.0000 
 rs8 scaling factor        :     1.0940 
 Damping factor alpha6     :    14.0000 
 Damping factor alpha8     :    16.0000 
 ad hoc parameters k1-k3   :    16.0000     1.3333    -4.0000 

 Edisp/kcal,au: -0.134605090329  -0.000214506843 
 E6   /kcal   :  -0.026038769 
 E8   /kcal   :  -0.108566322 
 % E8         :  80.655435395 

-------------------------   ----------------
Dispersion correction           -0.000214507
-------------------------   ----------------


-------------------------   --------------------
FINAL SINGLE POINT ENERGY      -115.728795395082
-------------------------   --------------------


                            ***************************************
                            *     ORCA property calculations      *
                            ***************************************

                                    ---------------------
                                    Active property flags
                                    ---------------------
   (+) Dipole Moment


------------------------------------------------------------------------------
                       ORCA ELECTRIC PROPERTIES CALCULATION
------------------------------------------------------------------------------

Dipole Moment Calculation                       ... on
Quadrupole Moment Calculation                   ... off
Polarizability Calculation                      ... off
GBWName                                         ... 19-171_DFT_B.gbw
Electron density file                           ... 19-171_DFT_B.scfp.tmp
The origin for moment calculation is the CENTER OF MASS  = (-4.612402,  3.968321 -8.933637)

-------------
DIPOLE MOMENT
-------------
                                X             Y             Z
Electronic contribution:     -1.23023      -1.62621      -0.00465
Nuclear contribution   :      1.44350       2.04963       0.52451
                        -----------------------------------------
Total Dipole Moment    :      0.21327       0.42342       0.51987
                        -----------------------------------------
Magnitude (a.u.)       :      0.70358
Magnitude (Debye)      :      1.78836



--------------------
Rotational spectrum 
--------------------
 
Rotational constants in cm-1:     4.226005     0.869988     0.828805 
Rotational constants in MHz : 126692.440124 26081.575537 24846.959674 

 Dipole components along the rotational axes: 
x,y,z [a.u.] :     0.365041     0.599329     0.050761 
x,y,z [Debye]:     0.927862     1.523374     0.129023 

 
------------------------------------------------------------------------------
                      ORCA CHELPG CHARGES GENERATION
------------------------------------------------------------------------------

GBW file                           ... 19-171_DFT_B.gbw

Reading the GBW file               ... done

Grid spacing                       ...     0.300000
Point Cut-Off                      ...     2.800000
Van-der-Waals Radii                ...        COSMO
Total charge                       ...            0


Number of points X direction       ...           27
Number of points Y direction       ...           32
Number of points Z direction       ...           36
Maximum number of possible points  ...        31104
Final number of points             ...         5866


CHELPG Charges            
--------------------------------
  0   C   :       0.023502
  1   O   :       0.001598
  2   H   :       0.007120
  3   H   :      -0.014468
  4   H   :       0.012583
  5   H   :      -0.024427
  6   C   :       0.091025
  7   O   :      -0.588909
  8   H   :       0.413716
  9   H   :       0.063681
 10   H   :       0.002226
 11   H   :       0.012353
--------------------------------
Total charge:    -0.000000
--------------------------------

CHELPG charges calculated...

Timings for individual parts in CHELPG calculation:
Grid generation                 ...        0.001 sec (=   0.000 min)
Potential calculation           ...        1.235 sec (=   0.021 min)
Fit to the potential            ...        0.002 sec (=   0.000 min)
------------------------------------------------------------------------------


Timings for individual modules:

Sum of individual times         ...       23.759 sec (=   0.396 min)
GTO integral calculation        ...        2.158 sec (=   0.036 min)   9.1 %
SCF iterations                  ...       20.197 sec (=   0.337 min)  85.0 %
CHELPG charge generation        ...        1.405 sec (=   0.023 min)   5.9 %



                             ****ORCA TERMINATED NORMALLY****
TOTAL RUN TIME: 0 days 0 hours 1 minutes 42 seconds 149 msec
