LAMMPS data file via vdw_self_gen.py, on 2021-08-05 13:21:54.958346

7000 atoms
7 atom types
6500 bonds
7 bond types
10500 angles
10 angle types
13500 dihedrals
10 dihedral types

-43.9052582933158106  43.9052582933158106 xlo xhi
-43.9052582933158106  43.9052582933158106 ylo yhi
-43.9052582933158106  43.9052582933158106 zlo zhi

Masses

1  1.007940
2  1.007940
3  1.007940
4  12.011000
5  12.011000
6  15.999400
7  15.999400

Atoms

1         0    6   -0.6441380000000000   3.2244828814130102   5.8417542270198446  -4.6569792878233631  0 0 0
2         0    5    0.1888780000000000   4.1205608253017312   5.5874585713229781  -5.7404883108452580  0 0 0
3         0    4    0.4715480000000000   5.4148320437020434   4.9883312044362755  -5.1905688508622738  0 0 0
4         0    7   -0.6823000000000000   5.9583507398481856   5.8750781463104573  -4.1957928972845924  0 0 0
5         0    5    0.1888780000000000   5.1941829316004489   3.6250215936428272  -4.5304060022809605  0 0 0
6         0    6   -0.6441380000000000   6.4465003207211309   3.1203390675972846  -4.0618810116878770  0 0 0
7         0    3    0.4025730000000000   2.4242820713603130   6.2435885009987437  -5.0414503042171326  0 0 0
8         0    1   -0.0094320000000000   4.3261443930609200   6.5469668876072449  -6.2254444962359958  0 0 0
9         0    1   -0.0094320000000000   3.6386285972428745   4.9132973577841641  -6.4547102331621939  0 0 0
10        0    2   -0.0487190000000000   6.1638303976540785   4.9001509726544148  -5.9843810620936448  0 0 0
11        0    3    0.4025730000000000   5.1851388708419108   6.1680182805356614  -3.6705136919204908  0 0 0
12        0    1   -0.0094320000000000   4.7762491351614971   2.9019903198491521  -5.2368100437546907  0 0 0
13        0    1   -0.0094320000000000   4.5319068056360896   3.6997455745864865  -3.6620182194042248  0 0 0
14        0    3    0.4025730000000000   6.8919784427247848   3.8853277519234828  -3.6456240446963672  0 0 0
15        1    6   -0.6441380000000000  -34.2129829854094041 -5.4813314953509549  -22.5629511549014552 0 0 0
16        1    5    0.1888780000000000  -34.1248498351196403 -6.1105654865384400  -23.8427600848414940 0 0 0
17        1    4    0.4715480000000000  -34.4090337916917122 -5.0754013523151658  -24.9309593749739697 0 0 0
18        1    7   -0.6823000000000000  -35.6894677275446028 -4.4681537529861313  -24.6798593972252576 0 0 0
19        1    5    0.1888780000000000  -33.3616242797834772 -3.9596522978129922  -24.9648927500147018 0 0 0
20        1    6   -0.6441380000000000  -33.6806120617274232 -3.0459667475325993  -26.0165316957462238 0 0 0
21        1    3    0.4025730000000000  -34.0506175114650560 -6.1737188213859993  -21.8967324774262053 0 0 0
22        1    1   -0.0094320000000000  -34.8804546649792826 -6.9020507514941052  -23.8695132257944600 0 0 0
23        1    1   -0.0094320000000000  -33.1302796402083857 -6.5512860951378400  -23.9587792261499963 0 0 0
24        1    2   -0.0487190000000000  -34.4703314227812854 -5.5577512143280261  -25.9120268167122951 0 0 0
25        1    3    0.4025730000000000  -35.7095115370294138 -4.3141544430307084  -23.7126617863749267 0 0 0
26        1    1   -0.0094320000000000  -32.3596331828220158 -4.3577354356825531  -25.1492652204485907 0 0 0
27        1    1   -0.0094320000000000  -33.3522460139840788 -3.3866191943037469  -24.0322428734730522 0 0 0
28        1    3    0.4025730000000000  -34.6478345393375378 -2.9126813683698032  -25.9561661972626077 0 0 0
29        2    6   -0.6441380000000000  -6.2364251574537404  -35.4572321463101545  14.2408458226633154 0 0 0
30        2    5    0.1888780000000000  -5.5332157283824683  -35.0366843677113167  15.4114225308635238 0 0 0
31        2    4    0.4715480000000000  -4.3641394433221077  -34.1421453304307008  14.9996415800042797 0 0 0
32        2    7   -0.6823000000000000  -3.5366150929542624  -34.8520607428908633  14.0602079918780074 0 0 0
33        2    5    0.1888780000000000  -4.8269361562846553  -32.8466164797489313  14.3284200728084592 0 0 0
34        2    6   -0.6441380000000000  -3.6847068733204273  -32.0559325418701491  13.9927861390062596 0 0 0
35        2    3    0.4025730000000000  -6.9563414057169641  -36.0421587155125565  14.5394954279329536 0 0 0
36        2    1   -0.0094320000000000  -5.1607904236208171  -35.9375974011270714  15.9091758961909875 0 0 0
37        2    1   -0.0094320000000000  -6.2247731945936593  -34.5114269931643136  16.0767930517100233 0 0 0
38        2    2   -0.0487190000000000  -3.7368023806073785  -33.9084090193764993  15.8660869971190728 0 0 0
39        2    3    0.4025730000000000  -4.1665317048979631  -35.2983974443024024  13.4572342186752003 0 0 0
40        2    1   -0.0094320000000000  -5.4670074557278330  -32.2589618005982359  14.9928147300728174 0 0 0
41        2    1   -0.0094320000000000  -5.3661113092541211  -33.0452888522872286  13.3966957978159318 0 0 0
42        2    3    0.4025730000000000  -3.0366721301326676  -32.6865673585528853  13.6195851120662184 0 0 0
43        3    6   -0.6441380000000000  -15.6622800156405226  25.5020349421596144 -15.8287044125601213 0 0 0
44        3    5    0.1888780000000000  -15.9333273194391865  24.7590964266549598 -14.6386668138754370 0 0 0
45        3    4    0.4715480000000000  -14.7438323314592967  23.8486404737966673 -14.3342417287138630 0 0 0
46        3    7   -0.6823000000000000  -14.4823328811675154  23.0173425500267896 -15.4796122841381720 0 0 0
47        3    5    0.1888780000000000  -13.4676046152521707  24.6362966368801750 -14.0277214237725758 0 0 0
48        3    6   -0.6441380000000000  -12.4092412022906835  23.7221921539859402 -13.7331049910041632 0 0 0
49        3    3    0.4025730000000000  -16.4485190386827185  26.0504909813226249 -16.0037308515665586 0 0 0
50        3    1   -0.0094320000000000  -16.8288832072458625  24.1583834970970592 -14.8263552316767644 0 0 0
51        3    1   -0.0094320000000000  -16.1261275514170599  25.4548883429472745 -13.8167381987442059 0 0 0
52        3    2   -0.0487190000000000  -14.9772307252920402  23.1794825717562993 -13.4995771217649256 0 0 0
53        3    3    0.4025730000000000  -14.5736297552793825  23.6150278020656472 -16.2503430934825523 0 0 0
54        3    1   -0.0094320000000000  -13.6019243173379447  25.2944562814025034 -13.1644522589961177 0 0 0
55        3    1   -0.0094320000000000  -13.1467064520533263  25.2345455278761008 -14.8864491542423387 0 0 0
56        3    3    0.4025730000000000  -12.4895659562494288  23.0124640933735343 -14.4015078042693521 0 0 0
57        4    6   -0.6441380000000000   23.3063739697707391 -6.4433747476150991  -34.4401067903024440 0 0 0
58        4    5    0.1888780000000000   23.7115118041084578 -5.3211276235435276  -35.2262610326119443 0 0 0
59        4    4    0.4715480000000000   24.3446619618056488 -4.2716333844884602  -34.3129233508105997 0 0 0
60        4    7   -0.6823000000000000   23.4130078084383051 -3.9320035500370696  -33.2698586242169441 0 0 0
61        4    5    0.1888780000000000   25.6284795488429005 -4.7734026059718282  -33.6472250980069703 0 0 0
62        4    6   -0.6441380000000000   26.1720093659388979 -3.7348877561023670  -32.8295569461701646 0 0 0
63        4    3    0.4025730000000000   22.8875274320220825 -7.0779347691180821  -35.0496240087024589 0 0 0
64        4    1   -0.0094320000000000   22.8130074773326861 -4.9143222366678554  -35.7009216124731310 0 0 0
65        4    1   -0.0094320000000000   24.4116713466076760 -5.6563786371627307  -35.9971360818349595 0 0 0
66        4    2   -0.0487190000000000   24.5500078884698070 -3.3520386748607072  -34.8706784356167176 0 0 0
67        4    3    0.4025730000000000   23.0256891387346379 -4.7872172403787747  -32.9902471935652315 0 0 0
68        4    1   -0.0094320000000000   26.3807496975299856 -5.0533649612657090  -34.3902999622788172 0 0 0
69        4    1   -0.0094320000000000   25.4357715780865945 -5.6302147538910772  -32.9937518675032351 0 0 0
70        4    3    0.4025730000000000   25.4048732636567749 -3.3491675151657834  -32.3608881897896978 0 0 0
71        5    6   -0.6441380000000000  -35.2528659126292183  22.8135236746166434 -14.5913324919416620 0 0 0
72        5    5    0.1888780000000000  -34.2779663081862438  23.4015191250815704 -13.7279404161791643 0 0 0
73        5    4    0.4715480000000000  -33.5507009270964218  24.5166638335246247 -14.4789666112614270 0 0 0
74        5    7   -0.6823000000000000  -32.9906914382194643  23.9799581196923945 -15.6912571122996898 0 0 0
75        5    5    0.1888780000000000  -34.4837262614074760  25.6671583275463178 -14.8648943984956361 0 0 0
76        5    6   -0.6441380000000000  -33.7316980128547002  26.6768499316478049 -15.5412784166285487 0 0 0
77        5    3    0.4025730000000000  -35.6773198739302231  22.0945679723040662 -14.0887873542195798 0 0 0
78        5    1   -0.0094320000000000  -33.5719524727573599  22.6130239590573936 -13.4487932302010265 0 0 0
79        5    1   -0.0094320000000000  -34.7751031940389979  23.7809303610865008 -12.8302951636891613 0 0 0
80        5    2   -0.0487190000000000  -32.7158672426310773  24.8991057848282225 -13.8825582047436153 0 0 0
81        5    3    0.4025730000000000  -33.6883182847892328  23.3953154366712397 -16.0533323480379870 0 0 0
82        5    1   -0.0094320000000000  -34.9474160735333683  26.1185269663589565 -13.9830170482211802 0 0 0
83        5    1   -0.0094320000000000  -35.2693517296158419  25.3364085371580607 -15.5516897695200100 0 0 0
84        5    3    0.4025730000000000  -33.1465014621936973  26.1917902517713905 -16.1570628033684578 0 0 0
85        6    6   -0.6441380000000000  -4.9424696348901405   26.0037149030307084 -33.0949193027889166 0 0 0
86        6    5    0.1888780000000000  -5.8839592072671039   25.0039243817694015 -33.4894190666690577 0 0 0
87        6    4    0.4715480000000000  -5.2597088085779351   24.1282838210728023 -34.5757284375203611 0 0 0
88        6    7   -0.6823000000000000  -4.8258355916808515   24.9652740945974152 -35.6631626762146183 0 0 0
89        6    5    0.1888780000000000  -4.0423026226792471   23.3493403961828783 -34.0714631982302194 0 0 0
90        6    6   -0.6441380000000000  -3.5282682247236168   22.5406540496595831 -35.1317999337370139 0 0 0
91        6    3    0.4025730000000000  -5.3819794538795245   26.5548423014245536 -32.4220896123385458 0 0 0
92        6    1   -0.0094320000000000  -6.7639824000421491   25.5222212662771284 -33.8831586173718122 0 0 0
93        6    1   -0.0094320000000000  -6.1694019523939509   24.4136103881035460 -32.6136812082109842 0 0 0
94        6    2   -0.0487190000000000  -6.0026511063971162   23.4344001900155270 -34.9825138390061241 0 0 0
95        6    3    0.4025730000000000  -4.4105212951779045   25.7412655867853886 -35.2331161678319233 0 0 0
96        6    1   -0.0094320000000000  -4.3055264061427128   22.6930458749260637 -33.2369332154929396 0 0 0
97        6    1   -0.0094320000000000  -3.2358807116226123   24.0198999172639240 -33.7578961211074358 0 0 0
98        6    3    0.4025730000000000  -3.5445810407942000   23.1148651102362557 -35.9235977973633638 0 0 0
99        7    6   -0.6441380000000000   24.3375682077087454 -34.5555608950322011 -16.5175945809914140 0 0 0
100       7    5    0.1888780000000000   23.7398358971970076 -33.5748136820633363 -15.6676153140536236 0 0 0
101       7    4    0.4715480000000000   23.9616789580796272 -33.9736037507453332 -14.2087612643081282 0 0 0
102       7    7   -0.6823000000000000   23.4460303924295701 -35.3009748600628228 -14.0001841689877367 0 0 0
103       7    5    0.1888780000000000   25.4430739619411206 -33.9821745122040397 -13.8233919650869677 0 0 0
104       7    6   -0.6441380000000000   25.5693774253726431 -34.3415540002120139 -12.4459258926465832 0 0 0
105       7    3    0.4025730000000000   24.1558558518020234 -34.2817782710292036 -17.4350005854980665 0 0 0
106       7    1   -0.0094320000000000   22.6691230110218207 -33.5562063830747803 -15.8941787663197776 0 0 0
107       7    1   -0.0094320000000000   24.1763048706851649 -32.5957599714120505 -15.8862786064512189 0 0 0
108       7    2   -0.0487190000000000   23.4075589889772679 -33.3062224961019524 -13.5405805739311660 0 0 0
109       7    3    0.4025730000000000   23.7281743031938994 -35.8074107667947885 -14.7898082860150613 0 0 0
110       7    1   -0.0094320000000000   25.8980697809558009 -32.9973928521451541 -13.9635113341650552 0 0 0
111       7    1   -0.0094320000000000   26.0061761159116038 -34.7213795707045918 -14.4019959120843932 0 0 0
112       7    3    0.4025730000000000   24.9465145160688841 -35.0846471823010404 -12.3163781182679504 0 0 0
113       8    6   -0.6441380000000000  -6.1739012156779136  -5.8500286618629751  -15.6790656345982118 0 0 0
114       8    5    0.1888780000000000  -5.4468909780722283  -4.6296431133734943  -15.8331078121164257 0 0 0
115       8    4    0.4715480000000000  -4.7852186701126440  -4.2690198741376806  -14.5032041926001476 0 0 0
116       8    7   -0.6823000000000000  -5.7929701241486402  -4.2081083460921942  -13.4775148134801839 0 0 0
117       8    5    0.1888780000000000  -3.7405011736019440  -5.3008534393853717  -14.0707704308369870 0 0 0
118       8    6   -0.6441380000000000  -3.1523850263668485  -4.8866186943742633  -12.8358421189957923 0 0 0
119       8    3    0.4025730000000000  -6.5996949330574166  -6.0344725673522488  -16.5359730033190111 0 0 0
120       8    1   -0.0094320000000000  -6.1663387829769762  -3.8554102780479473  -16.1178211536048615 0 0 0
121       8    1   -0.0094320000000000  -4.7064617782930185  -4.7505090462493698  -16.6293621653129264 0 0 0
122       8    2   -0.0487190000000000  -4.3261364753061970  -3.2766013461375256  -14.5603103909827034 0 0 0
123       8    3    0.4025730000000000  -6.3718715648451738  -4.9798412707024609  -13.6474859146473015 0 0 0
124       8    1   -0.0094320000000000  -2.9437692309537669  -5.3983148134052072  -14.8138512091096057 0 0 0
125       8    1   -0.0094320000000000  -4.1910652208287642  -6.2836314635718651  -13.8992184669231875 0 0 0
126       8    3    0.4025730000000000  -3.8998632820275279  -4.5740155415764532  -12.2876780622798023 0 0 0
127       9    6   -0.6441380000000000   4.4355219085241222   35.3975230348304990  22.9931069521423090 0 0 0
128       9    5    0.1888780000000000   5.4402322944237049   35.3127620299041638  24.0055230610172039 0 0 0
129       9    4    0.4715480000000000   5.0670756605695599   34.2051175678186965  24.9906021813024957 0 0 0
130       9    7   -0.6823000000000000   3.7507612789137177   34.4631184850394447  25.5121996172233878 0 0 0
131       9    5    0.1888780000000000   5.0469345197712627   32.8218543151829820  24.3353989910210586 0 0 0
132       9    6   -0.6441380000000000   4.7128242771708067   31.8398142957867165  25.3184995495061358 0 0 0
133       9    3    0.4025730000000000   4.6937218919078125   36.1264907114093177  22.4001912939885273 0 0 0
134       9    1   -0.0094320000000000   5.4682100300896010   36.2792177943696288  24.5186349549920841 0 0 0
135       9    1   -0.0094320000000000   6.4091471084534168   35.1210343822442326  23.5350875597244418 0 0 0
136       9    2   -0.0487190000000000   5.7544072251537113   34.2028007328733139  25.8429413548725861 0 0 0
137       9    3    0.4025730000000000   3.2254697916635591   34.7523535534456371  24.7376025033463876 0 0 0
138       9    1   -0.0094320000000000   6.0228652314670912   32.5655154675184377  23.9131441011181742 0 0 0
139       9    1   -0.0094320000000000   4.2894257030669811   32.7595927347130811  23.5476207417575552 0 0 0
140       9    3    0.4025730000000000   3.9804715350936748   32.2322840887471642  25.8347894193328464 0 0 0
141       10   6   -0.6441380000000000   22.6556350676310210 -34.0073448783311036 -34.9720709258917495 0 0 0
142       10   5    0.1888780000000000   23.5341075346064059 -35.0775816709809973 -34.6192351320376730 0 0 0
143       10   4    0.4715480000000000   24.9024577188432943 -34.5030081876315009 -34.2531940325276310 0 0 0
144       10   7   -0.6823000000000000   25.3858972097673998 -33.7046285766917180 -35.3487250294650437 0 0 0
145       10   5    0.1888780000000000   24.8484992520910701 -33.6089101247363331 -33.0119079051610171 0 0 0
146       10   6   -0.6441380000000000   26.1624238184315097 -33.1283190424838168 -32.7200973371096424 0 0 0
147       10   3    0.4025730000000000   21.8047804366860447 -34.4117069893336023 -35.2213654560866232 0 0 0
148       10   1   -0.0094320000000000   23.6213432512697636 -35.7295289588484906 -35.4941396855064824 0 0 0
149       10   1   -0.0094320000000000   23.0997677320036097 -35.6395161488589167 -33.7871032031663816 0 0 0
150       10   2   -0.0487190000000000   25.6277892853294134 -35.3087741752395203 -34.0997423916994080 0 0 0
151       10   3    0.4025730000000000   24.6056261001323548 -33.1967499888790698 -35.6533971412677531 0 0 0
152       10   1   -0.0094320000000000   24.4831321990145057 -34.1582081496664145 -32.1394240100465751 0 0 0
153       10   1   -0.0094320000000000   24.2134222320891688 -32.7320834907635216 -33.1735956116245063 0 0 0
154       10   3    0.4025730000000000   26.5404604434496285 -32.8731188114383244 -33.5854813322928365 0 0 0
155       11   6   -0.6441380000000000  -33.6180764675611385 -32.6695527442913942 -35.2637379859135720 0 0 0
156       11   5    0.1888780000000000  -33.1424567518173419 -33.2549578894512479 -34.0501892777785642 0 0 0
157       11   4    0.4715480000000000  -34.1867490917057992 -34.2404854247220882 -33.5260786147756988 0 0 0
158       11   7   -0.6823000000000000  -35.4447469056943802 -33.5576117055016354 -33.3762891178209173 0 0 0
159       11   5    0.1888780000000000  -34.4061559015895284 -35.4205655378907380 -34.4760184499655153 0 0 0
160       11   6   -0.6441380000000000  -35.3753734859429301 -36.3060480842120583 -33.9111672338559202 0 0 0
161       11   3    0.4025730000000000  -32.9402376172246889 -32.0323767998513134 -35.5538265782460670 0 0 0
162       11   1   -0.0094320000000000  -32.9974532734619643 -32.4423770828302978 -33.3313083849485423 0 0 0
163       11   1   -0.0094320000000000  -32.1851293593952192 -33.7490438955961238 -34.2406315284743883 0 0 0
164       11   2   -0.0487190000000000  -33.9024690868573373 -34.6089311992931101 -32.5349455741378009 0 0 0
165       11   3    0.4025730000000000  -35.5243463743178509 -32.9985034670084829 -34.1766956785411224 0 0 0
166       11   1   -0.0094320000000000  -33.4812111435372017 -35.9821619427943560 -34.6358190239659223 0 0 0
167       11   1   -0.0094320000000000  -34.7961903988750478 -35.0917143000772143 -35.4445331045349548 0 0 0
168       11   3    0.4025730000000000  -36.0788833359028871 -35.7251491203632341 -33.5582386409243227 0 0 0
169       12   6   -0.6441380000000000   33.2119245985937681  6.1210541467565074  -6.0145529487263882  0 0 0
170       12   5    0.1888780000000000   32.8348304149230472  5.0837060720202629  -5.1071816281069253  0 0 0
171       12   4    0.4715480000000000   34.0734165437908203  4.2693493020868356  -4.7340456560538824  0 0 0
172       12   7   -0.6823000000000000   34.6939128773287280  3.7789505207463110  -5.9364620752389072  0 0 0
173       12   5    0.1888780000000000   35.1131488983695945  5.0994499875760964  -3.9770756467455257  0 0 0
174       12   6   -0.6441380000000000   36.2277086023573176  4.2689107745227330  -3.6446899613926420  0 0 0
175       12   3    0.4025730000000000   32.3968430953622999  6.6015698644448362  -6.2476985486085237  0 0 0
176       12   1   -0.0094320000000000   32.1077036263137572  4.4482946094283644  -5.6225865374680621  0 0 0
177       12   1   -0.0094320000000000   32.3680972599971923  5.5305860266523439  -4.2243886530323547  0 0 0
178       12   2   -0.0487190000000000   33.7917405828093038  3.3942282742571406  -4.1392902829336027  0 0 0
179       12   3    0.4025730000000000   34.6611542884875377  4.5323205379274967  -6.5617214232454417  0 0 0
180       12   1   -0.0094320000000000   34.7008314168116812  5.5067109076681753  -3.0493998476284534  0 0 0
181       12   1   -0.0094320000000000   35.4959144569861920  5.9222326184955314  -4.5892928885757680  0 0 0
182       12   3    0.4025730000000000   36.4022525317520547  3.7397048136863758  -4.4486823585126078  0 0 0
183       13   6   -0.6441380000000000  -3.6456484264508928   32.9855001753793999 -35.0651694031293388 0 0 0
184       13   5    0.1888780000000000  -4.6544138176913652   33.9177159489333349 -35.4588442714822420 0 0 0
185       13   4    0.4715480000000000  -5.4823556867457759   34.3072377953507228 -34.2343901099758554 0 0 0
186       13   7   -0.6823000000000000  -6.0120193590317994   33.1153461378634759 -33.6259802309692972 0 0 0
187       13   5    0.1888780000000000  -4.6539481242914906   35.0423719851439444 -33.1777762989429092 0 0 0
188       13   6   -0.6441380000000000  -5.4967481717396920   35.3917935718992851 -32.0777255743257683 0 0 0
189       13   3    0.4025730000000000  -3.1558781168302836   32.7428659109186384 -35.8719306690089752 0 0 0
190       13   1   -0.0094320000000000  -5.2882901406300853   33.4188639480637946 -36.1987434555243297 0 0 0
191       13   1   -0.0094320000000000  -4.1785400148943896   34.7907705027098402 -35.9151170391790231 0 0 0
192       13   2   -0.0487190000000000  -6.3380239667081035   34.9229232549442656 -34.5304903019910014 0 0 0
193       13   3    0.4025730000000000  -5.2730062846474874   32.4726760016227658 -33.6465601258522682 0 0 0
194       13   1   -0.0094320000000000  -4.2176221608693609   35.9611113778878959 -33.5802525501233049 0 0 0
195       13   1   -0.0094320000000000  -3.8528539591022435   34.4102442712362304 -32.7816028853857020 0 0 0
196       13   3    0.4025730000000000  -6.0477202266361028   34.6000583119297076 -31.9148962779933250 0 0 0
197       14   6   -0.6441380000000000  -4.0410959500879677   35.1792918787431361  16.0311431379641611 0 0 0
198       14   5    0.1888780000000000  -4.5864154513045872   35.4615087019308888  14.7409516516712742 0 0 0
199       14   4    0.4715480000000000  -4.8414950797696790   34.1458375204083922  14.0058008329589843 0 0 0
200       14   7   -0.6823000000000000  -3.6178829052872654   33.3897952019619879  13.9559493638072283 0 0 0
201       14   5    0.1888780000000000  -5.8962719563603070   33.2818645948198295  14.7015814281609529 0 0 0
202       14   6   -0.6441380000000000  -6.0956954671548544   32.0839649846585147  13.9480658348798610 0 0 0
203       14   3    0.4025730000000000  -3.8698663793292933   36.0380605259976647  16.4587024054235691 0 0 0
204       14   1   -0.0094320000000000  -3.8470382070538203   36.0588464894741207  14.1981697688149051 0 0 0
205       14   1   -0.0094320000000000  -5.5075479232593203   36.0398564311425815  14.8588237935296199 0 0 0
206       14   2   -0.0487190000000000  -5.1418615327097434   34.3374231095509899  12.9704327485652779 0 0 0
207       14   3    0.4025730000000000  -3.2238471813097793   33.4898869157398238  14.8471879722968705 0 0 0
208       14   1   -0.0094320000000000  -6.8548012844443358   33.8036184387603669  14.7753649252050376 0 0 0
209       14   1   -0.0094320000000000  -5.5747836213911253   32.9819453991539717  15.7040705345106968 0 0 0
210       14   3    0.4025730000000000  -5.1984655168069684   31.7875790015410757  13.6949609710186042 0 0 0
211       15   6   -0.6441380000000000   32.2888506614193105  14.1381344914565386  24.3077434077060737 0 0 0
212       15   5    0.1888780000000000   33.0425641200357560  15.1662900835262828  24.9530540815648898 0 0 0
213       15   4    0.4715480000000000   34.5314528406553052  14.8358259998957607  24.8505510667693592 0 0 0
214       15   7   -0.6823000000000000   34.7619281653473351  13.5266765763347134  25.4022038754251867 0 0 0
215       15   5    0.1888780000000000   35.0305651081447849  14.8273410864735222  23.4035095805341946 0 0 0
216       15   6   -0.6441380000000000   36.4291266121123201  14.5334971599856484  23.3893523037385833 0 0 0
217       15   3    0.4025730000000000   31.3481951125488436  14.3694505500700593  24.4139041443590763 0 0 0
218       15   1   -0.0094320000000000   32.7329883693459038  15.1873352386105154  26.0027317797810156 0 0 0
219       15   1   -0.0094320000000000   32.8123719961181095  16.1280625000490687  24.4852182412295889 0 0 0
220       15   2   -0.0487190000000000   35.1223212316915365  15.5416615298810132  25.4434952996316888 0 0 0
221       15   3    0.4025730000000000   34.0214072964254086  12.9791178041150239  25.0684419934548401 0 0 0
222       15   1   -0.0094320000000000   34.8797585589380574  15.7984035184529166  22.9231506638743454 0 0 0
223       15   1   -0.0094320000000000   34.5329961201095301  14.0539944981067553  22.8096654610827407 0 0 0
224       15   3    0.4025730000000000   36.5449530009911001  13.8054143318492368  24.0323203821936282 0 0 0
225       16   6   -0.6441380000000000  -25.6032765508856990  5.3158104070470635   13.2021034749662185 0 0 0
226       16   5    0.1888780000000000  -25.0448187552829360  4.1136598330946681   13.7355569903510144 0 0 0
227       16   4    0.4715480000000000  -23.9152059784109206  4.4711411938959396   14.7013131976866003 0 0 0
228       16   7   -0.6823000000000000  -22.9528695765624171  5.2931928528789856   14.0161477947067947 0 0 0
229       16   5    0.1888780000000000  -24.4127919129334039  5.2519854447788186   15.9202490474459264 0 0 0
230       16   6   -0.6441380000000000  -23.3088260325137959  5.5302491451338893   16.7841631692972086 0 0 0
231       16   3    0.4025730000000000  -26.3004035259167495  5.0489293025685154   12.5756862503017199 0 0 0
232       16   1   -0.0094320000000000  -24.6514060377748621  3.5354148816357052   12.8935578668864199 0 0 0
233       16   1   -0.0094320000000000  -25.8328280266539672  3.5419158372315218   14.2345711785538853 0 0 0
234       16   2   -0.0487190000000000  -23.3898143327031249  3.5676209515657424   15.0276977937079810 0 0 0
235       16   3    0.4025730000000000  -23.4886268586617213  5.9229551012256758   13.4908360725504206 0 0 0
236       16   1   -0.0094320000000000  -25.1543960503280424  4.6802108337573554   16.4855336204623946 0 0 0
237       16   1   -0.0094320000000000  -24.8473669488889364  6.2146847914746353   15.6327682867058115 0 0 0
238       16   3    0.4025730000000000  -22.5827116938286530  5.8092978799804813   16.1910206251846276 0 0 0
239       17   6   -0.6441380000000000   25.1478024250162910 -24.9296984182460832  35.8372032339455018 0 0 0
240       17   5    0.1888780000000000   25.6542104674462372 -24.6849488348105659  34.5237108278119962 0 0 0
241       17   4    0.4715480000000000   24.4827645684347743 -24.5645949715533938  33.5491686510498255 0 0 0
242       17   7   -0.6823000000000000   23.6734076775042119 -25.7513791408651898  33.6374673960811279 0 0 0
243       17   5    0.1888780000000000   23.5856495245084083 -23.3634474396110932  33.8582694706376586 0 0 0
244       17   6   -0.6441380000000000   22.5299684024787048 -23.3042024790949469  32.8967361299554142 0 0 0
245       17   3    0.4025730000000000   25.9201140040251978 -25.0242483768863906  36.4238932823099546 0 0 0
246       17   1   -0.0094320000000000   26.2832680294161349 -25.5387060846511389  34.2526232844368650 0 0 0
247       17   1   -0.0094320000000000   26.2603450497173334 -23.7742840961528827  34.5361836198253798 0 0 0
248       17   2   -0.0487190000000000   24.8467645658733147 -24.5012759068411441  32.5184374484035175 0 0 0
249       17   3    0.4025730000000000   23.6136880047384352 -25.9443989961359556  34.5959900386702373 0 0 0
250       17   1   -0.0094320000000000   24.1448240880853966 -22.4245329120446932  33.8112283367944855 0 0 0
251       17   1   -0.0094320000000000   23.1185395730531340 -23.4519460005402500  34.8443054637763154 0 0 0
252       17   3    0.4025730000000000   22.2239959010476369 -24.2276786239115260  32.7942620101850437 0 0 0
253       18   6   -0.6441380000000000  -23.5916929636945696  3.6757054250150523   35.4236344745359943 0 0 0
254       18   5    0.1888780000000000  -24.6868393765767671  3.6118675143839845   34.5081057636167330 0 0 0
255       18   4    0.4715480000000000  -24.9843561132739538  5.0164909764291723   33.9836825354342906 0 0 0
256       18   7   -0.6823000000000000  -25.2224692121860272  5.8944808137947664   35.0989169984102176 0 0 0
257       18   5    0.1888780000000000  -23.8229098944422049  5.5962986539736299   33.1725229641895822 0 0 0
258       18   6   -0.6441380000000000  -24.1815183240147071  6.8963400673179693   32.6994359956212222 0 0 0
259       18   3    0.4025730000000000  -23.4472885491701994  2.7703168489477812   35.7538298318515615 0 0 0
260       18   1   -0.0094320000000000  -25.5499877125384209  3.2249957680215924   35.0589310681309314 0 0 0
261       18   1   -0.0094320000000000  -24.4354084293872731  2.9251865017915772   33.6944002675430667 0 0 0
262       18   2   -0.0487190000000000  -25.8963404026719211  5.0140660369970291   33.3777197562472878 0 0 0
263       18   3    0.4025730000000000  -24.5397603013570631  5.6537156165427156   35.7588635288707692 0 0 0
264       18   1   -0.0094320000000000  -23.5878660592182428  4.9697752904252175   32.3072643777824950 0 0 0
265       18   1   -0.0094320000000000  -22.9225037857878995  5.7131740662138970   33.7839963154582250 0 0 0
266       18   3    0.4025730000000000  -24.6164011570259973  7.3346548764146045   33.4581753161909674 0 0 0
267       19   6   -0.6441380000000000  -13.7737460888889380  35.0132706268858058  3.3874645054480359  0 0 0
268       19   5    0.1888780000000000  -14.3070751864095254  35.4360663695407396  4.6438154113380694  0 0 0
269       19   4    0.4715480000000000  -15.1208532778188669  34.2943490606840413  5.2527076888381545  0 0 0
270       19   7   -0.6823000000000000  -16.1302200682126298  33.8826848129580682  4.3130145796826298  0 0 0
271       19   5    0.1888780000000000  -14.2599296662626234  33.0714448299127355  5.5789436304916737  0 0 0