
                                 *****************
                                 * O   R   C   A *
                                 *****************

           --- An Ab Initio, DFT and Semiempirical electronic structure package ---

                  #######################################################
                  #                        -***-                        #
                  #          Department of theory and spectroscopy      #
                  #               Directorship: Frank Neese             #
                  #        Max Planck Institute fuer Kohlenforschung    #
                  #                Kaiser Wilhelm Platz 1               #
                  #                 D-45470 Muelheim/Ruhr               #
                  #                      Germany                        #
                  #                                                     #
                  #                  All rights reserved                #
                  #                        -***-                        #
                  #######################################################


                         Program Version 4.1.2  - RELEASE  -


 With contributions from (in alphabetic order):
   Daniel Aravena         : Magnetic Properties
   Michael Atanasov       : Ab Initio Ligand Field Theory
   Alexander A. Auer      : GIAO ZORA
   Ute Becker             : Parallelization
   Giovanni Bistoni       : ED, Open-shell LED
   Martin Brehm           : Molecular dynamics
   Dmytro Bykov           : SCF Hessian
   Vijay G. Chilkuri      : MRCI spin determinant printing
   Dipayan Datta          : RHF DLPNO-CCSD density
   Achintya Kumar Dutta   : EOM-CC, STEOM-CC
   Dmitry Ganyushin       : Spin-Orbit,Spin-Spin,Magnetic field MRCI
   Miquel Garcia          : C-PCM Hessian
   Yang Guo               : DLPNO-NEVPT2, CIM, IAO-localization
   Andreas Hansen         : Spin unrestricted coupled pair/coupled cluster methods
   Benjamin Helmich-Paris : CASSCF linear response (MC-RPA)
   Lee Huntington         : MR-EOM, pCC
   Robert Izsak           : Overlap fitted RIJCOSX, COSX-SCS-MP3, EOM
   Christian Kollmar      : KDIIS, OOCD, Brueckner-CCSD(T), CCSD density
   Simone Kossmann        : Meta GGA functionals, TD-DFT gradient, OOMP2, MP2 Hessian
   Martin Krupicka        : AUTO-CI
   Lucas Lang             : DCDCAS
   Dagmar Lenk            : GEPOL surface, SMD
   Dimitrios Liakos       : Extrapolation schemes; parallel MDCI
   Dimitrios Manganas     : ROCIS; embedding schemes
   Dimitrios Pantazis     : SARC Basis sets
   Taras Petrenko         : DFT Hessian,TD-DFT gradient, ASA, ECA, R-Raman, ABS, FL, XAS/XES, NRVS
   Peter Pinski           : DLPNO-MP2, DLPNO-MP2 Gradient
   Christoph Reimann      : Effective Core Potentials
   Marius Retegan         : Local ZFS, SOC
   Christoph Riplinger    : Optimizer, TS searches, QM/MM, DLPNO-CCSD(T), (RO)-DLPNO pert. Triples
   Tobias Risthaus        : Range-separated hybrids, TD-DFT gradient, RPA, STAB
   Michael Roemelt        : Restricted open shell CIS
   Masaaki Saitow         : Open-shell DLPNO
   Barbara Sandhoefer     : DKH picture change effects
   Avijit Sen             : IP-ROCIS
   Kantharuban Sivalingam : CASSCF convergence, NEVPT2, FIC-MRCI
   Bernardo de Souza      : ESD, SOC TD-DFT
   Georgi Stoychev        : AutoAux, RI-MP2 NMR
   Willem Van den Heuvel  : Paramagnetic NMR
   Boris Wezisla          : Elementary symmetry handling
   Frank Wennmohs         : Technical directorship


 We gratefully acknowledge several colleagues who have allowed us to
 interface, adapt or use parts of their codes:
   Stefan Grimme, W. Hujo, H. Kruse,             : VdW corrections, initial TS optimization,
                  C. Bannwarth                     DFT functionals, gCP, sTDA/sTD-DF
   Ed Valeev                                     : LibInt (2-el integral package), F12 methods
   Garnet Chan, S. Sharma, J. Yang, R. Olivares  : DMRG
   Ulf Ekstrom                                   : XCFun DFT Library
   Mihaly Kallay                                 : mrcc  (arbitrary order and MRCC methods)
   Andreas Klamt, Michael Diedenhofen            : otool_cosmo (COSMO solvation model)
   Jiri Pittner, Ondrej Demel                    : Mk-CCSD
   Frank Weinhold                                : gennbo (NPA and NBO analysis)
   Christopher J. Cramer and Donald G. Truhlar   : smd solvation model
   Lars Goerigk                                  : TD-DFT with DH, B97 family of functionals
   V. Asgeirsson, H. Jonsson                     : NEB implementation
   FAccTs GmbH                                   : IRC, NEB, NEB-TS, Multilevel


 Your calculation uses the libint2 library for the computation of 2-el integrals
 For citations please refer to: http://libint.valeyev.net

 This ORCA versions uses:
   CBLAS   interface :  Fast vector & matrix operations
   LAPACKE interface :  Fast linear algebra routines
   SCALAPACK package :  Parallel linear algebra routines


Your calculation utilizes the atom-pairwise dispersion correction
with the zero-damping scheme (D30)
Cite in your paper:
S.Grimme, J.Antony, S.Ehrlich and H.Krieg, J.Chem.Phys., 132, (2010), 154104 
   

XCFun DFT library Copyright 2009-2010 Ulf Ekstrom and contributors.
See http://admol.org/xcfun for more information. This is free soft-
ware; see the source code for copying conditions. There is ABSOLUTELY
NO WARRANTY; not even for MERCHANTABILITY or FITNESS FOR A PARTICULAR
PURPOSE. For details see the documentation. Scientific users of this 
library should cite U. Ekstrom, L. Visscher, R. Bast, A. J. Thorvald-
sen and K. Ruud; J.Chem.Theor.Comp. 2010, DOI: 10.1021/ct100117s
XCFun Version 0.99 
----- Orbital basis set information -----
Your calculation utilizes the basis: def2-TZVP
   F. Weigend and R. Ahlrichs, Phys. Chem. Chem. Phys. 7, 3297 (2005).

================================================================================
                                        WARNINGS
                       Please study these warnings very carefully!
================================================================================


INFO   : the flag for use of LIBINT has been found!

================================================================================
                                       INPUT FILE
================================================================================
NAME = 199.in
|  1> #Run DFT-D3 single point of the dimer
|  2> ! wB97X-D3 def2-TZVP TIGHTSCF  CHELPG PAL8
|  3> 
|  4> %base "199_charges"
|  5> 
|  6> %scf
|  7> MaxIter 1000
|  8> end
|  9> %output
| 10>   Print[ P_Mayer ] 1
| 11>   Print[ P_NatPop ] 1
| 12>   Print[ P_Hirshfeld ] 1
| 13>   Print[ P_Mulliken ] 1
| 14>   Print [ P_Loewdin ] 1
| 15> end
| 16> 
| 17> * xyz 0 1
| 18>   C                      -8.911687            3.075292             -2.493319           
| 19>   O                      -8.598312            3.600536             -1.230369           
| 20>   H                      -7.694995            3.846846             -1.310943           
| 21>   H                      -8.196241            2.366286             -2.792120           
| 22>   H                      -9.753539            2.443139             -2.483027           
| 23>   H                      -9.006679            3.788565             -3.307491           
| 24> *
| 25> 
| 26>                          ****END OF INPUT****
================================================================================

                       ****************************
                       * Single Point Calculation *
                       ****************************

---------------------------------
CARTESIAN COORDINATES (ANGSTROEM)
---------------------------------
  C     -8.911687    3.075292   -2.493319
  O     -8.598312    3.600536   -1.230369
  H     -7.694995    3.846846   -1.310943
  H     -8.196241    2.366286   -2.792120
  H     -9.753539    2.443139   -2.483027
  H     -9.006679    3.788565   -3.307491

----------------------------
CARTESIAN COORDINATES (A.U.)
----------------------------
  NO LB      ZA    FRAG     MASS         X           Y           Z
   0 C     6.0000    0    12.011  -16.840648    5.811460   -4.711690
   1 O     8.0000    0    15.999  -16.248455    6.804027   -2.325060
   2 H     1.0000    0     1.008  -14.541433    7.269485   -2.477323
   3 H     1.0000    0     1.008  -15.488651    4.471632   -5.276342
   4 H     1.0000    0     1.008  -18.431518    4.616864   -4.692241
   5 H     1.0000    0     1.008  -17.020157    7.159350   -6.250252

--------------------------------
INTERNAL COORDINATES (ANGSTROEM)
--------------------------------
 C      0   0   0     0.000000000000     0.00000000     0.00000000
 O      1   0   0     1.403256160742     0.00000000     0.00000000
 H      2   1   0     0.939756557873   103.62693266     0.00000000
 H      1   2   3     1.050635295692   110.88445991    49.80152253
 H      1   2   3     1.052823883932   113.23583299   159.02940818
 H      1   2   3     1.086580829104   116.62786856   287.26590871

---------------------------
INTERNAL COORDINATES (A.U.)
---------------------------
 C      0   0   0     0.000000000000     0.00000000     0.00000000
 O      1   0   0     2.651769839541     0.00000000     0.00000000
 H      2   1   0     1.775882526936   103.62693266     0.00000000
 H      1   2   3     1.985412975489   110.88445991    49.80152253
 H      1   2   3     1.989548807882   113.23583299   159.02940818
 H      1   2   3     2.053340189376   116.62786856   287.26590871

---------------------
BASIS SET INFORMATION
---------------------
There are 3 groups of distinct atoms

 Group   1 Type C   : 11s6p2d1f contracted to 5s3p2d1f pattern {62111/411/11/1}
 Group   2 Type O   : 11s6p2d1f contracted to 5s3p2d1f pattern {62111/411/11/1}
 Group   3 Type H   : 5s1p contracted to 3s1p pattern {311/1}

Atom   0C    basis set group =>   1
Atom   1O    basis set group =>   2
Atom   2H    basis set group =>   3
Atom   3H    basis set group =>   3
Atom   4H    basis set group =>   3
Atom   5H    basis set group =>   3


           ************************************************************
           *        Program running with 8 parallel MPI-processes     *
           *              working on a common directory               *
           ************************************************************
------------------------------------------------------------------------------
                           ORCA GTO INTEGRAL CALCULATION
------------------------------------------------------------------------------

                         BASIS SET STATISTICS AND STARTUP INFO

 # of primitive gaussian shells          ...   64
 # of primitive gaussian functions       ...  124
 # of contracted shells                  ...   38
 # of contracted basis functions         ...   86
 Highest angular momentum                ...    3
 Maximum contraction depth               ...    6
 Integral package used                   ... LIBINT
 Integral threshhold            Thresh   ...  2.500e-11
 Primitive cut-off              TCut     ...  2.500e-12


------------------------------ INTEGRAL EVALUATION ----------------------------


 * One electron integrals 
 Pre-screening matrix                    ... done
 Shell pair data                         ... done (   0.000 sec)



           ************************************************************
           *        Program running with 8 parallel MPI-processes     *
           *              working on a common directory               *
           ************************************************************
-------------------------------------------------------------------------------
                                 ORCA SCF
-------------------------------------------------------------------------------

------------
SCF SETTINGS
------------
Hamiltonian:
 Density Functional     Method          .... DFT(GTOs)
 Exchange Functional    Exchange        .... WB97X-D3
 Correlation Functional Correlation     .... WB97X-D3
 Gradients option       PostSCFGGA      .... off
 Hybrid DFT is turned on
   Fraction HF Exchange ScalHFX         ....  0.195728
   Scaling of DF-GGA-X  ScalDFX         ....  0.000000
   Scaling of DF-GGA-C  ScalDFC         ....  1.000000
   Scaling of DF-LDA-C  ScalLDAC        ....  1.000000
   Perturbative correction              ....  0.000000
   Density functional embedding theory  .... OFF
 Long-range corrected/Screened/Range-Separated Hybrid DFT is turned on
   Amount of maximum screened exact exchange              ....  0.804272
   Range separation parameter mu (erf(mu*r12)/r12)        ....  0.250000


General Settings:
 Integral files         IntName         .... 199_charges
 Hartree-Fock type      HFTyp           .... RHF
 Total Charge           Charge          ....    0
 Multiplicity           Mult            ....    1
 Number of Electrons    NEL             ....   18
 Basis Dimension        Dim             ....   86
 Nuclear Repulsion      ENuc            ....     41.0048558012 Eh

Convergence Acceleration:
 DIIS                   CNVDIIS         .... on
   Start iteration      DIISMaxIt       ....    12
   Startup error        DIISStart       ....  0.200000
   # of expansion vecs  DIISMaxEq       ....     5
   Bias factor          DIISBfac        ....   1.050
   Max. coefficient     DIISMaxC        ....  10.000
 Newton-Raphson         CNVNR           .... off
 SOSCF                  CNVSOSCF        .... on
   Start iteration      SOSCFMaxIt      ....   150
   Startup grad/error   SOSCFStart      ....  0.003300
 Level Shifting         CNVShift        .... on
   Level shift para.    LevelShift      ....    0.2500
   Turn off err/grad.   ShiftErr        ....    0.0010
 Zerner damping         CNVZerner       .... off
 Static damping         CNVDamp         .... on
   Fraction old density DampFac         ....    0.7000
   Max. Damping (<1)    DampMax         ....    0.9800
   Min. Damping (>=0)   DampMin         ....    0.0000
   Turn off err/grad.   DampErr         ....    0.1000
 Fernandez-Rico         CNVRico         .... off

SCF Procedure:
 Maximum # iterations   MaxIter         ....  1000
 SCF integral mode      SCFMode         .... Direct
   Integral package                     .... LIBINT
 Reset frequency        DirectResetFreq ....    20
 Integral Threshold     Thresh          ....  2.500e-11 Eh
 Primitive CutOff       TCut            ....  2.500e-12 Eh

Convergence Tolerance:
 Convergence Check Mode ConvCheckMode   .... Total+1el-Energy
 Convergence forced     ConvForced      .... 0
 Energy Change          TolE            ....  1.000e-08 Eh
 1-El. energy change                    ....  1.000e-05 Eh
 Orbital Gradient       TolG            ....  1.000e-05
 Orbital Rotation angle TolX            ....  1.000e-05
 DIIS Error             TolErr          ....  5.000e-07


Diagonalization of the overlap matrix:
Smallest eigenvalue                        ... 1.440e-03
Time for diagonalization                   ...    0.002 sec
Threshold for overlap eigenvalues          ... 1.000e-08
Number of eigenvalues below threshold      ... 0
Time for construction of square roots      ...    0.004 sec
Total time needed                          ...    0.006 sec

-------------------
DFT GRID GENERATION
-------------------

General Integration Accuracy     IntAcc      ...  4.340
Radial Grid Type                 RadialGrid  ... Gauss-Chebyshev
Angular Grid (max. acc.)         AngularGrid ... Lebedev-110
Angular grid pruning method      GridPruning ... 3 (G Style)
Weight generation scheme         WeightScheme... Becke
Basis function cutoff            BFCut       ...    1.0000e-11
Integration weight cutoff        WCut        ...    1.0000e-14
Grids for H and He will be reduced by one unit

# of grid points (after initial pruning)     ...   6548 (   0.0 sec)
# of grid points (after weights+screening)   ...   6363 (   0.0 sec)
nearest neighbour list constructed           ...    0.0 sec
Grid point re-assignment to atoms done       ...    0.0 sec
Grid point division into batches done        ...    0.0 sec
Reduced shell lists constructed in    0.0 sec

Total number of grid points                  ...     6363
Total number of batches                      ...      104
Average number of points per batch           ...       61
Average number of grid points per atom       ...     1060
Average number of shells per batch           ...    32.43 (85.34%)
Average number of basis functions per batch  ...    74.71 (86.88%)
Average number of large shells per batch     ...    31.21 (96.26%)
Average number of large basis fcns per batch ...    71.93 (96.27%)
Maximum spatial batch extension              ...  15.63, 18.52, 14.60 au
Average spatial batch extension              ...   0.34,  0.46,  0.40 au

Time for grid setup =    0.032 sec

------------------------------
INITIAL GUESS: MODEL POTENTIAL
------------------------------
Loading Hartree-Fock densities                     ... done
Calculating cut-offs                               ... done
Setting up the integral package                    ... done
Initializing the effective Hamiltonian             ... done
Starting the Coulomb interaction                   ... done (   0.0 sec)
Reading the grid                                   ... done
Mapping shells                                     ... done
Starting the XC term evaluation                    ... done (   0.0 sec)
  promolecular density results
     # of electrons  =     18.001554857
     EX              =    -14.454606200
     EC              =     -0.578139602
     EX+EC           =    -15.032745801
Transforming the Hamiltonian                       ... done (   0.0 sec)
Diagonalizing the Hamiltonian                      ... done (   0.0 sec)
Back transforming the eigenvectors                 ... done (   0.0 sec)
Now organizing SCF variables                       ... done
                      ------------------
                      INITIAL GUESS DONE (   0.1 sec)
                      ------------------
--------------
SCF ITERATIONS
--------------
ITER       Energy         Delta-E        Max-DP      RMS-DP      [F,P]     Damp
               ***  Starting incremental Fock matrix formation  ***
  0   -115.6409809986   0.000000000000 0.03519378  0.00148975  0.2454840 0.7000
  1   -115.6785830076  -0.037602009030 0.02132710  0.00106402  0.1246524 0.7000
                               ***Turning on DIIS***
  2   -115.6963236364  -0.017740628856 0.03202496  0.00195773  0.0505130 0.0000
  3   -115.7253226410  -0.028999004606 0.01741512  0.00069753  0.0575531 0.0000
  4   -115.7298187049  -0.004496063885 0.00401572  0.00013333  0.0061005 0.0000
                      *** Initiating the SOSCF procedure ***
                           *** Shutting down DIIS ***
                      *** Re-Reading the Fockian *** 
                      *** Removing any level shift *** 
ITER      Energy       Delta-E        Grad      Rot      Max-DP    RMS-DP
  5   -115.72991104  -0.0000923380  0.000416  0.000416  0.000733  0.000047
               *** Restarting incremental Fock matrix formation ***
  6   -115.72991940  -0.0000083574  0.000140  0.000163  0.000507  0.000030
  7   -115.72992017  -0.0000007651  0.000048  0.000098  0.000256  0.000014
  8   -115.72992023  -0.0000000599  0.000025  0.000020  0.000037  0.000002
  9   -115.72992024  -0.0000000131  0.000010  0.000008  0.000018  0.000001
 10   -115.72992024  -0.0000000013  0.000003  0.000003  0.000006  0.000000
                  ***Gradient check signals convergence***
              ***Rediagonalizing the Fockian in SOSCF/NRSCF***

               *****************************************************
               *                     SUCCESS                       *
               *           SCF CONVERGED AFTER  11 CYCLES          *
               *****************************************************

Setting up the final grid:

General Integration Accuracy     IntAcc      ...  4.670
Radial Grid Type                 RadialGrid  ... Gauss-Chebyshev
Angular Grid (max. acc.)         AngularGrid ... Lebedev-302
Angular grid pruning method      GridPruning ... 3 (G Style)
Weight generation scheme         WeightScheme... Becke
Basis function cutoff            BFCut       ...    1.0000e-11
Integration weight cutoff        WCut        ...    1.0000e-14
Grids for H and He will be reduced by one unit

# of grid points (after initial pruning)     ...  26000 (   0.0 sec)
# of grid points (after weights+screening)   ...  25184 (   1.7 sec)
nearest neighbour list constructed           ...    0.0 sec
Grid point re-assignment to atoms done       ...    0.0 sec
Grid point division into batches done        ...    0.1 sec
Reduced shell lists constructed in    0.1 sec

Total number of grid points                  ...    25184
Total number of batches                      ...      398
Average number of points per batch           ...       63
Average number of grid points per atom       ...     4197
Average number of shells per batch           ...    31.08 (81.79%)
Average number of basis functions per batch  ...    71.00 (82.56%)
Average number of large shells per batch     ...    29.82 (95.96%)
Average number of large basis fcns per batch ...    68.69 (96.74%)
Maximum spatial batch extension              ...  13.42, 16.05, 15.54 au
Average spatial batch extension              ...   0.29,  0.33,  0.30 au

Final grid set up in    2.9 sec
Final integration                            ... done (   0.5 sec)
Change in XC energy                          ...     0.000240479
Integrated number of electrons               ...    18.000008276
Previous integrated no of electrons          ...    18.002194907

----------------
TOTAL SCF ENERGY
----------------

Total Energy       :         -115.72967976 Eh           -3149.16469 eV

Components:
Nuclear Repulsion  :           41.00485580 Eh            1115.79885 eV
Electronic Energy  :         -156.73453556 Eh           -4264.96354 eV
One Electron Energy:         -238.31962443 Eh           -6485.00667 eV
Two Electron Energy:           81.58508887 Eh            2220.04313 eV

Virial components:
Potential Energy   :         -231.16343954 Eh           -6290.27698 eV
Kinetic Energy     :          115.43375978 Eh            3141.11229 eV
Virial Ratio       :            2.00256355


DFT components:
N(Alpha)           :        9.000004138211 electrons
N(Beta)            :        9.000004138211 electrons
N(Total)           :       18.000008276422 electrons
E(XC)              :      -10.691445266942 Eh       
DFET-embed. en.    :        0.000000000000 Eh       

---------------
SCF CONVERGENCE
---------------

  Last Energy change         ...   -3.3333e-10  Tolerance :   1.0000e-08
  Last MAX-Density change    ...    1.9594e-06  Tolerance :   1.0000e-07
  Last RMS-Density change    ...    1.0706e-07  Tolerance :   5.0000e-09
  Last Orbital Gradient      ...    9.1514e-07  Tolerance :   1.0000e-05
  Last Orbital Rotation      ...    8.3651e-07  Tolerance :   1.0000e-05

             **** THE GBW FILE WAS UPDATED (199_charges.gbw) ****
             **** DENSITY FILE WAS UPDATED (199_charges.scfp.tmp) ****
             **** ENERGY FILE WAS UPDATED (199_charges.en.tmp) ****
----------------
ORBITAL ENERGIES
----------------

  NO   OCC          E(Eh)            E(eV) 
   0   2.0000     -19.231370      -523.3122 
   1   2.0000     -10.301649      -280.3221 
   2   2.0000      -1.147061       -31.2131 
   3   2.0000      -0.805595       -21.9213 
   4   2.0000      -0.617357       -16.7991 
   5   2.0000      -0.549807       -14.9610 
   6   2.0000      -0.530743       -14.4423 
   7   2.0000      -0.436163       -11.8686 
   8   2.0000      -0.378031       -10.2867 
   9   0.0000       0.118692         3.2298 
  10   0.0000       0.156391         4.2556 
  11   0.0000       0.208578         5.6757 
  12   0.0000       0.211332         5.7506 
  13   0.0000       0.229661         6.2494 
  14   0.0000       0.307068         8.3557 
  15   0.0000       0.319811         8.7025 
  16   0.0000       0.402707        10.9582 
  17   0.0000       0.454689        12.3727 
  18   0.0000       0.492598        13.4043 
  19   0.0000       0.539560        14.6822 
  20   0.0000       0.549947        14.9648 
  21   0.0000       0.568620        15.4729 
  22   0.0000       0.606229        16.4963 
  23   0.0000       0.639898        17.4125 
  24   0.0000       0.675059        18.3693 
  25   0.0000       0.767657        20.8890 
  26   0.0000       0.803259        21.8578 
  27   0.0000       0.866216        23.5709 
  28   0.0000       0.979977        26.6665 
  29   0.0000       1.032263        28.0893 
  30   0.0000       1.106626        30.1128 
  31   0.0000       1.377853        37.4933 
  32   0.0000       1.502082        40.8737 
  33   0.0000       1.550219        42.1836 
  34   0.0000       1.605580        43.6901 
  35   0.0000       1.618419        44.0394 
  36   0.0000       1.655029        45.0356 
  37   0.0000       1.689540        45.9747 
  38   0.0000       1.696737        46.1706 
  39   0.0000       1.809438        49.2373 
  40   0.0000       1.939172        52.7676 
  41   0.0000       2.011802        54.7439 
  42   0.0000       2.069048        56.3017 
  43   0.0000       2.103960        57.2517 
  44   0.0000       2.145499        58.3820 
  45   0.0000       2.267362        61.6981 
  46   0.0000       2.310359        62.8681 
  47   0.0000       2.378072        64.7106 
  48   0.0000       2.416716        65.7622 
  49   0.0000       2.477089        67.4050 
  50   0.0000       2.535468        68.9936 
  51   0.0000       2.625439        71.4418 
  52   0.0000       2.702898        73.5496 
  53   0.0000       2.726713        74.1976 
  54   0.0000       2.834345        77.1264 
  55   0.0000       2.876116        78.2631 
  56   0.0000       2.935650        79.8831 
  57   0.0000       2.971060        80.8466 
  58   0.0000       3.119881        84.8963 
  59   0.0000       3.180616        86.5490 
  60   0.0000       3.283322        89.3437 
  61   0.0000       3.382324        92.0377 
  62   0.0000       3.480913        94.7205 
  63   0.0000       3.524944        95.9186 
  64   0.0000       3.590255        97.6958 
  65   0.0000       3.673019        99.9479 
  66   0.0000       3.719916       101.2241 
  67   0.0000       4.055076       110.3442 
  68   0.0000       4.244739       115.5052 
  69   0.0000       4.428262       120.4991 
  70   0.0000       4.440053       120.8200 
  71   0.0000       4.543087       123.6237 
  72   0.0000       5.384780       146.5273 
  73   0.0000       5.476448       149.0217 
  74   0.0000       5.562427       151.3613 
  75   0.0000       5.794770       157.6837 
  76   0.0000       5.849940       159.1850 
  77   0.0000       6.039768       164.3504 
  78   0.0000       6.399748       174.1460 
  79   0.0000       6.541233       177.9960 
  80   0.0000       6.771394       184.2590 
  81   0.0000       6.802430       185.1035 
  82   0.0000       7.024624       191.1497 
  83   0.0000       7.226720       196.6490 
  84   0.0000      22.561233       613.9224 
  85   0.0000      43.644484      1187.6268 

                    ********************************
                    * MULLIKEN POPULATION ANALYSIS *
                    ********************************

-----------------------
MULLIKEN ATOMIC CHARGES
-----------------------
   0 C :   -0.169492
   1 O :   -0.461915
   2 H :    0.313319
   3 H :    0.105021
   4 H :    0.115639
   5 H :    0.097428
Sum of atomic charges:    0.0000000

--------------------------------
MULLIKEN REDUCED ORBITAL CHARGES
--------------------------------
  0 C s       :     3.200624  s :     3.200624
      pz      :     0.765249  p :     2.863703
      px      :     1.105420
      py      :     0.993034
      dz2     :     0.029101  d :     0.097632
      dxz     :     0.019210
      dyz     :     0.024967
      dx2y2   :     0.007092
      dxy     :     0.017262
      f0      :     0.002251  f :     0.007534
      f+1     :     0.001088
      f-1     :     0.001994
      f+2     :     0.000977
      f-2     :     0.000841
      f+3     :     0.000046
      f-3     :     0.000336
  1 O s       :     3.797530  s :     3.797530
      pz      :     1.455709  p :     4.631195
      px      :     1.385101
      py      :     1.790385
      dz2     :     0.011551  d :     0.031509
      dxz     :     0.004688
      dyz     :     0.005901
      dx2y2   :     0.006306
      dxy     :     0.003062
      f0      :     0.000200  f :     0.001681
      f+1     :     0.000253
      f-1     :     0.000325
      f+2     :     0.000110
      f-2     :     0.000161
      f+3     :     0.000313
      f-3     :     0.000319
  2 H s       :     0.636898  s :     0.636898
      pz      :     0.012540  p :     0.049783
      px      :     0.019391
      py      :     0.017852
  3 H s       :     0.873824  s :     0.873824
      pz      :     0.004299  p :     0.021155
      px      :     0.008375
      py      :     0.008481
  4 H s       :     0.862123  s :     0.862123
      pz      :     0.003208  p :     0.022238
      px      :     0.010696
      py      :     0.008335
  5 H s       :     0.882317  s :     0.882317
      pz      :     0.008461  p :     0.020255
      px      :     0.004620
      py      :     0.007174


                     *******************************
                     * LOEWDIN POPULATION ANALYSIS *
                     *******************************

----------------------
LOEWDIN ATOMIC CHARGES
----------------------
   0 C :   -0.390540
   1 O :   -0.054129
   2 H :    0.160746
   3 H :    0.089526
   4 H :    0.100833
   5 H :    0.093564

-------------------------------
LOEWDIN REDUCED ORBITAL CHARGES
-------------------------------
  0 C s       :     2.833808  s :     2.833808
      pz      :     0.896985  p :     3.073949
      px      :     1.125189
      py      :     1.051776
      dz2     :     0.133367  d :     0.424480
      dxz     :     0.065377
      dyz     :     0.133156
      dx2y2   :     0.021088
      dxy     :     0.071492
      f0      :     0.015108  f :     0.058302
      f+1     :     0.011332
      f-1     :     0.011253
      f+2     :     0.010197
      f-2     :     0.004958
      f+3     :     0.002186
      f-3     :     0.003268
  1 O s       :     3.357857  s :     3.357857
      pz      :     1.517676  p :     4.618354
      px      :     1.394057
      py      :     1.706621
      dz2     :     0.025902  d :     0.072900
      dxz     :     0.012297
      dyz     :     0.014595
      dx2y2   :     0.012964
      dxy     :     0.007141
      f0      :     0.001062  f :     0.005018
      f+1     :     0.001167
      f-1     :     0.000871
      f+2     :     0.000428
      f-2     :     0.000488
      f+3     :     0.000526
      f-3     :     0.000477
  2 H s       :     0.672740  s :     0.672740
      pz      :     0.037487  p :     0.166514
      px      :     0.079206
      py      :     0.049822
  3 H s       :     0.842347  s :     0.842347
      pz      :     0.014184  p :     0.068127
      px      :     0.026825
      py      :     0.027118
  4 H s       :     0.832314  s :     0.832314
      pz      :     0.010479  p :     0.066853
      px      :     0.031702
      py      :     0.024672
  5 H s       :     0.844946  s :     0.844946
      pz      :     0.024658  p :     0.061490
      px      :     0.014935
      py      :     0.021897


                      *****************************
                      * MAYER POPULATION ANALYSIS *
                      *****************************

  NA   - Mulliken gross atomic population
  ZA   - Total nuclear charge
  QA   - Mulliken gross atomic charge
  VA   - Mayer's total valence
  BVA  - Mayer's bonded valence
  FA   - Mayer's free valence

  ATOM       NA         ZA         QA         VA         BVA        FA
  0 C      6.1695     6.0000    -0.1695     3.9488     3.9488     0.0000
  1 O      8.4619     8.0000    -0.4619     1.9041     1.9041     0.0000
  2 H      0.6867     1.0000     0.3133     0.9130     0.9130     0.0000
  3 H      0.8950     1.0000     0.1050     0.9560     0.9560     0.0000
  4 H      0.8844     1.0000     0.1156     0.9569     0.9569     0.0000
  5 H      0.9026     1.0000     0.0974     0.9576     0.9576     0.0000

  Mayer bond orders larger than 0.1
B(  0-C ,  1-O ) :   1.0072 B(  0-C ,  3-H ) :   0.9852 B(  0-C ,  4-H ) :   0.9759 
B(  0-C ,  5-H ) :   0.9731 B(  1-O ,  2-H ) :   0.9056 


------------------
HIRSHFELD ANALYSIS
------------------

Total integrated alpha density =      9.001097454
Total integrated beta density  =      9.001097454

  ATOM     CHARGE      SPIN    
   0 C   -0.000622    0.000000
   1 O   -0.245216    0.000000
   2 H    0.159462    0.000000
   3 H    0.021584    0.000000
   4 H    0.036133    0.000000
   5 H    0.026465    0.000000

  TOTAL  -0.002195    0.000000

-------
TIMINGS
-------

Total SCF time: 0 days 0 hours 0 min 29 sec 

Total time                  ....      29.805 sec
Sum of individual times     ....      25.895 sec  ( 86.9%)

Fock matrix formation       ....      18.250 sec  ( 61.2%)
  XC integration            ....       4.590 sec  ( 25.2% of F)
    Basis function eval.    ....       0.060 sec  (  1.3% of XC)
    Density eval.           ....       0.065 sec  (  1.4% of XC)
    XC-Functional eval.     ....       0.075 sec  (  1.6% of XC)
    XC-Potential eval.      ....       0.049 sec  (  1.1% of XC)
Diagonalization             ....       1.416 sec  (  4.7%)
Density matrix formation    ....       1.698 sec  (  5.7%)
Population analysis         ....       0.383 sec  (  1.3%)
Initial guess               ....       0.114 sec  (  0.4%)
Orbital Transformation      ....       0.000 sec  (  0.0%)
Orbital Orthonormalization  ....       0.000 sec  (  0.0%)
DIIS solution               ....       0.326 sec  (  1.1%)
SOSCF solution              ....       0.787 sec  (  2.6%)
Grid generation             ....       2.922 sec  (  9.8%)


-------------------------------------------------------------------------------
                          DFT DISPERSION CORRECTION                            
                                                                               
                              DFTD3 V3.1  Rev 1                                
                              USING zero damping                               
-------------------------------------------------------------------------------
The omegaB97X-D3 functional is recognized. Fit by Chai et al.
Active option DFTDOPT                   ...         3   

molecular C6(AA) [au] = 208.572236 


            DFT-D V3
 parameters
 s6 scaling factor         :     1.0000 
 rs6 scaling factor        :     1.2810 
 s8 scaling factor         :     1.0000 
 rs8 scaling factor        :     1.0940 
 Damping factor alpha6     :    14.0000 
 Damping factor alpha8     :    16.0000 
 ad hoc parameters k1-k3   :    16.0000     1.3333    -4.0000 

 Edisp/kcal,au: -0.140461295626  -0.000223839299 
 E6   /kcal   :  -0.026166331 
 E8   /kcal   :  -0.114294965 
 % E8         :  81.371145369 

-------------------------   ----------------
Dispersion correction           -0.000223839
-------------------------   ----------------


-------------------------   --------------------
FINAL SINGLE POINT ENERGY      -115.729903600016
-------------------------   --------------------


                            ***************************************
                            *     ORCA property calculations      *
                            ***************************************

                                    ---------------------
                                    Active property flags
                                    ---------------------
   (+) Dipole Moment


------------------------------------------------------------------------------
                       ORCA ELECTRIC PROPERTIES CALCULATION
------------------------------------------------------------------------------

Dipole Moment Calculation                       ... on
Quadrupole Moment Calculation                   ... off
Polarizability Calculation                      ... off
GBWName                                         ... 199_charges.gbw
Electron density file                           ... 199_charges.scfp.tmp
The origin for moment calculation is the CENTER OF MASS  = (-16.485789,  6.315603 -3.515276)

-------------
DIPOLE MOMENT
-------------
                                X             Y             Z
Electronic contribution:      0.22909       0.76658       1.75113
Nuclear contribution   :      0.23092      -0.86254      -2.29181
                        -----------------------------------------
Total Dipole Moment    :      0.46002      -0.09596      -0.54068
                        -----------------------------------------
Magnitude (a.u.)       :      0.71636
Magnitude (Debye)      :      1.82083



--------------------
Rotational spectrum 
--------------------
 
Rotational constants in cm-1:     4.636264     0.840009     0.816790 
Rotational constants in MHz : 138991.691645 25182.835421 24486.755789 

 Dipole components along the rotational axes: 
x,y,z [a.u.] :    -0.390481     0.579699    -0.156967 
x,y,z [Debye]:    -0.992523     1.473477    -0.398979 

 
------------------------------------------------------------------------------
                      ORCA CHELPG CHARGES GENERATION
------------------------------------------------------------------------------

GBW file                           ... 199_charges.gbw

Reading the GBW file               ... done

Grid spacing                       ...     0.300000
Point Cut-Off                      ...     2.800000
Van-der-Waals Radii                ...        COSMO
Total charge                       ...            0


Number of points X direction       ...           25
Number of points Y direction       ...           23
Number of points Z direction       ...           25
Maximum number of possible points  ...        14375
Final number of points             ...         5786


CHELPG Charges            
--------------------------------
  0   C   :       0.180616
  1   O   :      -0.615264
  2   H   :       0.400121
  3   H   :      -0.010414
  4   H   :       0.057179
  5   H   :      -0.012238
--------------------------------
Total charge:     0.000000
--------------------------------

CHELPG charges calculated...

Timings for individual parts in CHELPG calculation:
Grid generation                 ...        0.001 sec (=   0.000 min)
Potential calculation           ...        0.591 sec (=   0.010 min)
Fit to the potential            ...        0.003 sec (=   0.000 min)
------------------------------------------------------------------------------


Timings for individual modules:

Sum of individual times         ...       39.763 sec (=   0.663 min)
GTO integral calculation        ...        5.194 sec (=   0.087 min)  13.1 %
SCF iterations                  ...       33.367 sec (=   0.556 min)  83.9 %
CHELPG charge generation        ...        1.201 sec (=   0.020 min)   3.0 %
                             ****ORCA TERMINATED NORMALLY****
TOTAL RUN TIME: 0 days 0 hours 0 minutes 42 seconds 131 msec
