
                                 *****************
                                 * O   R   C   A *
                                 *****************

           --- An Ab Initio, DFT and Semiempirical electronic structure package ---

                  #######################################################
                  #                        -***-                        #
                  #          Department of theory and spectroscopy      #
                  #               Directorship: Frank Neese             #
                  #        Max Planck Institute fuer Kohlenforschung    #
                  #                Kaiser Wilhelm Platz 1               #
                  #                 D-45470 Muelheim/Ruhr               #
                  #                      Germany                        #
                  #                                                     #
                  #                  All rights reserved                #
                  #                        -***-                        #
                  #######################################################


                         Program Version 4.1.2  - RELEASE  -


 With contributions from (in alphabetic order):
   Daniel Aravena         : Magnetic Properties
   Michael Atanasov       : Ab Initio Ligand Field Theory
   Alexander A. Auer      : GIAO ZORA
   Ute Becker             : Parallelization
   Giovanni Bistoni       : ED, Open-shell LED
   Martin Brehm           : Molecular dynamics
   Dmytro Bykov           : SCF Hessian
   Vijay G. Chilkuri      : MRCI spin determinant printing
   Dipayan Datta          : RHF DLPNO-CCSD density
   Achintya Kumar Dutta   : EOM-CC, STEOM-CC
   Dmitry Ganyushin       : Spin-Orbit,Spin-Spin,Magnetic field MRCI
   Miquel Garcia          : C-PCM Hessian
   Yang Guo               : DLPNO-NEVPT2, CIM, IAO-localization
   Andreas Hansen         : Spin unrestricted coupled pair/coupled cluster methods
   Benjamin Helmich-Paris : CASSCF linear response (MC-RPA)
   Lee Huntington         : MR-EOM, pCC
   Robert Izsak           : Overlap fitted RIJCOSX, COSX-SCS-MP3, EOM
   Christian Kollmar      : KDIIS, OOCD, Brueckner-CCSD(T), CCSD density
   Simone Kossmann        : Meta GGA functionals, TD-DFT gradient, OOMP2, MP2 Hessian
   Martin Krupicka        : AUTO-CI
   Lucas Lang             : DCDCAS
   Dagmar Lenk            : GEPOL surface, SMD
   Dimitrios Liakos       : Extrapolation schemes; parallel MDCI
   Dimitrios Manganas     : ROCIS; embedding schemes
   Dimitrios Pantazis     : SARC Basis sets
   Taras Petrenko         : DFT Hessian,TD-DFT gradient, ASA, ECA, R-Raman, ABS, FL, XAS/XES, NRVS
   Peter Pinski           : DLPNO-MP2, DLPNO-MP2 Gradient
   Christoph Reimann      : Effective Core Potentials
   Marius Retegan         : Local ZFS, SOC
   Christoph Riplinger    : Optimizer, TS searches, QM/MM, DLPNO-CCSD(T), (RO)-DLPNO pert. Triples
   Tobias Risthaus        : Range-separated hybrids, TD-DFT gradient, RPA, STAB
   Michael Roemelt        : Restricted open shell CIS
   Masaaki Saitow         : Open-shell DLPNO
   Barbara Sandhoefer     : DKH picture change effects
   Avijit Sen             : IP-ROCIS
   Kantharuban Sivalingam : CASSCF convergence, NEVPT2, FIC-MRCI
   Bernardo de Souza      : ESD, SOC TD-DFT
   Georgi Stoychev        : AutoAux, RI-MP2 NMR
   Willem Van den Heuvel  : Paramagnetic NMR
   Boris Wezisla          : Elementary symmetry handling
   Frank Wennmohs         : Technical directorship


 We gratefully acknowledge several colleagues who have allowed us to
 interface, adapt or use parts of their codes:
   Stefan Grimme, W. Hujo, H. Kruse,             : VdW corrections, initial TS optimization,
                  C. Bannwarth                     DFT functionals, gCP, sTDA/sTD-DF
   Ed Valeev                                     : LibInt (2-el integral package), F12 methods
   Garnet Chan, S. Sharma, J. Yang, R. Olivares  : DMRG
   Ulf Ekstrom                                   : XCFun DFT Library
   Mihaly Kallay                                 : mrcc  (arbitrary order and MRCC methods)
   Andreas Klamt, Michael Diedenhofen            : otool_cosmo (COSMO solvation model)
   Jiri Pittner, Ondrej Demel                    : Mk-CCSD
   Frank Weinhold                                : gennbo (NPA and NBO analysis)
   Christopher J. Cramer and Donald G. Truhlar   : smd solvation model
   Lars Goerigk                                  : TD-DFT with DH, B97 family of functionals
   V. Asgeirsson, H. Jonsson                     : NEB implementation
   FAccTs GmbH                                   : IRC, NEB, NEB-TS, Multilevel


 Your calculation uses the libint2 library for the computation of 2-el integrals
 For citations please refer to: http://libint.valeyev.net

 This ORCA versions uses:
   CBLAS   interface :  Fast vector & matrix operations
   LAPACKE interface :  Fast linear algebra routines
   SCALAPACK package :  Parallel linear algebra routines


Your calculation utilizes the atom-pairwise dispersion correction
with the zero-damping scheme (D30)
Cite in your paper:
S.Grimme, J.Antony, S.Ehrlich and H.Krieg, J.Chem.Phys., 132, (2010), 154104 
   

XCFun DFT library Copyright 2009-2010 Ulf Ekstrom and contributors.
See http://admol.org/xcfun for more information. This is free soft-
ware; see the source code for copying conditions. There is ABSOLUTELY
NO WARRANTY; not even for MERCHANTABILITY or FITNESS FOR A PARTICULAR
PURPOSE. For details see the documentation. Scientific users of this 
library should cite U. Ekstrom, L. Visscher, R. Bast, A. J. Thorvald-
sen and K. Ruud; J.Chem.Theor.Comp. 2010, DOI: 10.1021/ct100117s
XCFun Version 0.99 
----- Orbital basis set information -----
Your calculation utilizes the basis: def2-TZVP
   F. Weigend and R. Ahlrichs, Phys. Chem. Chem. Phys. 7, 3297 (2005).

================================================================================
                                        WARNINGS
                       Please study these warnings very carefully!
================================================================================


WARNING: Geometry Optimization
  ===> : Switching off AutoStart
         For restart on a previous wavefunction, please use MOREAD

INFO   : the flag for use of LIBINT has been found!

================================================================================
                                       INPUT FILE
================================================================================
NAME = bonds_angles_[1[6[8][1][1]]]-[6[8[1]][1][1][1]]_7.in
|  1> #Run DFT geometry optimization
|  2> ! wB97X-D3 def2-TZVP TIGHTSCF Grid5 FinalGrid6 Opt CHELPG PAL4
|  3> 
|  4> %base "7_geo_opt"
|  5> %geom MaxIter 500
|  6> end
|  7> 
|  8> %geom
|  9>   Constraints
| 10>     { B 5 0 C }
| 11>   end
| 12> end
| 13> 
| 14> 
| 15> * xyz 0 1
| 16>   C                    3.011211             -1.180734            0.598555            
| 17>   O                    4.394577             -1.127886            0.874371            
| 18>   H                    4.772100             -0.378858            0.412556            
| 19>   H                    2.806338             -1.318801            -0.469286           
| 20>   H                    2.611536             -2.040101            1.135962            
| 21>   H                    2.484853             -0.284655            0.945596            
| 22> *
| 23> 
| 24>                          ****END OF INPUT****
================================================================================

                       *****************************
                       * Geometry Optimization Run *
                       *****************************

Geometry optimization settings:
Update method            Update   .... BFGS
Choice of coordinates    CoordSys .... Z-matrix Internals
Initial Hessian          InHess   .... Almoef's Model

Convergence Tolerances:
Energy Change            TolE     ....  5.0000e-06 Eh
Max. Gradient            TolMAXG  ....  3.0000e-04 Eh/bohr
RMS Gradient             TolRMSG  ....  1.0000e-04 Eh/bohr
Max. Displacement        TolMAXD  ....  4.0000e-03 bohr
RMS Displacement         TolRMSD  ....  2.0000e-03 bohr

------------------------------------------------------------------------------
                        ORCA OPTIMIZATION COORDINATE SETUP
------------------------------------------------------------------------------

The optimization will be done in new redundant internal coordinates
Making redundant internal coordinates   ...  (new redundants) done
Evaluating the initial hessian          ...  (Almloef) done
Evaluating the coordinates              ...  done
Calculating the B-matrix                .... done
Calculating the G-matrix                .... done
Diagonalizing the G-matrix              .... done
Imposing constraints:
 Iter   0:  RMS(Cart)=    0.0000000000 RMS(Int)=    0.0000000000
CONVERGED
The first mode is                       ....    3
The number of degrees of freedom        ....   12
Storing new coordinates                 .... done

    -----------------------------------------------------------------
                    Redundant Internal Coordinates


    -----------------------------------------------------------------
         Definition                    Initial Value    Approx d2E/dq
    -----------------------------------------------------------------
      1. B(O   1,C   0)                  1.4116         0.516940   
      2. B(H   2,O   1)                  0.9575         0.524720   
      3. B(H   3,C   0)                  1.0960         0.352188   
      4. B(H   4,C   0)                  1.0895         0.360733   
      5. B(H   5,C   0)                  1.0956         0.352703 C 
      6. A(O   1,C   0,H   4)          107.0169         0.340286   
      7. A(O   1,C   0,H   3)          112.2263         0.338926   
      8. A(O   1,C   0,H   5)          112.2281         0.339009   
      9. A(H   3,C   0,H   5)          108.7730         0.288886   
     10. A(H   4,C   0,H   5)          108.2173         0.289973   
     11. A(H   3,C   0,H   4)          108.2178         0.289907   
     12. A(C   0,O   1,H   2)          108.7499         0.359341   
     13. D(H   2,O   1,C   0,H   5)    -61.4305         0.021176   
     14. D(H   2,O   1,C   0,H   3)     61.4270         0.021176   
     15. D(H   2,O   1,C   0,H   4)    179.9981         0.021176   
    -----------------------------------------------------------------

Number of atoms                         .... 6
Number of degrees of freedom            .... 15

         *************************************************************
         *                GEOMETRY OPTIMIZATION CYCLE   1            *
         *************************************************************
---------------------------------
CARTESIAN COORDINATES (ANGSTROEM)
---------------------------------
  C      3.011211   -1.180734    0.598555
  O      4.394577   -1.127886    0.874371
  H      4.772100   -0.378858    0.412556
  H      2.806338   -1.318801   -0.469286
  H      2.611536   -2.040101    1.135962
  H      2.484853   -0.284655    0.945596

----------------------------
CARTESIAN COORDINATES (A.U.)
----------------------------
  NO LB      ZA    FRAG     MASS         X           Y           Z
   0 C     6.0000    0    12.011    5.690364   -2.231264    1.131105
   1 O     8.0000    0    15.999    8.304547   -2.131396    1.652322
   2 H     1.0000    0     1.008    9.017962   -0.715938    0.779618
   3 H     1.0000    0     1.008    5.303210   -2.492173   -0.886822
   4 H     1.0000    0     1.008    4.935088   -3.855232    2.146657
   5 H     1.0000    0     1.008    4.695692   -0.537920    1.786917

--------------------------------
INTERNAL COORDINATES (ANGSTROEM)
--------------------------------
 C      0   0   0     0.000000000000     0.00000000     0.00000000
 O      1   0   0     1.411583815052     0.00000000     0.00000000
 H      2   1   0     0.957517443464   108.74992763     0.00000000
 H      1   2   3     1.096047373018   112.22629529    61.42701399
 H      1   2   3     1.089521927252   107.01689544   179.99808869
 H      1   2   3     1.095649475921   112.22806561   298.56952398

---------------------------
INTERNAL COORDINATES (A.U.)
---------------------------
 C      0   0   0     0.000000000000     0.00000000     0.00000000
 O      1   0   0     2.667506825524     0.00000000     0.00000000
 H      2   1   0     1.809445736600   108.74992763     0.00000000
 H      1   2   3     2.071229364807   112.22629529    61.42701399
 H      1   2   3     2.058898059408   107.01689544   179.99808869
 H      1   2   3     2.070477448265   112.22806561   298.56952398

---------------------
BASIS SET INFORMATION
---------------------
There are 3 groups of distinct atoms

 Group   1 Type C   : 11s6p2d1f contracted to 5s3p2d1f pattern {62111/411/11/1}
 Group   2 Type O   : 11s6p2d1f contracted to 5s3p2d1f pattern {62111/411/11/1}
 Group   3 Type H   : 5s1p contracted to 3s1p pattern {311/1}

Atom   0C    basis set group =>   1
Atom   1O    basis set group =>   2
Atom   2H    basis set group =>   3
Atom   3H    basis set group =>   3
Atom   4H    basis set group =>   3
Atom   5H    basis set group =>   3


           ************************************************************
           *        Program running with 4 parallel MPI-processes     *
           *              working on a common directory               *
           ************************************************************
------------------------------------------------------------------------------
                           ORCA GTO INTEGRAL CALCULATION
------------------------------------------------------------------------------

                         BASIS SET STATISTICS AND STARTUP INFO

 # of primitive gaussian shells          ...   64
 # of primitive gaussian functions       ...  124
 # of contracted shells                  ...   38
 # of contracted basis functions         ...   86
 Highest angular momentum                ...    3
 Maximum contraction depth               ...    6
 Integral package used                   ... LIBINT
 Integral threshhold            Thresh   ...  2.500e-11
 Primitive cut-off              TCut     ...  2.500e-12


------------------------------ INTEGRAL EVALUATION ----------------------------


 * One electron integrals 
 Pre-screening matrix                    ... done
 Shell pair data                         ... done (   0.000 sec)



           ************************************************************
           *        Program running with 4 parallel MPI-processes     *
           *              working on a common directory               *
           ************************************************************
-------------------------------------------------------------------------------
                                 ORCA SCF
-------------------------------------------------------------------------------

------------
SCF SETTINGS
------------
Hamiltonian:
 Density Functional     Method          .... DFT(GTOs)
 Exchange Functional    Exchange        .... WB97X-D3
 Correlation Functional Correlation     .... WB97X-D3
 Gradients option       PostSCFGGA      .... off
 Hybrid DFT is turned on
   Fraction HF Exchange ScalHFX         ....  0.195728
   Scaling of DF-GGA-X  ScalDFX         ....  0.000000
   Scaling of DF-GGA-C  ScalDFC         ....  1.000000
   Scaling of DF-LDA-C  ScalLDAC        ....  1.000000
   Perturbative correction              ....  0.000000
   Density functional embedding theory  .... OFF
 Long-range corrected/Screened/Range-Separated Hybrid DFT is turned on
   Amount of maximum screened exact exchange              ....  0.804272
   Range separation parameter mu (erf(mu*r12)/r12)        ....  0.250000


General Settings:
 Integral files         IntName         .... 7_geo_opt
 Hartree-Fock type      HFTyp           .... RHF
 Total Charge           Charge          ....    0
 Multiplicity           Mult            ....    1
 Number of Electrons    NEL             ....   18
 Basis Dimension        Dim             ....   86
 Nuclear Repulsion      ENuc            ....     40.4396581658 Eh

Convergence Acceleration:
 DIIS                   CNVDIIS         .... on
   Start iteration      DIISMaxIt       ....    12
   Startup error        DIISStart       ....  0.200000
   # of expansion vecs  DIISMaxEq       ....     5
   Bias factor          DIISBfac        ....   1.050
   Max. coefficient     DIISMaxC        ....  10.000
 Newton-Raphson         CNVNR           .... off
 SOSCF                  CNVSOSCF        .... on
   Start iteration      SOSCFMaxIt      ....   150
   Startup grad/error   SOSCFStart      ....  0.003300
 Level Shifting         CNVShift        .... on
   Level shift para.    LevelShift      ....    0.2500
   Turn off err/grad.   ShiftErr        ....    0.0010
 Zerner damping         CNVZerner       .... off
 Static damping         CNVDamp         .... on
   Fraction old density DampFac         ....    0.7000
   Max. Damping (<1)    DampMax         ....    0.9800
   Min. Damping (>=0)   DampMin         ....    0.0000
   Turn off err/grad.   DampErr         ....    0.1000
 Fernandez-Rico         CNVRico         .... off

SCF Procedure:
 Maximum # iterations   MaxIter         ....   125
 SCF integral mode      SCFMode         .... Direct
   Integral package                     .... LIBINT
 Reset frequency        DirectResetFreq ....    20
 Integral Threshold     Thresh          ....  2.500e-11 Eh
 Primitive CutOff       TCut            ....  2.500e-12 Eh

Convergence Tolerance:
 Convergence Check Mode ConvCheckMode   .... Total+1el-Energy
 Convergence forced     ConvForced      .... 0
 Energy Change          TolE            ....  1.000e-08 Eh
 1-El. energy change                    ....  1.000e-05 Eh
 Orbital Gradient       TolG            ....  1.000e-05
 Orbital Rotation angle TolX            ....  1.000e-05
 DIIS Error             TolErr          ....  5.000e-07


Diagonalization of the overlap matrix:
Smallest eigenvalue                        ... 1.649e-03
Time for diagonalization                   ...    0.002 sec
Threshold for overlap eigenvalues          ... 1.000e-08
Number of eigenvalues below threshold      ... 0
Time for construction of square roots      ...    0.004 sec
Total time needed                          ...    0.006 sec

-------------------
DFT GRID GENERATION
-------------------

General Integration Accuracy     IntAcc      ...  5.010
Radial Grid Type                 RadialGrid  ... Gauss-Chebyshev
Angular Grid (max. acc.)         AngularGrid ... Lebedev-434
Angular grid pruning method      GridPruning ... 3 (G Style)
Weight generation scheme         WeightScheme... Becke
Basis function cutoff            BFCut       ...    1.0000e-11
Integration weight cutoff        WCut        ...    1.0000e-14
Grids for H and He will be reduced by one unit

# of grid points (after initial pruning)     ...  48308 (   0.0 sec)
# of grid points (after weights+screening)   ...  46676 (   0.0 sec)
nearest neighbour list constructed           ...    0.0 sec
Grid point re-assignment to atoms done       ...    0.0 sec
Grid point division into batches done        ...    0.3 sec
Reduced shell lists constructed in    0.3 sec

Total number of grid points                  ...    46676
Total number of batches                      ...      733
Average number of points per batch           ...       63
Average number of grid points per atom       ...     7779
Average number of shells per batch           ...    33.11 (87.14%)
Average number of basis functions per batch  ...    76.78 (89.28%)
Average number of large shells per batch     ...    30.62 (92.46%)
Average number of large basis fcns per batch ...    72.25 (94.10%)
Maximum spatial batch extension              ...  15.77, 14.99, 16.58 au
Average spatial batch extension              ...   0.40,  0.40,  0.43 au

Time for grid setup =    0.377 sec

------------------------------
INITIAL GUESS: MODEL POTENTIAL
------------------------------
Loading Hartree-Fock densities                     ... done
Calculating cut-offs                               ... done
Setting up the integral package                    ... done
Initializing the effective Hamiltonian             ... done
Starting the Coulomb interaction                   ... done (   0.0 sec)
Reading the grid                                   ... done
Mapping shells                                     ... done
Starting the XC term evaluation                    ... done (   0.1 sec)
  promolecular density results
     # of electrons  =     17.998045196
     EX              =    -14.430354072
     EC              =     -0.575126492
     EX+EC           =    -15.005480563
Transforming the Hamiltonian                       ... done (   0.0 sec)
Diagonalizing the Hamiltonian                      ... done (   0.0 sec)
Back transforming the eigenvectors                 ... done (   0.0 sec)
Now organizing SCF variables                       ... done
                      ------------------
                      INITIAL GUESS DONE (   0.6 sec)
                      ------------------
--------------
SCF ITERATIONS
--------------
ITER       Energy         Delta-E        Max-DP      RMS-DP      [F,P]     Damp
               ***  Starting incremental Fock matrix formation  ***
  0   -115.6511915456   0.000000000000 0.03696709  0.00147478  0.2523658 0.7000
  1   -115.6882651887  -0.037073643049 0.02203041  0.00104091  0.1262613 0.7000
                               ***Turning on DIIS***
  2   -115.7053333687  -0.017068180080 0.03156725  0.00188143  0.0491050 0.0000
  3   -115.7330767747  -0.027743405976 0.01774159  0.00068034  0.0611259 0.0000
  4   -115.7376013331  -0.004524558400 0.00406512  0.00013180  0.0065594 0.0000
                      *** Initiating the SOSCF procedure ***
                           *** Shutting down DIIS ***
                      *** Re-Reading the Fockian *** 
                      *** Removing any level shift *** 
ITER      Energy       Delta-E        Grad      Rot      Max-DP    RMS-DP
  5   -115.73769552  -0.0000941901  0.000489  0.000489  0.000678  0.000043
               *** Restarting incremental Fock matrix formation ***
  6   -115.73770367  -0.0000081422  0.000152  0.000202  0.000490  0.000026
  7   -115.73770439  -0.0000007221  0.000056  0.000109  0.000208  0.000011
  8   -115.73770444  -0.0000000574  0.000019  0.000017  0.000030  0.000001
  9   -115.73770445  -0.0000000056  0.000010  0.000008  0.000015  0.000001
 10   -115.73770445  -0.0000000015  0.000003  0.000003  0.000003  0.000000
                  ***Gradient check signals convergence***
              ***Rediagonalizing the Fockian in SOSCF/NRSCF***

               *****************************************************
               *                     SUCCESS                       *
               *           SCF CONVERGED AFTER  11 CYCLES          *
               *****************************************************

Setting up the final grid:

General Integration Accuracy     IntAcc      ...  5.340
Radial Grid Type                 RadialGrid  ... Gauss-Chebyshev
Angular Grid (max. acc.)         AngularGrid ... Lebedev-590
Angular grid pruning method      GridPruning ... 3 (G Style)
Weight generation scheme         WeightScheme... Becke
Basis function cutoff            BFCut       ...    1.0000e-11
Integration weight cutoff        WCut        ...    1.0000e-14
Grids for H and He will be reduced by one unit

# of grid points (after initial pruning)     ...  77324 (   0.0 sec)
# of grid points (after weights+screening)   ...  74512 (   0.0 sec)
nearest neighbour list constructed           ...    0.0 sec
Grid point re-assignment to atoms done       ...    0.0 sec
Grid point division into batches done        ...    0.8 sec
Reduced shell lists constructed in    0.8 sec

Total number of grid points                  ...    74512
Total number of batches                      ...     1167
Average number of points per batch           ...       63
Average number of grid points per atom       ...    12419
Average number of shells per batch           ...    32.93 (86.66%)
Average number of basis functions per batch  ...    76.36 (88.79%)
Average number of large shells per batch     ...    30.32 (92.06%)
Average number of large basis fcns per batch ...    71.53 (93.67%)
Maximum spatial batch extension              ...  13.18, 14.25, 15.48 au
Average spatial batch extension              ...   0.34,  0.36,  0.37 au

Final grid set up in    0.9 sec
Final integration                            ... done (   0.2 sec)
Change in XC energy                          ...    -0.000107589
Integrated number of electrons               ...    18.000000748
Previous integrated no of electrons          ...    18.000002278

----------------
TOTAL SCF ENERGY
----------------

Total Energy       :         -115.73781204 Eh           -3149.38598 eV

Components:
Nuclear Repulsion  :           40.43965817 Eh            1100.41904 eV
Electronic Energy  :         -156.17747021 Eh           -4249.80502 eV
One Electron Energy:         -237.29844592 Eh           -6457.21899 eV
Two Electron Energy:           81.12097571 Eh            2207.41397 eV

Virial components:
Potential Energy   :         -230.98896142 Eh           -6285.52919 eV
Kinetic Energy     :          115.25114938 Eh            3136.14321 eV
Virial Ratio       :            2.00422263


DFT components:
N(Alpha)           :        9.000000374199 electrons
N(Beta)            :        9.000000374199 electrons
N(Total)           :       18.000000748398 electrons
E(XC)              :      -10.655730683923 Eh       
DFET-embed. en.    :        0.000000000000 Eh       

---------------
SCF CONVERGENCE
---------------

  Last Energy change         ...   -6.5455e-11  Tolerance :   1.0000e-08
  Last MAX-Density change    ...    1.8639e-06  Tolerance :   1.0000e-07
  Last RMS-Density change    ...    7.7767e-08  Tolerance :   5.0000e-09
  Last Orbital Gradient      ...    1.3498e-06  Tolerance :   1.0000e-05
  Last Orbital Rotation      ...    7.8040e-07  Tolerance :   1.0000e-05

             **** THE GBW FILE WAS UPDATED (7_geo_opt.gbw) ****
             **** DENSITY FILE WAS UPDATED (7_geo_opt.scfp.tmp) ****
             **** ENERGY FILE WAS UPDATED (7_geo_opt.en.tmp) ****
----------------
ORBITAL ENERGIES
----------------

  NO   OCC          E(Eh)            E(eV) 
   0   2.0000     -19.228077      -523.2226 
   1   2.0000     -10.315070      -280.6873 
   2   2.0000      -1.136794       -30.9337 
   3   2.0000      -0.795372       -21.6432 
   4   2.0000      -0.611603       -16.6426 
   5   2.0000      -0.541806       -14.7433 
   6   2.0000      -0.526319       -14.3219 
   7   2.0000      -0.433800       -11.8043 
   8   2.0000      -0.373612       -10.1665 
   9   0.0000       0.116648         3.1742 
  10   0.0000       0.156690         4.2638 
  11   0.0000       0.202577         5.5124 
  12   0.0000       0.205146         5.5823 
  13   0.0000       0.226378         6.1601 
  14   0.0000       0.304332         8.2813 
  15   0.0000       0.313356         8.5268 
  16   0.0000       0.404505        11.0071 
  17   0.0000       0.452630        12.3167 
  18   0.0000       0.485011        13.1978 
  19   0.0000       0.535913        14.5829 
  20   0.0000       0.543647        14.7934 
  21   0.0000       0.567674        15.4472 
  22   0.0000       0.598590        16.2885 
  23   0.0000       0.603574        16.4241 
  24   0.0000       0.671331        18.2678 
  25   0.0000       0.779012        21.1980 
  26   0.0000       0.832202        22.6454 
  27   0.0000       0.861306        23.4373 
  28   0.0000       0.989577        26.9278 
  29   0.0000       1.013924        27.5903 
  30   0.0000       1.109758        30.1981 
  31   0.0000       1.382642        37.6236 
  32   0.0000       1.512881        41.1676 
  33   0.0000       1.553564        42.2746 
  34   0.0000       1.602814        43.6148 
  35   0.0000       1.613017        43.8924 
  36   0.0000       1.624259        44.1983 
  37   0.0000       1.660436        45.1828 
  38   0.0000       1.688071        45.9347 
  39   0.0000       1.774629        48.2901 
  40   0.0000       1.952091        53.1191 
  41   0.0000       2.030691        55.2579 
  42   0.0000       2.055231        55.9257 
  43   0.0000       2.094229        56.9869 
  44   0.0000       2.114657        57.5427 
  45   0.0000       2.268594        61.7316 
  46   0.0000       2.333508        63.4980 
  47   0.0000       2.345613        63.8274 
  48   0.0000       2.380987        64.7899 
  49   0.0000       2.429617        66.1132 
  50   0.0000       2.497751        67.9673 
  51   0.0000       2.596442        70.6528 
  52   0.0000       2.640037        71.8391 
  53   0.0000       2.707224        73.6673 
  54   0.0000       2.842021        77.3353 
  55   0.0000       2.871278        78.1315 
  56   0.0000       2.888410        78.5976 
  57   0.0000       2.992865        81.4400 
  58   0.0000       3.096129        84.2500 
  59   0.0000       3.173083        86.3440 
  60   0.0000       3.299380        89.7807 
  61   0.0000       3.408487        92.7497 
  62   0.0000       3.441871        93.6581 
  63   0.0000       3.488434        94.9251 
  64   0.0000       3.612619        98.3043 
  65   0.0000       3.645353        99.1951 
  66   0.0000       3.667040        99.7852 
  67   0.0000       4.005559       108.9968 
  68   0.0000       4.224165       114.9454 
  69   0.0000       4.273535       116.2888 
  70   0.0000       4.456011       121.2542 
  71   0.0000       4.564393       124.2034 
  72   0.0000       5.346108       145.4750 
  73   0.0000       5.425380       147.6321 
  74   0.0000       5.554378       151.1423 
  75   0.0000       5.826178       158.5384 
  76   0.0000       5.834119       158.7544 
  77   0.0000       5.985591       162.8762 
  78   0.0000       6.379600       173.5978 
  79   0.0000       6.530942       177.7160 
  80   0.0000       6.745005       183.5409 
  81   0.0000       6.804035       185.1472 
  82   0.0000       7.039414       191.5522 
  83   0.0000       7.215922       196.3552 
  84   0.0000      22.406674       609.7166 
  85   0.0000      43.664299      1188.1660 

                    ********************************
                    * MULLIKEN POPULATION ANALYSIS *
                    ********************************

-----------------------
MULLIKEN ATOMIC CHARGES
-----------------------
   0 C :   -0.150819
   1 O :   -0.477667
   2 H :    0.313000
   3 H :    0.098606
   4 H :    0.118208
   5 H :    0.098671
Sum of atomic charges:    0.0000000

--------------------------------
MULLIKEN REDUCED ORBITAL CHARGES
--------------------------------
  0 C s       :     3.223026  s :     3.223026
      pz      :     1.047265  p :     2.826135
      px      :     0.702197
      py      :     1.076673
      dz2     :     0.011106  d :     0.094238
      dxz     :     0.032493
      dyz     :     0.002645
      dx2y2   :     0.012740
      dxy     :     0.035255
      f0      :     0.001356  f :     0.007420
      f+1     :     0.000956
      f-1     :     0.000175
      f+2     :     0.001464
      f-2     :     0.000123
      f+3     :     0.001361
      f-3     :     0.001986
  1 O s       :     3.792782  s :     3.792782
      pz      :     1.759406  p :     4.652623
      px      :     1.313645
      py      :     1.579572
      dz2     :     0.003136  d :     0.030577
      dxz     :     0.006477
      dyz     :     0.005835
      dx2y2   :     0.008936
      dxy     :     0.006192
      f0      :     0.000269  f :     0.001685
      f+1     :     0.000233
      f-1     :     0.000087
      f+2     :     0.000287
      f-2     :     0.000235
      f+3     :     0.000367
      f-3     :     0.000206
  2 H s       :     0.639307  s :     0.639307
      pz      :     0.017006  p :     0.047693
      px      :     0.012720
      py      :     0.017967
  3 H s       :     0.882029  s :     0.882029
      pz      :     0.012072  p :     0.019365
      px      :     0.003007
      py      :     0.004286
  4 H s       :     0.861572  s :     0.861572
      pz      :     0.006297  p :     0.020219
      px      :     0.004194
      py      :     0.009729
  5 H s       :     0.881953  s :     0.881953
      pz      :     0.004934  p :     0.019376
      px      :     0.004980
      py      :     0.009461


                     *******************************
                     * LOEWDIN POPULATION ANALYSIS *
                     *******************************

----------------------
LOEWDIN ATOMIC CHARGES
----------------------
   0 C :   -0.385102
   1 O :   -0.076106
   2 H :    0.165780
   3 H :    0.093403
   4 H :    0.108699
   5 H :    0.093326

-------------------------------
LOEWDIN REDUCED ORBITAL CHARGES
-------------------------------
  0 C s       :     2.862850  s :     2.862850
      pz      :     1.096635  p :     3.052279
      px      :     0.846056
      py      :     1.109589
      dz2     :     0.072413  d :     0.412949
      dxz     :     0.114038
      dyz     :     0.020709
      dx2y2   :     0.082148
      dxy     :     0.123640
      f0      :     0.007822  f :     0.057024
      f+1     :     0.007163
      f-1     :     0.000855
      f+2     :     0.012527
      f-2     :     0.004831
      f+3     :     0.011735
      f-3     :     0.012091
  1 O s       :     3.366278  s :     3.366278
      pz      :     1.699042  p :     4.633619
      px      :     1.381193
      py      :     1.553383
      dz2     :     0.006131  d :     0.071565
      dxz     :     0.017863
      dyz     :     0.008086
      dx2y2   :     0.019338
      dxy     :     0.020147
      f0      :     0.000483  f :     0.004645
      f+1     :     0.000622
      f-1     :     0.000072
      f+2     :     0.001050
      f-2     :     0.000560
      f+3     :     0.000890
      f-3     :     0.000966
  2 H s       :     0.675138  s :     0.675138
      pz      :     0.055755  p :     0.159082
      px      :     0.033905
      py      :     0.069423
  3 H s       :     0.846775  s :     0.846775
      pz      :     0.036180  p :     0.059822
      px      :     0.009713
      py      :     0.013929
  4 H s       :     0.831708  s :     0.831708
      pz      :     0.019211  p :     0.059592
      px      :     0.011608
      py      :     0.028773
  5 H s       :     0.846787  s :     0.846787
      pz      :     0.015628  p :     0.059887
      px      :     0.015221
      py      :     0.029039


                      *****************************
                      * MAYER POPULATION ANALYSIS *
                      *****************************

  NA   - Mulliken gross atomic population
  ZA   - Total nuclear charge
  QA   - Mulliken gross atomic charge
  VA   - Mayer's total valence
  BVA  - Mayer's bonded valence
  FA   - Mayer's free valence

  ATOM       NA         ZA         QA         VA         BVA        FA
  0 C      6.1508     6.0000    -0.1508     3.9350     3.9350     0.0000
  1 O      8.4777     8.0000    -0.4777     1.8880     1.8880     0.0000
  2 H      0.6870     1.0000     0.3130     0.9136     0.9136     0.0000
  3 H      0.9014     1.0000     0.0986     0.9596     0.9596     0.0000
  4 H      0.8818     1.0000     0.1182     0.9598     0.9598     0.0000
  5 H      0.9013     1.0000     0.0987     0.9596     0.9596    -0.0000

  Mayer bond orders larger than 0.1
B(  0-C ,  1-O ) :   0.9986 B(  0-C ,  3-H ) :   0.9755 B(  0-C ,  4-H ) :   0.9749 
B(  0-C ,  5-H ) :   0.9755 B(  1-O ,  2-H ) :   0.9002 

-------
TIMINGS
-------

Total SCF time: 0 days 0 hours 0 min 8 sec 

Total time                  ....       8.566 sec
Sum of individual times     ....       8.189 sec  ( 95.6%)

Fock matrix formation       ....       6.639 sec  ( 77.5%)
  XC integration            ....       1.941 sec  ( 29.2% of F)
    Basis function eval.    ....       0.410 sec  ( 21.1% of XC)
    Density eval.           ....       0.263 sec  ( 13.5% of XC)
    XC-Functional eval.     ....       0.666 sec  ( 34.3% of XC)
    XC-Potential eval.      ....       0.276 sec  ( 14.2% of XC)
Diagonalization             ....       0.030 sec  (  0.4%)
Density matrix formation    ....       0.002 sec  (  0.0%)
Population analysis         ....       0.014 sec  (  0.2%)
Initial guess               ....       0.176 sec  (  2.1%)
Orbital Transformation      ....       0.000 sec  (  0.0%)
Orbital Orthonormalization  ....       0.000 sec  (  0.0%)
DIIS solution               ....       0.027 sec  (  0.3%)
SOSCF solution              ....       0.033 sec  (  0.4%)
Grid generation             ....       1.267 sec  ( 14.8%)


-------------------------------------------------------------------------------
                          DFT DISPERSION CORRECTION                            
                                                                               
                              DFTD3 V3.1  Rev 1                                
                              USING zero damping                               
-------------------------------------------------------------------------------
The omegaB97X-D3 functional is recognized. Fit by Chai et al.
Active option DFTDOPT                   ...         3   

molecular C6(AA) [au] = 208.715251 


            DFT-D V3
 parameters
 s6 scaling factor         :     1.0000 
 rs6 scaling factor        :     1.2810 
 s8 scaling factor         :     1.0000 
 rs8 scaling factor        :     1.0940 
 Damping factor alpha6     :    14.0000 
 Damping factor alpha8     :    16.0000 
 ad hoc parameters k1-k3   :    16.0000     1.3333    -4.0000 

 Edisp/kcal,au: -0.150097453507  -0.000239195492 
 E6   /kcal   :  -0.029600861 
 E8   /kcal   :  -0.120496593 
 % E8         :  80.278905479 

-------------------------   ----------------
Dispersion correction           -0.000239195
-------------------------   ----------------


-------------------------   --------------------
FINAL SINGLE POINT ENERGY      -115.738051236539
-------------------------   --------------------



           ************************************************************
           *        Program running with 4 parallel MPI-processes     *
           *              working on a common directory               *
           ************************************************************
------------------------------------------------------------------------------
                         ORCA SCF GRADIENT CALCULATION
------------------------------------------------------------------------------

Gradient of the Kohn-Sham DFT energy:
Kohn-Sham wavefunction type      ... RKS
Hartree-Fock exchange scaling    ...    0.196
Number of operators              ...    1
Number of atoms                  ...    6
Basis set dimensions             ...   86
Integral neglect threshold       ... 2.5e-11
Integral primitive cutoff        ... 2.5e-12

Nuclear repulsion gradient       ... done
One Electron Gradient            ... done
Pre-screening matrix             ... done
Starting the two electron gradient:
Two electron gradient done
Exchange-correlation gradient    ... done
Dispersion correction            ... done

------------------
CARTESIAN GRADIENT
------------------

   1   C   :   -0.000196514    0.000222885    0.000030353
   2   O   :    0.000020739   -0.000031479    0.000029203
   3   H   :    0.000000507    0.000010281   -0.000009729
   4   H   :    0.000007619    0.000011991    0.000003399
   5   H   :    0.000038414   -0.000008671    0.000018194
   6   H   :    0.000129235   -0.000205007   -0.000071420

Difference to translation invariance:
           :    0.0000000000    0.0000000000   -0.0000000000

Norm of the cartesian gradient     ...    0.0003970096
RMS gradient                       ...    0.0000935761
MAX gradient                       ...    0.0002228851

-------
TIMINGS
-------

Total SCF gradient time            ...        1.580 sec

One electron gradient       ....       0.004 sec  (  0.3%)
Prescreening matrices       ....       0.024 sec  (  1.5%)
Two electron gradient       ....       0.846 sec  ( 53.6%)
XC gradient                 ....       0.410 sec  ( 26.0%)
------------------------------------------------------------------------------
                         ORCA GEOMETRY RELAXATION STEP
------------------------------------------------------------------------------

Reading the OPT-File                    .... done
Getting information on internals        .... done
Copying old internal coords+grads       .... done
Making the new internal coordinates     .... (new redundants).... done
Validating the new internal coordinates .... (new redundants).... done
Calculating the B-matrix                .... done
Calculating the G,G- and P matrices     .... done
Transforming gradient to internals      .... done
Projecting the internal gradient        .... done
Number of atoms                         ....   6
Number of internal coordinates          ....  15
Current Energy                          ....  -115.738051237 Eh
Current gradient norm                   ....     0.000397010 Eh/bohr
Maximum allowed component of the step   ....  0.300
Current trust radius                    ....  0.300
Evaluating the initial hessian          ....  (Almloef) done
Projecting the Hessian                  .... done
Forming the augmented Hessian           .... done
Diagonalizing the augmented Hessian     .... done
Last element of RFO vector              ....  0.999999967
Lowest eigenvalues of augmented Hessian:
 -0.000000019  0.021176286  0.181874916  0.192360151  0.313420716
Length of the computed step             ....  0.000256932
The final length of the internal step   ....  0.000256932
Converting the step to cartesian space:
 Initial RMS(Int)=    0.0000663395
Transforming coordinates:
 Iter   0:  RMS(Cart)=    0.0000632421 RMS(Int)=    0.0000663404
 Iter   1:  RMS(Cart)=    0.0000000052 RMS(Int)=    0.0000000058
Imposing constraints:
 Iter   0:  RMS(Cart)=    0.0000000004 RMS(Int)=    0.0000000000
CONVERGED
done
Storing new coordinates                 .... done

                                .--------------------.
          ----------------------|Geometry convergence|-------------------------
          Item                value                   Tolerance       Converged
          ---------------------------------------------------------------------
          RMS gradient        0.0000203231            0.0001000000      YES
          MAX gradient        0.0000609279            0.0003000000      YES
          RMS step            0.0000663395            0.0020000000      YES
          MAX step            0.0001925612            0.0040000000      YES
          ........................................................
          Max(Bonds)      0.0000      Max(Angles)    0.01
          Max(Dihed)        0.01      Max(Improp)    0.00
          ---------------------------------------------------------------------

                    ***********************HURRAY********************
                    ***        THE OPTIMIZATION HAS CONVERGED     ***
                    *************************************************


    ---------------------------------------------------------------------------
                         Redundant Internal Coordinates

                          --- Optimized Parameters ---  
                            (Angstroem and degrees)

        Definition                    OldVal   dE/dq     Step     FinalVal
    ----------------------------------------------------------------------------
     1. B(O   1,C   0)                1.4116  0.000024 -0.0000    1.4116   
     2. B(H   2,O   1)                0.9575  0.000012 -0.0000    0.9575   
     3. B(H   3,C   0)                1.0960 -0.000006  0.0000    1.0961   
     4. B(H   4,C   0)                1.0895  0.000002 -0.0000    1.0895   
     5. B(H   5,C   0)                1.0956 -0.000252  0.0000    1.0956 C 
     6. A(O   1,C   0,H   4)          107.02 -0.000061    0.01    107.03   
     7. A(O   1,C   0,H   3)          112.23  0.000001   -0.00    112.23   
     8. A(O   1,C   0,H   5)          112.23 -0.000001    0.00    112.23   
     9. A(H   3,C   0,H   5)          108.77  0.000011   -0.00    108.77   
    10. A(H   4,C   0,H   5)          108.22  0.000021   -0.00    108.21   
    11. A(H   3,C   0,H   4)          108.22  0.000031   -0.01    108.21   
    12. A(C   0,O   1,H   2)          108.75 -0.000009    0.00    108.75   
    13. D(H   2,O   1,C   0,H   5)    -61.43 -0.000010    0.01    -61.43   
    14. D(H   2,O   1,C   0,H   3)     61.43  0.000004    0.00     61.43   
    15. D(H   2,O   1,C   0,H   4)    180.00  0.000003    0.00    180.00   
    ----------------------------------------------------------------------------
                 *******************************************************
                 *** FINAL ENERGY EVALUATION AT THE STATIONARY POINT ***
                 ***               (AFTER    1 CYCLES)               ***
                 *******************************************************
---------------------------------
CARTESIAN COORDINATES (ANGSTROEM)
---------------------------------
  C      3.011252   -1.180756    0.598589
  O      4.394604   -1.127865    0.874342
  H      4.772094   -0.378821    0.412552
  H      2.806345   -1.318825   -0.469255
  H      2.611438   -2.040097    1.135929
  H      2.484882   -0.284671    0.945597

----------------------------
CARTESIAN COORDINATES (A.U.)
----------------------------
  NO LB      ZA    FRAG     MASS         X           Y           Z
   0 C     6.0000    0    12.011    5.690442   -2.231305    1.131169
   1 O     8.0000    0    15.999    8.304598   -2.131356    1.652266
   2 H     1.0000    0     1.008    9.017951   -0.715868    0.779610
   3 H     1.0000    0     1.008    5.303223   -2.492217   -0.886763
   4 H     1.0000    0     1.008    4.934903   -3.855225    2.146594
   5 H     1.0000    0     1.008    4.695747   -0.537951    1.786920

--------------------------------
INTERNAL COORDINATES (ANGSTROEM)
--------------------------------
 C      0   0   0     0.000000000000     0.00000000     0.00000000
 O      1   0   0     1.411559076994     0.00000000     0.00000000
 H      2   1   0     0.957504971862   108.75132503     0.00000000
 H      1   2   3     1.096056392588   112.22587280    61.42878756
 H      1   2   3     1.089519616103   107.02792820   179.99964249
 H      1   2   3     1.095649476839   112.22852865   298.57493495

---------------------------
INTERNAL COORDINATES (A.U.)
---------------------------
 C      0   0   0     0.000000000000     0.00000000     0.00000000
 O      1   0   0     2.667460077368     0.00000000     0.00000000
 H      2   1   0     1.809422168687   108.75132503     0.00000000
 H      1   2   3     2.071246409324   112.22587280    61.42878756
 H      1   2   3     2.058893691969   107.02792820   179.99964249
 H      1   2   3     2.070477450000   112.22852865   298.57493495

---------------------
BASIS SET INFORMATION
---------------------
There are 3 groups of distinct atoms

 Group   1 Type C   : 11s6p2d1f contracted to 5s3p2d1f pattern {62111/411/11/1}
 Group   2 Type O   : 11s6p2d1f contracted to 5s3p2d1f pattern {62111/411/11/1}
 Group   3 Type H   : 5s1p contracted to 3s1p pattern {311/1}

Atom   0C    basis set group =>   1
Atom   1O    basis set group =>   2
Atom   2H    basis set group =>   3
Atom   3H    basis set group =>   3
Atom   4H    basis set group =>   3
Atom   5H    basis set group =>   3


           ************************************************************
           *        Program running with 4 parallel MPI-processes     *
           *              working on a common directory               *
           ************************************************************
------------------------------------------------------------------------------
                           ORCA GTO INTEGRAL CALCULATION
------------------------------------------------------------------------------

                         BASIS SET STATISTICS AND STARTUP INFO

 # of primitive gaussian shells          ...   64
 # of primitive gaussian functions       ...  124
 # of contracted shells                  ...   38
 # of contracted basis functions         ...   86
 Highest angular momentum                ...    3
 Maximum contraction depth               ...    6
 Integral package used                   ... LIBINT
 Integral threshhold            Thresh   ...  2.500e-11
 Primitive cut-off              TCut     ...  2.500e-12


------------------------------ INTEGRAL EVALUATION ----------------------------


 * One electron integrals 
 Pre-screening matrix                    ... done
 Shell pair data                         ... done (   0.000 sec)



           ************************************************************
           *        Program running with 4 parallel MPI-processes     *
           *              working on a common directory               *
           ************************************************************
-------------------------------------------------------------------------------
                                 ORCA SCF
-------------------------------------------------------------------------------

------------
SCF SETTINGS
------------
Hamiltonian:
 Density Functional     Method          .... DFT(GTOs)
 Exchange Functional    Exchange        .... WB97X-D3
 Correlation Functional Correlation     .... WB97X-D3
 Gradients option       PostSCFGGA      .... off
 Hybrid DFT is turned on
   Fraction HF Exchange ScalHFX         ....  0.195728
   Scaling of DF-GGA-X  ScalDFX         ....  0.000000
   Scaling of DF-GGA-C  ScalDFC         ....  1.000000
   Scaling of DF-LDA-C  ScalLDAC        ....  1.000000
   Perturbative correction              ....  0.000000
   Density functional embedding theory  .... OFF
 Long-range corrected/Screened/Range-Separated Hybrid DFT is turned on
   Amount of maximum screened exact exchange              ....  0.804272
   Range separation parameter mu (erf(mu*r12)/r12)        ....  0.250000


General Settings:
 Integral files         IntName         .... 7_geo_opt
 Hartree-Fock type      HFTyp           .... RHF
 Total Charge           Charge          ....    0
 Multiplicity           Mult            ....    1
 Number of Electrons    NEL             ....   18
 Basis Dimension        Dim             ....   86
 Nuclear Repulsion      ENuc            ....     40.4399561133 Eh

Convergence Acceleration:
 DIIS                   CNVDIIS         .... on
   Start iteration      DIISMaxIt       ....    12
   Startup error        DIISStart       ....  0.200000
   # of expansion vecs  DIISMaxEq       ....     5
   Bias factor          DIISBfac        ....   1.050
   Max. coefficient     DIISMaxC        ....  10.000
 Newton-Raphson         CNVNR           .... off
 SOSCF                  CNVSOSCF        .... on
   Start iteration      SOSCFMaxIt      ....   150
   Startup grad/error   SOSCFStart      ....  0.003300
 Level Shifting         CNVShift        .... on
   Level shift para.    LevelShift      ....    0.2500
   Turn off err/grad.   ShiftErr        ....    0.0010
 Zerner damping         CNVZerner       .... off
 Static damping         CNVDamp         .... on
   Fraction old density DampFac         ....    0.7000
   Max. Damping (<1)    DampMax         ....    0.9800
   Min. Damping (>=0)   DampMin         ....    0.0000
   Turn off err/grad.   DampErr         ....    0.1000
 Fernandez-Rico         CNVRico         .... off

SCF Procedure:
 Maximum # iterations   MaxIter         ....   125
 SCF integral mode      SCFMode         .... Direct
   Integral package                     .... LIBINT
 Reset frequency        DirectResetFreq ....    20
 Integral Threshold     Thresh          ....  2.500e-11 Eh
 Primitive CutOff       TCut            ....  2.500e-12 Eh

Convergence Tolerance:
 Convergence Check Mode ConvCheckMode   .... Total+1el-Energy
 Convergence forced     ConvForced      .... 0
 Energy Change          TolE            ....  1.000e-08 Eh
 1-El. energy change                    ....  1.000e-05 Eh
 Orbital Gradient       TolG            ....  1.000e-05
 Orbital Rotation angle TolX            ....  1.000e-05
 DIIS Error             TolErr          ....  5.000e-07


Diagonalization of the overlap matrix:
Smallest eigenvalue                        ... 1.649e-03
Time for diagonalization                   ...    0.002 sec
Threshold for overlap eigenvalues          ... 1.000e-08
Number of eigenvalues below threshold      ... 0
Time for construction of square roots      ...    0.008 sec
Total time needed                          ...    0.010 sec

---------------------
INITIAL GUESS: MOREAD
---------------------
Guess MOs are being read from file: 7_geo_opt.gbw
Input Geometry matches current geometry (good)
Input basis set matches current basis set (good)
MOs were renormalized
MOs were reorthogonalized (Cholesky)
                      ------------------
                      INITIAL GUESS DONE (   0.0 sec)
                      ------------------
-------------------
DFT GRID GENERATION
-------------------

General Integration Accuracy     IntAcc      ...  5.010
Radial Grid Type                 RadialGrid  ... Gauss-Chebyshev
Angular Grid (max. acc.)         AngularGrid ... Lebedev-434
Angular grid pruning method      GridPruning ... 3 (G Style)
Weight generation scheme         WeightScheme... Becke
Basis function cutoff            BFCut       ...    1.0000e-11
Integration weight cutoff        WCut        ...    1.0000e-14
Grids for H and He will be reduced by one unit

# of grid points (after initial pruning)     ...  48308 (   0.0 sec)
# of grid points (after weights+screening)   ...  46677 (   0.0 sec)
nearest neighbour list constructed           ...    0.0 sec
Grid point re-assignment to atoms done       ...    0.0 sec
Grid point division into batches done        ...    0.3 sec
Reduced shell lists constructed in    0.3 sec

Total number of grid points                  ...    46677
Total number of batches                      ...      733
Average number of points per batch           ...       63
Average number of grid points per atom       ...     7780
Average number of shells per batch           ...    33.14 (87.21%)
Average number of basis functions per batch  ...    76.85 (89.36%)
Average number of large shells per batch     ...    30.61 (92.35%)
Average number of large basis fcns per batch ...    72.30 (94.08%)
Maximum spatial batch extension              ...  15.77, 14.99, 16.58 au
Average spatial batch extension              ...   0.40,  0.41,  0.42 au

Time for grid setup =    0.394 sec

--------------
SCF ITERATIONS
--------------
ITER       Energy         Delta-E        Max-DP      RMS-DP      [F,P]     Damp
               ***  Starting incremental Fock matrix formation  ***
                      *** Initiating the SOSCF procedure ***
                      *** Re-Reading the Fockian *** 
                      *** Removing any level shift *** 
ITER      Energy       Delta-E        Grad      Rot      Max-DP    RMS-DP
  0   -115.73770445 -115.7377044492  0.000007  0.000007  0.000010  0.000001
               *** Restarting incremental Fock matrix formation ***
  1   -115.73770445  -0.0000000020  0.000004  0.000004  0.000005  0.000000
  2   -115.73770445  -0.0000000003  0.000003  0.000002  0.000003  0.000000
                 **** Energy Check signals convergence ****
              ***Rediagonalizing the Fockian in SOSCF/NRSCF***

               *****************************************************
               *                     SUCCESS                       *
               *           SCF CONVERGED AFTER   3 CYCLES          *
               *****************************************************

Setting up the final grid:

General Integration Accuracy     IntAcc      ...  5.340
Radial Grid Type                 RadialGrid  ... Gauss-Chebyshev
Angular Grid (max. acc.)         AngularGrid ... Lebedev-590
Angular grid pruning method      GridPruning ... 3 (G Style)
Weight generation scheme         WeightScheme... Becke
Basis function cutoff            BFCut       ...    1.0000e-11
Integration weight cutoff        WCut        ...    1.0000e-14
Grids for H and He will be reduced by one unit

# of grid points (after initial pruning)     ...  77324 (   0.0 sec)
# of grid points (after weights+screening)   ...  74512 (   0.0 sec)
nearest neighbour list constructed           ...    0.0 sec
Grid point re-assignment to atoms done       ...    0.0 sec
Grid point division into batches done        ...    0.8 sec
Reduced shell lists constructed in    0.8 sec

Total number of grid points                  ...    74512
Total number of batches                      ...     1167
Average number of points per batch           ...       63
Average number of grid points per atom       ...    12419
Average number of shells per batch           ...    32.94 (86.67%)
Average number of basis functions per batch  ...    76.38 (88.81%)
Average number of large shells per batch     ...    30.32 (92.05%)
Average number of large basis fcns per batch ...    71.53 (93.66%)
Maximum spatial batch extension              ...  13.18, 14.25, 15.48 au
Average spatial batch extension              ...   0.34,  0.36,  0.37 au

Final grid set up in    0.9 sec
Final integration                            ... done (   0.2 sec)
Change in XC energy                          ...    -0.000107602
Integrated number of electrons               ...    18.000000748
Previous integrated no of electrons          ...    18.000002277

----------------
TOTAL SCF ENERGY
----------------

Total Energy       :         -115.73781205 Eh           -3149.38598 eV

Components:
Nuclear Repulsion  :           40.43995611 Eh            1100.42715 eV
Electronic Energy  :         -156.17776817 Eh           -4249.81313 eV
One Electron Energy:         -237.29903454 Eh           -6457.23501 eV
Two Electron Energy:           81.12126637 Eh            2207.42188 eV

Virial components:
Potential Energy   :         -230.98903189 Eh           -6285.53111 eV
Kinetic Energy     :          115.25121983 Eh            3136.14513 eV
Virial Ratio       :            2.00422201


DFT components:
N(Alpha)           :        9.000000374163 electrons
N(Beta)            :        9.000000374163 electrons
N(Total)           :       18.000000748325 electrons
E(XC)              :      -10.655744736414 Eh       
DFET-embed. en.    :        0.000000000000 Eh       

---------------
SCF CONVERGENCE
---------------

  Last Energy change         ...   -1.1593e-10  Tolerance :   1.0000e-08
  Last MAX-Density change    ...    6.3103e-07  Tolerance :   1.0000e-07
  Last RMS-Density change    ...    4.8840e-08  Tolerance :   5.0000e-09
  Last Orbital Gradient      ...    5.5018e-07  Tolerance :   1.0000e-05
  Last Orbital Rotation      ...    5.8601e-07  Tolerance :   1.0000e-05

             **** THE GBW FILE WAS UPDATED (7_geo_opt.gbw) ****
             **** DENSITY FILE WAS UPDATED (7_geo_opt.scfp.tmp) ****
             **** ENERGY FILE WAS UPDATED (7_geo_opt.en.tmp) ****
----------------
ORBITAL ENERGIES
----------------

  NO   OCC          E(Eh)            E(eV) 
   0   2.0000     -19.228072      -523.2225 
   1   2.0000     -10.315065      -280.6872 
   2   2.0000      -1.136801       -30.9339 
   3   2.0000      -0.795373       -21.6432 
   4   2.0000      -0.611607       -16.6427 
   5   2.0000      -0.541803       -14.7432 
   6   2.0000      -0.526330       -14.3222 
   7   2.0000      -0.433793       -11.8041 
   8   2.0000      -0.373608       -10.1664 
   9   0.0000       0.116650         3.1742 
  10   0.0000       0.156688         4.2637 
  11   0.0000       0.202585         5.5126 
  12   0.0000       0.205148         5.5824 
  13   0.0000       0.226379         6.1601 
  14   0.0000       0.304344         8.2816 
  15   0.0000       0.313355         8.5268 
  16   0.0000       0.404516        11.0074 
  17   0.0000       0.452639        12.3169 
  18   0.0000       0.484999        13.1975 
  19   0.0000       0.535910        14.5828 
  20   0.0000       0.543651        14.7935 
  21   0.0000       0.567682        15.4474 
  22   0.0000       0.598591        16.2885 
  23   0.0000       0.603590        16.4245 
  24   0.0000       0.671325        18.2677 
  25   0.0000       0.779015        21.1981 
  26   0.0000       0.832192        22.6451 
  27   0.0000       0.861319        23.4377 
  28   0.0000       0.989581        26.9279 
  29   0.0000       1.013913        27.5900 
  30   0.0000       1.109767        30.1983 
  31   0.0000       1.382649        37.6238 
  32   0.0000       1.512888        41.1678 
  33   0.0000       1.553571        42.2748 
  34   0.0000       1.602810        43.6147 
  35   0.0000       1.613013        43.8923 
  36   0.0000       1.624282        44.1989 
  37   0.0000       1.660425        45.1825 
  38   0.0000       1.688079        45.9350 
  39   0.0000       1.774645        48.2905 
  40   0.0000       1.952106        53.1195 
  41   0.0000       2.030651        55.2568 
  42   0.0000       2.055233        55.9257 
  43   0.0000       2.094241        56.9872 
  44   0.0000       2.114635        57.5421 
  45   0.0000       2.268587        61.7314 
  46   0.0000       2.333519        63.4983 
  47   0.0000       2.345636        63.8280 
  48   0.0000       2.381021        64.7909 
  49   0.0000       2.429640        66.1139 
  50   0.0000       2.497783        67.9681 
  51   0.0000       2.596409        70.6519 
  52   0.0000       2.640050        71.8394 
  53   0.0000       2.707262        73.6683 
  54   0.0000       2.842093        77.3373 
  55   0.0000       2.871301        78.1321 
  56   0.0000       2.888363        78.5964 
  57   0.0000       2.992839        81.4393 
  58   0.0000       3.096138        84.2502 
  59   0.0000       3.173092        86.3442 
  60   0.0000       3.299295        89.7784 
  61   0.0000       3.408412        92.7476 
  62   0.0000       3.441950        93.6602 
  63   0.0000       3.488448        94.9255 
  64   0.0000       3.612616        98.3043 
  65   0.0000       3.645384        99.1959 
  66   0.0000       3.667056        99.7857 
  67   0.0000       4.005610       108.9982 
  68   0.0000       4.224174       114.9456 
  69   0.0000       4.273568       116.2897 
  70   0.0000       4.455929       121.2520 
  71   0.0000       4.564388       124.2033 
  72   0.0000       5.346120       145.4753 
  73   0.0000       5.425391       147.6324 
  74   0.0000       5.554397       151.1428 
  75   0.0000       5.826220       158.5395 
  76   0.0000       5.834151       158.7553 
  77   0.0000       5.985630       162.8773 
  78   0.0000       6.379636       173.5987 
  79   0.0000       6.530947       177.7161 
  80   0.0000       6.745001       183.5408 
  81   0.0000       6.804053       185.1477 
  82   0.0000       7.039410       191.5521 
  83   0.0000       7.215933       196.3555 
  84   0.0000      22.406748       609.7186 
  85   0.0000      43.664290      1188.1657 

                    ********************************
                    * MULLIKEN POPULATION ANALYSIS *
                    ********************************

-----------------------
MULLIKEN ATOMIC CHARGES
-----------------------
   0 C :   -0.150826
   1 O :   -0.477663
   2 H :    0.313008
   3 H :    0.098602
   4 H :    0.118209
   5 H :    0.098669
Sum of atomic charges:   -0.0000000

--------------------------------
MULLIKEN REDUCED ORBITAL CHARGES
--------------------------------
  0 C s       :     3.223016  s :     3.223016
      pz      :     1.047275  p :     2.826146
      px      :     0.702195
      py      :     1.076676
      dz2     :     0.011106  d :     0.094243
      dxz     :     0.032496
      dyz     :     0.002644
      dx2y2   :     0.012739
      dxy     :     0.035258
      f0      :     0.001356  f :     0.007420
      f+1     :     0.000956
      f-1     :     0.000175
      f+2     :     0.001464
      f-2     :     0.000123
      f+3     :     0.001361
      f-3     :     0.001986
  1 O s       :     3.792772  s :     3.792772
      pz      :     1.759423  p :     4.652628
      px      :     1.313658
      py      :     1.579548
      dz2     :     0.003136  d :     0.030577
      dxz     :     0.006477
      dyz     :     0.005835
      dx2y2   :     0.008938
      dxy     :     0.006192
      f0      :     0.000269  f :     0.001685
      f+1     :     0.000233
      f-1     :     0.000087
      f+2     :     0.000287
      f-2     :     0.000235
      f+3     :     0.000367
      f-3     :     0.000206
  2 H s       :     0.639298  s :     0.639298
      pz      :     0.017007  p :     0.047694
      px      :     0.012720
      py      :     0.017967
  3 H s       :     0.882033  s :     0.882033
      pz      :     0.012072  p :     0.019365
      px      :     0.003007
      py      :     0.004286
  4 H s       :     0.861572  s :     0.861572
      pz      :     0.006297  p :     0.020220
      px      :     0.004194
      py      :     0.009729
  5 H s       :     0.881955  s :     0.881955
      pz      :     0.004934  p :     0.019376
      px      :     0.004980
      py      :     0.009461


                     *******************************
                     * LOEWDIN POPULATION ANALYSIS *
                     *******************************

----------------------
LOEWDIN ATOMIC CHARGES
----------------------
   0 C :   -0.385126
   1 O :   -0.076081
   2 H :    0.165780
   3 H :    0.093405
   4 H :    0.108696
   5 H :    0.093326

-------------------------------
LOEWDIN REDUCED ORBITAL CHARGES
-------------------------------
  0 C s       :     2.862839  s :     2.862839
      pz      :     1.096638  p :     3.052290
      px      :     0.846064
      py      :     1.109588
      dz2     :     0.072413  d :     0.412970
      dxz     :     0.114047
      dyz     :     0.020706
      dx2y2   :     0.082149
      dxy     :     0.123654
      f0      :     0.007823  f :     0.057027
      f+1     :     0.007163
      f-1     :     0.000855
      f+2     :     0.012526
      f-2     :     0.004831
      f+3     :     0.011737
      f-3     :     0.012091
  1 O s       :     3.366252  s :     3.366252
      pz      :     1.699047  p :     4.633617
      px      :     1.381210
      py      :     1.553360
      dz2     :     0.006131  d :     0.071568
      dxz     :     0.017864
      dyz     :     0.008086
      dx2y2   :     0.019340
      dxy     :     0.020147
      f0      :     0.000483  f :     0.004645
      f+1     :     0.000622
      f-1     :     0.000072
      f+2     :     0.001051
      f-2     :     0.000560
      f+3     :     0.000890
      f-3     :     0.000967
  2 H s       :     0.675132  s :     0.675132
      pz      :     0.055756  p :     0.159087
      px      :     0.033905
      py      :     0.069426
  3 H s       :     0.846775  s :     0.846775
      pz      :     0.036179  p :     0.059821
      px      :     0.009713
      py      :     0.013929
  4 H s       :     0.831710  s :     0.831710
      pz      :     0.019210  p :     0.059594
      px      :     0.011610
      py      :     0.028773
  5 H s       :     0.846787  s :     0.846787
      pz      :     0.015628  p :     0.059888
      px      :     0.015221
      py      :     0.029039


                      *****************************
                      * MAYER POPULATION ANALYSIS *
                      *****************************

  NA   - Mulliken gross atomic population
  ZA   - Total nuclear charge
  QA   - Mulliken gross atomic charge
  VA   - Mayer's total valence
  BVA  - Mayer's bonded valence
  FA   - Mayer's free valence

  ATOM       NA         ZA         QA         VA         BVA        FA
  0 C      6.1508     6.0000    -0.1508     3.9350     3.9350    -0.0000
  1 O      8.4777     8.0000    -0.4777     1.8880     1.8880    -0.0000
  2 H      0.6870     1.0000     0.3130     0.9136     0.9136     0.0000
  3 H      0.9014     1.0000     0.0986     0.9596     0.9596    -0.0000
  4 H      0.8818     1.0000     0.1182     0.9598     0.9598     0.0000
  5 H      0.9013     1.0000     0.0987     0.9596     0.9596    -0.0000

  Mayer bond orders larger than 0.1
B(  0-C ,  1-O ) :   0.9986 B(  0-C ,  3-H ) :   0.9755 B(  0-C ,  4-H ) :   0.9749 
B(  0-C ,  5-H ) :   0.9755 B(  1-O ,  2-H ) :   0.9002 

-------
TIMINGS
-------

Total SCF time: 0 days 0 hours 0 min 4 sec 

Total time                  ....       4.140 sec
Sum of individual times     ....       3.823 sec  ( 92.3%)

Fock matrix formation       ....       2.506 sec  ( 60.5%)
  XC integration            ....       0.843 sec  ( 33.6% of F)
    Basis function eval.    ....       0.169 sec  ( 20.1% of XC)
    Density eval.           ....       0.109 sec  ( 12.9% of XC)
    XC-Functional eval.     ....       0.271 sec  ( 32.1% of XC)
    XC-Potential eval.      ....       0.101 sec  ( 12.0% of XC)
Diagonalization             ....       0.002 sec  (  0.1%)
Density matrix formation    ....       0.001 sec  (  0.0%)
Population analysis         ....       0.011 sec  (  0.3%)
Initial guess               ....       0.009 sec  (  0.2%)
Orbital Transformation      ....       0.000 sec  (  0.0%)
Orbital Orthonormalization  ....       0.002 sec  (  0.0%)
DIIS solution               ....       0.000 sec  (  0.0%)
SOSCF solution              ....       0.005 sec  (  0.1%)
Grid generation             ....       1.288 sec  ( 31.1%)


-------------------------------------------------------------------------------
                          DFT DISPERSION CORRECTION                            
                                                                               
                              DFTD3 V3.1  Rev 1                                
                              USING zero damping                               
-------------------------------------------------------------------------------
The omegaB97X-D3 functional is recognized. Fit by Chai et al.
Active option DFTDOPT                   ...         3   

molecular C6(AA) [au] = 208.715233 


            DFT-D V3
 parameters
 s6 scaling factor         :     1.0000 
 rs6 scaling factor        :     1.2810 
 s8 scaling factor         :     1.0000 
 rs8 scaling factor        :     1.0940 
 Damping factor alpha6     :    14.0000 
 Damping factor alpha8     :    16.0000 
 ad hoc parameters k1-k3   :    16.0000     1.3333    -4.0000 

 Edisp/kcal,au: -0.150098233916  -0.000239196736 
 E6   /kcal   :  -0.029603042 
 E8   /kcal   :  -0.120495192 
 % E8         :  80.277554653 

-------------------------   ----------------
Dispersion correction           -0.000239197
-------------------------   ----------------


-------------------------   --------------------
FINAL SINGLE POINT ENERGY      -115.738051250477
-------------------------   --------------------

                                *** OPTIMIZATION RUN DONE ***

                            ***************************************
                            *     ORCA property calculations      *
                            ***************************************

                                    ---------------------
                                    Active property flags
                                    ---------------------
   (+) Dipole Moment


------------------------------------------------------------------------------
                       ORCA ELECTRIC PROPERTIES CALCULATION
------------------------------------------------------------------------------

Dipole Moment Calculation                       ... on
Quadrupole Moment Calculation                   ... off
Polarizability Calculation                      ... off
GBWName                                         ... 7_geo_opt.gbw
Electron density file                           ... 7_geo_opt.scfp.tmp
The origin for moment calculation is the CENTER OF MASS  = ( 7.033163, -2.139749  1.369392)

-------------
DIPOLE MOMENT
-------------
                                X             Y             Z
Electronic contribution:      1.75576      -0.02785       0.41997
Nuclear contribution   :     -2.06567       0.47555      -0.81755
                        -----------------------------------------
Total Dipole Moment    :     -0.30991       0.44770      -0.39758
                        -----------------------------------------
Magnitude (a.u.)       :      0.67420
Magnitude (Debye)      :      1.71368



--------------------
Rotational spectrum 
--------------------
 
Rotational constants in cm-1:     4.293846     0.833843     0.804938 
Rotational constants in MHz : 128726.275385 24997.981521 24131.420508 

 Dipole components along the rotational axes: 
x,y,z [a.u.] :    -0.332951     0.586251    -0.000388 
x,y,z [Debye]:    -0.846293     1.490133    -0.000987 

 
------------------------------------------------------------------------------
                      ORCA CHELPG CHARGES GENERATION
------------------------------------------------------------------------------

GBW file                           ... 7_geo_opt.gbw

Reading the GBW file               ... done

Grid spacing                       ...     0.300000
Point Cut-Off                      ...     2.800000
Van-der-Waals Radii                ...        COSMO
Total charge                       ...            0


Number of points X direction       ...           26
Number of points Y direction       ...           24
Number of points Z direction       ...           24
Maximum number of possible points  ...        14976
Final number of points             ...         5948


CHELPG Charges            
--------------------------------
  0   C   :       0.094019
  1   O   :      -0.606996
  2   H   :       0.403874
  3   H   :       0.014261
  4   H   :       0.080972
  5   H   :       0.013870
--------------------------------
Total charge:    -0.000000
--------------------------------

CHELPG charges calculated...

Timings for individual parts in CHELPG calculation:
Grid generation                 ...        0.002 sec (=   0.000 min)
Potential calculation           ...        0.771 sec (=   0.013 min)
Fit to the potential            ...        0.001 sec (=   0.000 min)
------------------------------------------------------------------------------


Timings for individual modules:

Sum of individual times         ...       30.759 sec (=   0.513 min)
GTO integral calculation        ...        5.690 sec (=   0.095 min)  18.5 %
SCF iterations                  ...       16.646 sec (=   0.277 min)  54.1 %
SCF Gradient evaluation         ...        2.186 sec (=   0.036 min)   7.1 %
Geometry relaxation             ...        3.096 sec (=   0.052 min)  10.1 %
CHELPG charge generation        ...        3.141 sec (=   0.052 min)  10.2 %
                             ****ORCA TERMINATED NORMALLY****
TOTAL RUN TIME: 0 days 0 hours 0 minutes 35 seconds 447 msec
