
                                 *****************
                                 * O   R   C   A *
                                 *****************

           --- An Ab Initio, DFT and Semiempirical electronic structure package ---

                  #######################################################
                  #                        -***-                        #
                  #          Department of theory and spectroscopy      #
                  #               Directorship: Frank Neese             #
                  #        Max Planck Institute fuer Kohlenforschung    #
                  #                Kaiser Wilhelm Platz 1               #
                  #                 D-45470 Muelheim/Ruhr               #
                  #                      Germany                        #
                  #                                                     #
                  #                  All rights reserved                #
                  #                        -***-                        #
                  #######################################################


                         Program Version 4.1.2  - RELEASE  -


 With contributions from (in alphabetic order):
   Daniel Aravena         : Magnetic Properties
   Michael Atanasov       : Ab Initio Ligand Field Theory
   Alexander A. Auer      : GIAO ZORA
   Ute Becker             : Parallelization
   Giovanni Bistoni       : ED, Open-shell LED
   Martin Brehm           : Molecular dynamics
   Dmytro Bykov           : SCF Hessian
   Vijay G. Chilkuri      : MRCI spin determinant printing
   Dipayan Datta          : RHF DLPNO-CCSD density
   Achintya Kumar Dutta   : EOM-CC, STEOM-CC
   Dmitry Ganyushin       : Spin-Orbit,Spin-Spin,Magnetic field MRCI
   Miquel Garcia          : C-PCM Hessian
   Yang Guo               : DLPNO-NEVPT2, CIM, IAO-localization
   Andreas Hansen         : Spin unrestricted coupled pair/coupled cluster methods
   Benjamin Helmich-Paris : CASSCF linear response (MC-RPA)
   Lee Huntington         : MR-EOM, pCC
   Robert Izsak           : Overlap fitted RIJCOSX, COSX-SCS-MP3, EOM
   Christian Kollmar      : KDIIS, OOCD, Brueckner-CCSD(T), CCSD density
   Simone Kossmann        : Meta GGA functionals, TD-DFT gradient, OOMP2, MP2 Hessian
   Martin Krupicka        : AUTO-CI
   Lucas Lang             : DCDCAS
   Dagmar Lenk            : GEPOL surface, SMD
   Dimitrios Liakos       : Extrapolation schemes; parallel MDCI
   Dimitrios Manganas     : ROCIS; embedding schemes
   Dimitrios Pantazis     : SARC Basis sets
   Taras Petrenko         : DFT Hessian,TD-DFT gradient, ASA, ECA, R-Raman, ABS, FL, XAS/XES, NRVS
   Peter Pinski           : DLPNO-MP2, DLPNO-MP2 Gradient
   Christoph Reimann      : Effective Core Potentials
   Marius Retegan         : Local ZFS, SOC
   Christoph Riplinger    : Optimizer, TS searches, QM/MM, DLPNO-CCSD(T), (RO)-DLPNO pert. Triples
   Tobias Risthaus        : Range-separated hybrids, TD-DFT gradient, RPA, STAB
   Michael Roemelt        : Restricted open shell CIS
   Masaaki Saitow         : Open-shell DLPNO
   Barbara Sandhoefer     : DKH picture change effects
   Avijit Sen             : IP-ROCIS
   Kantharuban Sivalingam : CASSCF convergence, NEVPT2, FIC-MRCI
   Bernardo de Souza      : ESD, SOC TD-DFT
   Georgi Stoychev        : AutoAux, RI-MP2 NMR
   Willem Van den Heuvel  : Paramagnetic NMR
   Boris Wezisla          : Elementary symmetry handling
   Frank Wennmohs         : Technical directorship


 We gratefully acknowledge several colleagues who have allowed us to
 interface, adapt or use parts of their codes:
   Stefan Grimme, W. Hujo, H. Kruse,             : VdW corrections, initial TS optimization,
                  C. Bannwarth                     DFT functionals, gCP, sTDA/sTD-DF
   Ed Valeev                                     : LibInt (2-el integral package), F12 methods
   Garnet Chan, S. Sharma, J. Yang, R. Olivares  : DMRG
   Ulf Ekstrom                                   : XCFun DFT Library
   Mihaly Kallay                                 : mrcc  (arbitrary order and MRCC methods)
   Andreas Klamt, Michael Diedenhofen            : otool_cosmo (COSMO solvation model)
   Jiri Pittner, Ondrej Demel                    : Mk-CCSD
   Frank Weinhold                                : gennbo (NPA and NBO analysis)
   Christopher J. Cramer and Donald G. Truhlar   : smd solvation model
   Lars Goerigk                                  : TD-DFT with DH, B97 family of functionals
   V. Asgeirsson, H. Jonsson                     : NEB implementation
   FAccTs GmbH                                   : IRC, NEB, NEB-TS, Multilevel


 Your calculation uses the libint2 library for the computation of 2-el integrals
 For citations please refer to: http://libint.valeyev.net

 This ORCA versions uses:
   CBLAS   interface :  Fast vector & matrix operations
   LAPACKE interface :  Fast linear algebra routines
   SCALAPACK package :  Parallel linear algebra routines


Your calculation utilizes the atom-pairwise dispersion correction
with the zero-damping scheme (D30)
Cite in your paper:
S.Grimme, J.Antony, S.Ehrlich and H.Krieg, J.Chem.Phys., 132, (2010), 154104 
   

XCFun DFT library Copyright 2009-2010 Ulf Ekstrom and contributors.
See http://admol.org/xcfun for more information. This is free soft-
ware; see the source code for copying conditions. There is ABSOLUTELY
NO WARRANTY; not even for MERCHANTABILITY or FITNESS FOR A PARTICULAR
PURPOSE. For details see the documentation. Scientific users of this 
library should cite U. Ekstrom, L. Visscher, R. Bast, A. J. Thorvald-
sen and K. Ruud; J.Chem.Theor.Comp. 2010, DOI: 10.1021/ct100117s
XCFun Version 0.99 
----- Orbital basis set information -----
Your calculation utilizes the basis: def2-TZVP
   F. Weigend and R. Ahlrichs, Phys. Chem. Chem. Phys. 7, 3297 (2005).

================================================================================
                                        WARNINGS
                       Please study these warnings very carefully!
================================================================================


INFO   : the flag for use of LIBINT has been found!

Your calculation utilizes the atom-pairwise dispersion correction
with the zero-damping scheme (D30)
Cite in your paper:
S.Grimme, J.Antony, S.Ehrlich and H.Krieg, J.Chem.Phys., 132, (2010), 154104 
   

XCFun DFT library Copyright 2009-2010 Ulf Ekstrom and contributors.
See http://admol.org/xcfun for more information. This is free soft-
ware; see the source code for copying conditions. There is ABSOLUTELY
NO WARRANTY; not even for MERCHANTABILITY or FITNESS FOR A PARTICULAR
PURPOSE. For details see the documentation. Scientific users of this 
library should cite U. Ekstrom, L. Visscher, R. Bast, A. J. Thorvald-
sen and K. Ruud; J.Chem.Theor.Comp. 2010, DOI: 10.1021/ct100117s
XCFun Version 0.99 
----- Orbital basis set information -----
Your calculation utilizes the basis: def2-TZVP
   F. Weigend and R. Ahlrichs, Phys. Chem. Chem. Phys. 7, 3297 (2005).

================================================================================
                                        WARNINGS
                       Please study these warnings very carefully!
================================================================================


WARNING: MOInp is set but Guess=PModel. MOInp will be ignored!
         To read the initial guess from a file you must also specify
         'MORead' in the simple input or 'Guess MORead' in the %scf block


INFO   : the flag for use of LIBINT has been found!

Your calculation utilizes the atom-pairwise dispersion correction
with the zero-damping scheme (D30)
Cite in your paper:
S.Grimme, J.Antony, S.Ehrlich and H.Krieg, J.Chem.Phys., 132, (2010), 154104 
   

XCFun DFT library Copyright 2009-2010 Ulf Ekstrom and contributors.
See http://admol.org/xcfun for more information. This is free soft-
ware; see the source code for copying conditions. There is ABSOLUTELY
NO WARRANTY; not even for MERCHANTABILITY or FITNESS FOR A PARTICULAR
PURPOSE. For details see the documentation. Scientific users of this 
library should cite U. Ekstrom, L. Visscher, R. Bast, A. J. Thorvald-
sen and K. Ruud; J.Chem.Theor.Comp. 2010, DOI: 10.1021/ct100117s
XCFun Version 0.99 
----- Orbital basis set information -----
Your calculation utilizes the basis: def2-TZVP
   F. Weigend and R. Ahlrichs, Phys. Chem. Chem. Phys. 7, 3297 (2005).

================================================================================
                                        WARNINGS
                       Please study these warnings very carefully!
================================================================================


WARNING: MOInp is set but Guess=PModel. MOInp will be ignored!
         To read the initial guess from a file you must also specify
         'MORead' in the simple input or 'Guess MORead' in the %scf block


INFO   : the flag for use of LIBINT has been found!

================================================================================
                                       INPUT FILE
================================================================================
NAME = 10-33.in
|  1> #Run DFT-D3 single point of the dimer
|  2> ! wB97X-D3 def2-TZVP TIGHTSCF CHELPG PMODEL PAL8
|  3> 
|  4> %base "10-33_DFT_AB"
|  5> 
|  6> %scf
|  7> MaxIter 1000
|  8> end
|  9> 
| 10> * xyz 0 1
| 11>   C                      -0.107336            -6.761295            -6.715591           
| 12>   O                      -0.840736            -7.925506            -6.762882           
| 13>   H                      -0.625648            -8.537022            -6.098598           
| 14>   H                      0.918834             -6.900276            -6.443235           
| 15>   H                      -0.136207            -6.196261            -7.628469           
| 16>   H                      -0.460480            -6.062073            -5.931819           
| 17>   C                      2.052238             -2.423676            -8.966001           
| 18>   O                      1.824543             -3.739333            -8.398036           
| 19>   H                      1.137843             -3.681050            -7.729025           
| 20>   H                      1.261028             -1.726732            -8.568119           
| 21>   H                      3.064639             -2.062793            -8.737179           
| 22>   H                      2.089660             -2.461131            -10.045646          
| 23> *
| 24> 
| 25> #Run DFT-D3 single point of the molecule with dimer basis set
| 26> $new_job
| 27> %base "10-33_DFT_A"
| 28> ! wB97X-D3 def2-TZVP TIGHTSCF CHELPG PMODEL
| 29> 
| 30> %scf
| 31> MaxIter 1000
| 32> end
| 33> 
| 34> * xyz 0 1
| 35>   C                      -0.107336            -6.761295            -6.715591           
| 36>   O                      -0.840736            -7.925506            -6.762882           
| 37>   H                      -0.625648            -8.537022            -6.098598           
| 38>   H                      0.918834             -6.900276            -6.443235           
| 39>   H                      -0.136207            -6.196261            -7.628469           
| 40>   H                      -0.460480            -6.062073            -5.931819           
| 41>   C                    : 2.052238             -2.423676            -8.966001           
| 42>   O                    : 1.824543             -3.739333            -8.398036           
| 43>   H                    : 1.137843             -3.681050            -7.729025           
| 44>   H                    : 1.261028             -1.726732            -8.568119           
| 45>   H                    : 3.064639             -2.062793            -8.737179           
| 46>   H                    : 2.089660             -2.461131            -10.045646          
| 47> *
| 48> 
| 49> #Run DFT-D3 single point of the particle with dimer basis set
| 50> $new_job
| 51> %base "10-33_DFT_B"
| 52> ! wB97X-D3 def2-TZVP TIGHTSCF CHELPG PMODEL
| 53> 
| 54> %scf
| 55> MaxIter 1000
| 56> end
| 57> 
| 58> * xyz 0 1
| 59>   C                    : -0.107336            -6.761295            -6.715591           
| 60>   O                    : -0.840736            -7.925506            -6.762882           
| 61>   H                    : -0.625648            -8.537022            -6.098598           
| 62>   H                    : 0.918834             -6.900276            -6.443235           
| 63>   H                    : -0.136207            -6.196261            -7.628469           
| 64>   H                    : -0.460480            -6.062073            -5.931819           
| 65>   C                      2.052238             -2.423676            -8.966001           
| 66>   O                      1.824543             -3.739333            -8.398036           
| 67>   H                      1.137843             -3.681050            -7.729025           
| 68>   H                      1.261028             -1.726732            -8.568119           
| 69>   H                      3.064639             -2.062793            -8.737179           
| 70>   H                      2.089660             -2.461131            -10.045646          
| 71> *
| 72> 
| 73>                          ****END OF INPUT****
================================================================================


                 $$$$$$$$$$$$$$$$$$$$$$$$$$$$$$$$$$$$$$$$$$$$$$ 
                 $ THERE ARE  3 JOBS TO BE PROCESSED THIS RUN $
                 $$$$$$$$$$$$$$$$$$$$$$$$$$$$$$$$$$$$$$$$$$$$$$ 




                 $$$$$$$$$$$$$$$$  JOB NUMBER  1 $$$$$$$$$$$$$$


                       ****************************
                       * Single Point Calculation *
                       ****************************

---------------------------------
CARTESIAN COORDINATES (ANGSTROEM)
---------------------------------
  C     -0.107336   -6.761295   -6.715591
  O     -0.840736   -7.925506   -6.762882
  H     -0.625648   -8.537022   -6.098598
  H      0.918834   -6.900276   -6.443235
  H     -0.136207   -6.196261   -7.628469
  H     -0.460480   -6.062073   -5.931819
  C      2.052238   -2.423676   -8.966001
  O      1.824543   -3.739333   -8.398036
  H      1.137843   -3.681050   -7.729025
  H      1.261028   -1.726732   -8.568119
  H      3.064639   -2.062793   -8.737179
  H      2.089660   -2.461131  -10.045646

----------------------------
CARTESIAN COORDINATES (A.U.)
----------------------------
  NO LB      ZA    FRAG     MASS         X           Y           Z
   0 C     6.0000    0    12.011   -0.202836  -12.776996  -12.690628
   1 O     8.0000    0    15.999   -1.588761  -14.977036  -12.779995
   2 H     1.0000    0     1.008   -1.182303  -16.132634  -11.524680
   3 H     1.0000    0     1.008    1.736345  -13.039632  -12.175950
   4 H     1.0000    0     1.008   -0.257394  -11.709236  -14.415717
   5 H     1.0000    0     1.008   -0.870181  -11.455658  -11.209513
   6 C     6.0000    0    12.011    3.878168   -4.580084  -16.943286
   7 O     8.0000    0    15.999    3.447887   -7.066315  -15.869988
   8 H     1.0000    0     1.008    2.150212   -6.956176  -14.605741
   9 H     1.0000    0     1.008    2.382998   -3.263051  -16.191398
  10 H     1.0000    0     1.008    5.791328   -3.898114  -16.510875
  11 H     1.0000    0     1.008    3.948885   -4.650864  -18.983520

--------------------------------
INTERNAL COORDINATES (ANGSTROEM)
--------------------------------
 C      0   0   0     0.000000000000     0.00000000     0.00000000
 O      1   0   0     1.376771314054     0.00000000     0.00000000
 H      2   1   0     0.928163724057   114.14817190     0.00000000
 H      1   2   3     1.070755984339   114.17303066    37.86928199
 H      1   2   3     1.073984729259   113.66366653   162.47912564
 H      1   2   3     1.108115805322   112.83704366   282.03901858
 C      5   1   2     4.561872526855   132.17544700   185.80296533
 O      7   5   1     1.450993658118    19.96609455    46.40841275
 H      8   7   5     0.960484001017   109.25771412   305.46364944
 H      7   5   1     1.126966853621    94.07773178   270.27943660
 H      7   5   1     1.098886632995   130.73064428    33.72592792
 H      7   5   1     1.080942463378   106.30789130   154.36832245

---------------------------
INTERNAL COORDINATES (A.U.)
---------------------------
 C      0   0   0     0.000000000000     0.00000000     0.00000000
 O      1   0   0     2.601720732601     0.00000000     0.00000000
 H      2   1   0     1.753975245909   114.14817190     0.00000000
 H      1   2   3     2.023435566657   114.17303066    37.86928199
 H      1   2   3     2.029537010313   113.66366653   162.47912564
 H      1   2   3     2.094035396728   112.83704366   282.03901858
 C      5   1   2     8.620689733615   132.17544700   185.80296533
 O      7   5   1     2.741980635900    19.96609455    46.40841275
 H      8   7   5     1.815051717935   109.25771412   305.46364944
 H      7   5   1     2.129658715350    94.07773178   270.27943660
 H      7   5   1     2.076594788586   130.73064428    33.72592792
 H      7   5   1     2.042685222311   106.30789130   154.36832245

---------------------
BASIS SET INFORMATION
---------------------
There are 3 groups of distinct atoms

 Group   1 Type C   : 11s6p2d1f contracted to 5s3p2d1f pattern {62111/411/11/1}
 Group   2 Type O   : 11s6p2d1f contracted to 5s3p2d1f pattern {62111/411/11/1}
 Group   3 Type H   : 5s1p contracted to 3s1p pattern {311/1}

Atom   0C    basis set group =>   1
Atom   1O    basis set group =>   2
Atom   2H    basis set group =>   3
Atom   3H    basis set group =>   3
Atom   4H    basis set group =>   3
Atom   5H    basis set group =>   3
Atom   6C    basis set group =>   1
Atom   7O    basis set group =>   2
Atom   8H    basis set group =>   3
Atom   9H    basis set group =>   3
Atom  10H    basis set group =>   3
Atom  11H    basis set group =>   3


           ************************************************************
           *        Program running with 8 parallel MPI-processes     *
           *              working on a common directory               *
           ************************************************************
------------------------------------------------------------------------------
                           ORCA GTO INTEGRAL CALCULATION
------------------------------------------------------------------------------

                         BASIS SET STATISTICS AND STARTUP INFO

 # of primitive gaussian shells          ...  128
 # of primitive gaussian functions       ...  248
 # of contracted shells                  ...   76
 # of contracted basis functions         ...  172
 Highest angular momentum                ...    3
 Maximum contraction depth               ...    6
 Integral package used                   ... LIBINT
 Integral threshhold            Thresh   ...  2.500e-11
 Primitive cut-off              TCut     ...  2.500e-12


------------------------------ INTEGRAL EVALUATION ----------------------------


 * One electron integrals 
 Pre-screening matrix                    ... done
 Shell pair data                         ... done (   0.001 sec)



           ************************************************************
           *        Program running with 8 parallel MPI-processes     *
           *              working on a common directory               *
           ************************************************************
-------------------------------------------------------------------------------
                                 ORCA SCF
-------------------------------------------------------------------------------

------------
SCF SETTINGS
------------
Hamiltonian:
 Density Functional     Method          .... DFT(GTOs)
 Exchange Functional    Exchange        .... WB97X-D3
 Correlation Functional Correlation     .... WB97X-D3
 Gradients option       PostSCFGGA      .... off
 Hybrid DFT is turned on
   Fraction HF Exchange ScalHFX         ....  0.195728
   Scaling of DF-GGA-X  ScalDFX         ....  0.000000
   Scaling of DF-GGA-C  ScalDFC         ....  1.000000
   Scaling of DF-LDA-C  ScalLDAC        ....  1.000000
   Perturbative correction              ....  0.000000
   Density functional embedding theory  .... OFF
 Long-range corrected/Screened/Range-Separated Hybrid DFT is turned on
   Amount of maximum screened exact exchange              ....  0.804272
   Range separation parameter mu (erf(mu*r12)/r12)        ....  0.250000


General Settings:
 Integral files         IntName         .... 10-33_DFT_AB
 Hartree-Fock type      HFTyp           .... RHF
 Total Charge           Charge          ....    0
 Multiplicity           Mult            ....    1
 Number of Electrons    NEL             ....   36
 Basis Dimension        Dim             ....  172
 Nuclear Repulsion      ENuc            ....    114.5718914601 Eh

Convergence Acceleration:
 DIIS                   CNVDIIS         .... on
   Start iteration      DIISMaxIt       ....    12
   Startup error        DIISStart       ....  0.200000
   # of expansion vecs  DIISMaxEq       ....     5
   Bias factor          DIISBfac        ....   1.050
   Max. coefficient     DIISMaxC        ....  10.000
 Newton-Raphson         CNVNR           .... off
 SOSCF                  CNVSOSCF        .... on
   Start iteration      SOSCFMaxIt      ....   150
   Startup grad/error   SOSCFStart      ....  0.003300
 Level Shifting         CNVShift        .... on
   Level shift para.    LevelShift      ....    0.2500
   Turn off err/grad.   ShiftErr        ....    0.0010
 Zerner damping         CNVZerner       .... off
 Static damping         CNVDamp         .... on
   Fraction old density DampFac         ....    0.7000
   Max. Damping (<1)    DampMax         ....    0.9800
   Min. Damping (>=0)   DampMin         ....    0.0000
   Turn off err/grad.   DampErr         ....    0.1000
 Fernandez-Rico         CNVRico         .... off

SCF Procedure:
 Maximum # iterations   MaxIter         ....  1000
 SCF integral mode      SCFMode         .... Direct
   Integral package                     .... LIBINT
 Reset frequency        DirectResetFreq ....    20
 Integral Threshold     Thresh          ....  2.500e-11 Eh
 Primitive CutOff       TCut            ....  2.500e-12 Eh

Convergence Tolerance:
 Convergence Check Mode ConvCheckMode   .... Total+1el-Energy
 Convergence forced     ConvForced      .... 0
 Energy Change          TolE            ....  1.000e-08 Eh
 1-El. energy change                    ....  1.000e-05 Eh
 Orbital Gradient       TolG            ....  1.000e-05
 Orbital Rotation angle TolX            ....  1.000e-05
 DIIS Error             TolErr          ....  5.000e-07


Diagonalization of the overlap matrix:
Smallest eigenvalue                        ... 1.529e-03
Time for diagonalization                   ...    0.015 sec
Threshold for overlap eigenvalues          ... 1.000e-08
Number of eigenvalues below threshold      ... 0
Time for construction of square roots      ...    0.014 sec
Total time needed                          ...    0.029 sec

-------------------
DFT GRID GENERATION
-------------------

General Integration Accuracy     IntAcc      ...  4.340
Radial Grid Type                 RadialGrid  ... Gauss-Chebyshev
Angular Grid (max. acc.)         AngularGrid ... Lebedev-110
Angular grid pruning method      GridPruning ... 3 (G Style)
Weight generation scheme         WeightScheme... Becke
Basis function cutoff            BFCut       ...    1.0000e-11
Integration weight cutoff        WCut        ...    1.0000e-14
Grids for H and He will be reduced by one unit

# of grid points (after initial pruning)     ...  13096 (   0.0 sec)
# of grid points (after weights+screening)   ...  12568 (   0.0 sec)
nearest neighbour list constructed           ...    0.0 sec
Grid point re-assignment to atoms done       ...    0.0 sec
Grid point division into batches done        ...    0.0 sec
Reduced shell lists constructed in    0.0 sec

Total number of grid points                  ...    12568
Total number of batches                      ...      202
Average number of points per batch           ...       62
Average number of grid points per atom       ...     1047
Average number of shells per batch           ...    44.44 (58.48%)
Average number of basis functions per batch  ...    96.30 (55.99%)
Average number of large shells per batch     ...    35.78 (80.50%)
Average number of large basis fcns per batch ...    81.11 (84.23%)
Maximum spatial batch extension              ...  16.14, 12.32, 15.38 au
Average spatial batch extension              ...   0.40,  0.35,  0.37 au

Time for grid setup =    0.056 sec

------------------------------
INITIAL GUESS: MODEL POTENTIAL
------------------------------
Loading Hartree-Fock densities                     ... done
Calculating cut-offs                               ... done
Setting up the integral package                    ... done
Initializing the effective Hamiltonian             ... done
Starting the Coulomb interaction                   ... done (   0.0 sec)
Reading the grid                                   ... done
Mapping shells                                     ... done
Starting the XC term evaluation                    ... done (   0.0 sec)
  promolecular density results
     # of electrons  =     36.004412167
     EX              =    -28.867681062
     EC              =     -1.151146453
     EX+EC           =    -30.018827515
Transforming the Hamiltonian                       ... done (   0.0 sec)
Diagonalizing the Hamiltonian                      ... done (   0.0 sec)
Back transforming the eigenvectors                 ... done (   0.0 sec)
Now organizing SCF variables                       ... done
                      ------------------
                      INITIAL GUESS DONE (   0.2 sec)
                      ------------------
--------------
SCF ITERATIONS
--------------
ITER       Energy         Delta-E        Max-DP      RMS-DP      [F,P]     Damp
               ***  Starting incremental Fock matrix formation  ***
  0   -231.2892700502   0.000000000000 0.03787169  0.00107653  0.2555567 0.7000
  1   -231.3640201926  -0.074750142398 0.02258384  0.00076903  0.1290631 0.7000
                               ***Turning on DIIS***
  2   -231.3983901743  -0.034369981706 0.03257899  0.00138568  0.0511555 0.0000
  3   -231.4542751692  -0.055884994881 0.01756071  0.00050788  0.0617126 0.0000
  4   -231.4634071868  -0.009132017573 0.00404194  0.00009903  0.0063224 0.0000
                      *** Initiating the SOSCF procedure ***
                           *** Shutting down DIIS ***
                      *** Re-Reading the Fockian *** 
                      *** Removing any level shift *** 
ITER      Energy       Delta-E        Grad      Rot      Max-DP    RMS-DP
  5   -231.46359028  -0.0001830932  0.000431  0.000431  0.000773  0.000035
               *** Restarting incremental Fock matrix formation ***
  6   -231.46360680  -0.0000165176  0.000139  0.000201  0.000638  0.000022
  7   -231.46360848  -0.0000016816  0.000055  0.000161  0.000384  0.000013
  8   -231.46360860  -0.0000001187  0.000056  0.000034  0.000073  0.000003
  9   -231.46360868  -0.0000000856  0.000007  0.000010  0.000015  0.000001
 10   -231.46360868  -0.0000000016  0.000003  0.000003  0.000007  0.000000
                  ***Gradient check signals convergence***
              ***Rediagonalizing the Fockian in SOSCF/NRSCF***

               *****************************************************
               *                     SUCCESS                       *
               *           SCF CONVERGED AFTER  11 CYCLES          *
               *****************************************************

Setting up the final grid:

General Integration Accuracy     IntAcc      ...  4.670
Radial Grid Type                 RadialGrid  ... Gauss-Chebyshev
Angular Grid (max. acc.)         AngularGrid ... Lebedev-302
Angular grid pruning method      GridPruning ... 3 (G Style)
Weight generation scheme         WeightScheme... Becke
Basis function cutoff            BFCut       ...    1.0000e-11
Integration weight cutoff        WCut        ...    1.0000e-14
Grids for H and He will be reduced by one unit

# of grid points (after initial pruning)     ...  52000 (   0.0 sec)
# of grid points (after weights+screening)   ...  49579 (   0.0 sec)
nearest neighbour list constructed           ...    0.0 sec
Grid point re-assignment to atoms done       ...    0.0 sec
Grid point division into batches done        ...    0.2 sec
Reduced shell lists constructed in    0.2 sec

Total number of grid points                  ...    49579
Total number of batches                      ...      782
Average number of points per batch           ...       63
Average number of grid points per atom       ...     4132
Average number of shells per batch           ...    42.82 (56.34%)
Average number of basis functions per batch  ...    92.66 (53.87%)
Average number of large shells per batch     ...    33.94 (79.26%)
Average number of large basis fcns per batch ...    77.66 (83.81%)
Maximum spatial batch extension              ...  17.12, 13.45, 16.05 au
Average spatial batch extension              ...   0.25,  0.24,  0.27 au

Final grid set up in    0.3 sec
Final integration                            ... done (   0.1 sec)
Change in XC energy                          ...    -0.000469822
Integrated number of electrons               ...    35.999979669
Previous integrated no of electrons          ...    36.002225859

----------------
TOTAL SCF ENERGY
----------------

Total Energy       :         -231.46407851 Eh           -6298.45778 eV

Components:
Nuclear Repulsion  :          114.57189146 Eh            3117.65967 eV
Electronic Energy  :         -346.03596997 Eh           -9416.11745 eV
One Electron Energy:         -541.91554856 Eh          -14746.27176 eV
Two Electron Energy:          195.87957860 Eh            5330.15431 eV

Virial components:
Potential Energy   :         -462.00256434 Eh          -12571.72891 eV
Kinetic Energy     :          230.53848583 Eh            6273.27113 eV
Virial Ratio       :            2.00401492


DFT components:
N(Alpha)           :       17.999989834273 electrons
N(Beta)            :       17.999989834273 electrons
N(Total)           :       35.999979668547 electrons
E(XC)              :      -21.318650922916 Eh       
DFET-embed. en.    :        0.000000000000 Eh       

---------------
SCF CONVERGENCE
---------------

  Last Energy change         ...   -2.1518e-10  Tolerance :   1.0000e-08
  Last MAX-Density change    ...    1.9170e-06  Tolerance :   1.0000e-07
  Last RMS-Density change    ...    7.1368e-08  Tolerance :   5.0000e-09
  Last Orbital Gradient      ...    6.6539e-07  Tolerance :   1.0000e-05
  Last Orbital Rotation      ...    1.4936e-06  Tolerance :   1.0000e-05

             **** THE GBW FILE WAS UPDATED (10-33_DFT_AB.gbw) ****
             **** DENSITY FILE WAS UPDATED (10-33_DFT_AB.scfp.tmp) ****
             **** ENERGY FILE WAS UPDATED (10-33_DFT_AB.en.tmp) ****
----------------
ORBITAL ENERGIES
----------------

  NO   OCC          E(Eh)            E(eV) 
   0   2.0000     -19.231710      -523.3214 
   1   2.0000     -19.225495      -523.1523 
   2   2.0000     -10.322219      -280.8819 
   3   2.0000     -10.305723      -280.4330 
   4   2.0000      -1.149245       -31.2725 
   5   2.0000      -1.126903       -30.6646 
   6   2.0000      -0.803195       -21.8560 
   7   2.0000      -0.798258       -21.7217 
   8   2.0000      -0.627503       -17.0752 
   9   2.0000      -0.604388       -16.4462 
  10   2.0000      -0.541299       -14.7295 
  11   2.0000      -0.537534       -14.6270 
  12   2.0000      -0.534737       -14.5509 
  13   2.0000      -0.528757       -14.3882 
  14   2.0000      -0.436266       -11.8714 
  15   2.0000      -0.428398       -11.6573 
  16   2.0000      -0.374297       -10.1851 
  17   2.0000      -0.368553       -10.0288 
  18   0.0000       0.099653         2.7117 
  19   0.0000       0.122348         3.3292 
  20   0.0000       0.141805         3.8587 
  21   0.0000       0.177979         4.8431 
  22   0.0000       0.191777         5.2185 
  23   0.0000       0.206634         5.6228 
  24   0.0000       0.209218         5.6931 
  25   0.0000       0.211918         5.7666 
  26   0.0000       0.227888         6.2012 
  27   0.0000       0.266506         7.2520 
  28   0.0000       0.298717         8.1285 
  29   0.0000       0.307491         8.3673 
  30   0.0000       0.311828         8.4853 
  31   0.0000       0.331949         9.0328 
  32   0.0000       0.387881        10.5548 
  33   0.0000       0.422149        11.4873 
  34   0.0000       0.433377        11.7928 
  35   0.0000       0.466077        12.6826 
  36   0.0000       0.484921        13.1954 
  37   0.0000       0.510098        13.8805 
  38   0.0000       0.524150        14.2628 
  39   0.0000       0.532818        14.4987 
  40   0.0000       0.554960        15.1012 
  41   0.0000       0.561104        15.2684 
  42   0.0000       0.568762        15.4768 
  43   0.0000       0.577310        15.7094 
  44   0.0000       0.602006        16.3814 
  45   0.0000       0.615112        16.7380 
  46   0.0000       0.632604        17.2140 
  47   0.0000       0.679752        18.4970 
  48   0.0000       0.681296        18.5390 
  49   0.0000       0.710692        19.3389 
  50   0.0000       0.761295        20.7159 
  51   0.0000       0.781507        21.2659 
  52   0.0000       0.796848        21.6833 
  53   0.0000       0.844381        22.9768 
  54   0.0000       0.867272        23.5997 
  55   0.0000       0.885598        24.0984 
  56   0.0000       0.984339        26.7852 
  57   0.0000       0.995096        27.0779 
  58   0.0000       1.039541        28.2874 
  59   0.0000       1.058299        28.7978 
  60   0.0000       1.110867        30.2282 
  61   0.0000       1.140722        31.0406 
  62   0.0000       1.365101        37.1463 
  63   0.0000       1.396186        37.9921 
  64   0.0000       1.447024        39.3755 
  65   0.0000       1.512973        41.1701 
  66   0.0000       1.539860        41.9017 
  67   0.0000       1.563772        42.5524 
  68   0.0000       1.599111        43.5140 
  69   0.0000       1.603127        43.6233 
  70   0.0000       1.616304        43.9819 
  71   0.0000       1.620237        44.0889 
  72   0.0000       1.632979        44.4356 
  73   0.0000       1.656756        45.0826 
  74   0.0000       1.664018        45.2802 
  75   0.0000       1.697313        46.1862 
  76   0.0000       1.709410        46.5154 
  77   0.0000       1.751659        47.6651 
  78   0.0000       1.767240        48.0890 
  79   0.0000       1.773904        48.2704 
  80   0.0000       1.953522        53.1580 
  81   0.0000       1.962436        53.4006 
  82   0.0000       1.998652        54.3861 
  83   0.0000       2.011627        54.7392 
  84   0.0000       2.050685        55.8020 
  85   0.0000       2.062795        56.1315 
  86   0.0000       2.077068        56.5199 
  87   0.0000       2.094685        56.9993 
  88   0.0000       2.144657        58.3591 
  89   0.0000       2.174714        59.1770 
  90   0.0000       2.223521        60.5051 
  91   0.0000       2.293169        62.4003 
  92   0.0000       2.325708        63.2857 
  93   0.0000       2.339444        63.6595 
  94   0.0000       2.344044        63.7847 
  95   0.0000       2.379559        64.7511 
  96   0.0000       2.396448        65.2107 
  97   0.0000       2.435058        66.2613 
  98   0.0000       2.445836        66.5546 
  99   0.0000       2.484652        67.6108 
 100   0.0000       2.515221        68.4426 
 101   0.0000       2.516878        68.4877 
 102   0.0000       2.540747        69.1372 
 103   0.0000       2.598470        70.7080 
 104   0.0000       2.615975        71.1843 
 105   0.0000       2.657911        72.3254 
 106   0.0000       2.671658        72.6995 
 107   0.0000       2.739017        74.5324 
 108   0.0000       2.837882        77.2227 
 109   0.0000       2.850981        77.5791 
 110   0.0000       2.877174        78.2919 
 111   0.0000       2.887031        78.5601 
 112   0.0000       2.901270        78.9476 
 113   0.0000       2.941359        80.0385 
 114   0.0000       2.974558        80.9418 
 115   0.0000       3.000880        81.6581 
 116   0.0000       3.096182        84.2514 
 117   0.0000       3.111125        84.6580 
 118   0.0000       3.142762        85.5189 
 119   0.0000       3.185712        86.6876 
 120   0.0000       3.260064        88.7108 
 121   0.0000       3.268221        88.9328 
 122   0.0000       3.357870        91.3723 
 123   0.0000       3.381160        92.0060 
 124   0.0000       3.471393        94.4614 
 125   0.0000       3.482317        94.7587 
 126   0.0000       3.522849        95.8616 
 127   0.0000       3.529985        96.0558 
 128   0.0000       3.581400        97.4549 
 129   0.0000       3.632829        98.8543 
 130   0.0000       3.636143        98.9445 
 131   0.0000       3.654158        99.4347 
 132   0.0000       3.682407       100.2034 
 133   0.0000       3.725723       101.3821 
 134   0.0000       3.956024       107.6489 
 135   0.0000       4.026355       109.5627 
 136   0.0000       4.181225       113.7769 
 137   0.0000       4.287726       116.6750 
 138   0.0000       4.302418       117.0748 
 139   0.0000       4.320043       117.5544 
 140   0.0000       4.417237       120.1991 
 141   0.0000       4.423561       120.3712 
 142   0.0000       4.563315       124.1741 
 143   0.0000       4.597792       125.1123 
 144   0.0000       5.331847       145.0869 
 145   0.0000       5.351378       145.6184 
 146   0.0000       5.383137       146.4826 
 147   0.0000       5.415923       147.3748 
 148   0.0000       5.553283       151.1125 
 149   0.0000       5.614328       152.7736 
 150   0.0000       5.761632       156.7820 
 151   0.0000       5.791859       157.6045 
 152   0.0000       5.888984       160.2474 
 153   0.0000       5.907969       160.7640 
 154   0.0000       5.909699       160.8111 
 155   0.0000       6.032862       164.1625 
 156   0.0000       6.331017       172.2757 
 157   0.0000       6.476896       176.2453 
 158   0.0000       6.513849       177.2508 
 159   0.0000       6.530201       177.6958 
 160   0.0000       6.754121       183.7890 
 161   0.0000       6.769995       184.2209 
 162   0.0000       6.780859       184.5166 
 163   0.0000       6.828072       185.8013 
 164   0.0000       7.041110       191.5983 
 165   0.0000       7.063154       192.1982 
 166   0.0000       7.198769       195.8885 
 167   0.0000       7.262110       197.6121 
 168   0.0000      22.268672       605.9614 
 169   0.0000      22.567242       614.0859 
 170   0.0000      43.652147      1187.8353 
 171   0.0000      43.677098      1188.5143 

                    ********************************
                    * MULLIKEN POPULATION ANALYSIS *
                    ********************************

-----------------------
MULLIKEN ATOMIC CHARGES
-----------------------
   0 C :   -0.160493
   1 O :   -0.471850
   2 H :    0.313832
   3 H :    0.109093
   4 H :    0.125233
   5 H :    0.080445
   6 C :   -0.172045
   7 O :   -0.480539
   8 H :    0.316552
   9 H :    0.109486
  10 H :    0.108424
  11 H :    0.121861
Sum of atomic charges:   -0.0000000

--------------------------------
MULLIKEN REDUCED ORBITAL CHARGES
--------------------------------
  0 C s       :     3.209870  s :     3.209870
      pz      :     1.076920  p :     2.839482
      px      :     0.953234
      py      :     0.809327
      dz2     :     0.006890  d :     0.102995
      dxz     :     0.008534
      dyz     :     0.039563
      dx2y2   :     0.031788
      dxy     :     0.016219
      f0      :     0.001069  f :     0.008146
      f+1     :     0.000245
      f-1     :     0.001131
      f+2     :     0.000286
      f-2     :     0.001355
      f+3     :     0.001511
      f-3     :     0.002548
  1 O s       :     3.766831  s :     3.766831
      pz      :     1.622126  p :     4.673234
      px      :     1.723614
      py      :     1.327494
      dz2     :     0.004461  d :     0.029884
      dxz     :     0.003754
      dyz     :     0.008830
      dx2y2   :     0.004727
      dxy     :     0.008112
      f0      :     0.000133  f :     0.001901
      f+1     :     0.000110
      f-1     :     0.000426
      f+2     :     0.000284
      f-2     :     0.000271
      f+3     :     0.000401
      f-3     :     0.000276
  2 H s       :     0.634219  s :     0.634219
      pz      :     0.018805  p :     0.051949
      px      :     0.015869
      py      :     0.017276
  3 H s       :     0.870713  s :     0.870713
      pz      :     0.005182  p :     0.020193
      px      :     0.011841
      py      :     0.003170
  4 H s       :     0.854230  s :     0.854230
      pz      :     0.010245  p :     0.020537
      px      :     0.004075
      py      :     0.006217
  5 H s       :     0.900309  s :     0.900309
      pz      :     0.007964  p :     0.019246
      px      :     0.004494
      py      :     0.006788
  6 C s       :     3.237574  s :     3.237574
      pz      :     1.033613  p :     2.831567
      px      :     1.060514
      py      :     0.737439
      dz2     :     0.028549  d :     0.095640
      dxz     :     0.006390
      dyz     :     0.017323
      dx2y2   :     0.015054
      dxy     :     0.028326
      f0      :     0.001205  f :     0.007263
      f+1     :     0.000076
      f-1     :     0.001543
      f+2     :     0.000862
      f-2     :     0.000744
      f+3     :     0.001550
      f-3     :     0.001284
  7 O s       :     3.793861  s :     3.793861
      pz      :     1.571360  p :     4.656705
      px      :     1.626906
      py      :     1.458439
      dz2     :     0.004058  d :     0.028379
      dxz     :     0.006563
      dyz     :     0.004652
      dx2y2   :     0.009218
      dxy     :     0.003889
      f0      :     0.000174  f :     0.001594
      f+1     :     0.000364
      f-1     :     0.000139
      f+2     :     0.000481
      f-2     :     0.000152
      f+3     :     0.000152
      f-3     :     0.000131
  8 H s       :     0.635055  s :     0.635055
      pz      :     0.018616  p :     0.048392
      px      :     0.018315
      py      :     0.011460
  9 H s       :     0.872426  s :     0.872426
      pz      :     0.004273  p :     0.018088
      px      :     0.007611
      py      :     0.006204
 10 H s       :     0.871234  s :     0.871234
      pz      :     0.004642  p :     0.020343
      px      :     0.011827
      py      :     0.003874
 11 H s       :     0.857364  s :     0.857364
      pz      :     0.013172  p :     0.020774
      px      :     0.004811
      py      :     0.002791


                     *******************************
                     * LOEWDIN POPULATION ANALYSIS *
                     *******************************

----------------------
LOEWDIN ATOMIC CHARGES
----------------------
   0 C :   -0.410024
   1 O :   -0.030945
   2 H :    0.150747
   3 H :    0.091921
   4 H :    0.104298
   5 H :    0.091616
   6 C :   -0.358276
   7 O :   -0.108075
   8 H :    0.163907
   9 H :    0.106007
  10 H :    0.099256
  11 H :    0.099569

-------------------------------
LOEWDIN REDUCED ORBITAL CHARGES
-------------------------------
  0 C s       :     2.841440  s :     2.841440
      pz      :     1.107302  p :     3.064447
      px      :     1.037062
      py      :     0.920083
      dz2     :     0.044815  d :     0.441407
      dxz     :     0.027047
      dyz     :     0.142375
      dx2y2   :     0.134868
      dxy     :     0.092303
      f0      :     0.007053  f :     0.062731
      f+1     :     0.004195
      f-1     :     0.006959
      f+2     :     0.003704
      f-2     :     0.010942
      f+3     :     0.011784
      f-3     :     0.018094
  1 O s       :     3.318482  s :     3.318482
      pz      :     1.586416  p :     4.631390
      px      :     1.678814
      py      :     1.366160
      dz2     :     0.007834  d :     0.075999
      dxz     :     0.005592
      dyz     :     0.025812
      dx2y2   :     0.017348
      dxy     :     0.019414
      f0      :     0.000431  f :     0.005075
      f+1     :     0.000346
      f-1     :     0.000811
      f+2     :     0.000523
      f-2     :     0.001009
      f+3     :     0.000867
      f-3     :     0.001087
  2 H s       :     0.676160  s :     0.676160
      pz      :     0.071530  p :     0.173093
      px      :     0.049435
      py      :     0.052128
  3 H s       :     0.843801  s :     0.843801
      pz      :     0.016857  p :     0.064278
      px      :     0.036483
      py      :     0.010937
  4 H s       :     0.832940  s :     0.832940
      pz      :     0.032265  p :     0.062762
      px      :     0.012987
      py      :     0.017510
  5 H s       :     0.850935  s :     0.850935
      pz      :     0.024319  p :     0.057449
      px      :     0.013781
      py      :     0.019349
  6 C s       :     2.878620  s :     2.878620
      pz      :     1.078394  p :     3.047855
      px      :     1.099160
      py      :     0.870301
      dz2     :     0.106762  d :     0.381426
      dxz     :     0.015956
      dyz     :     0.071973
      dx2y2   :     0.079237
      dxy     :     0.107499
      f0      :     0.005266  f :     0.050375
      f+1     :     0.001318
      f-1     :     0.009116
      f+2     :     0.009857
      f-2     :     0.007608
      f+3     :     0.008307
      f-3     :     0.008903
  7 O s       :     3.387444  s :     3.387444
      pz      :     1.542749  p :     4.652459
      px      :     1.594046
      py      :     1.515664
      dz2     :     0.008853  d :     0.064094
      dxz     :     0.014154
      dyz     :     0.012284
      dx2y2   :     0.018570
      dxy     :     0.010234
      f0      :     0.000327  f :     0.004078
      f+1     :     0.000561
      f-1     :     0.000640
      f+2     :     0.001034
      f-2     :     0.000308
      f+3     :     0.000669
      f-3     :     0.000538
  8 H s       :     0.676615  s :     0.676615
      pz      :     0.061693  p :     0.159477
      px      :     0.065313
      py      :     0.032472
  9 H s       :     0.838720  s :     0.838720
      pz      :     0.013596  p :     0.055274
      px      :     0.022997
      py      :     0.018680
 10 H s       :     0.840750  s :     0.840750
      pz      :     0.014139  p :     0.059993
      px      :     0.034186
      py      :     0.011668
 11 H s       :     0.837566  s :     0.837566
      pz      :     0.039242  p :     0.062865
      px      :     0.014490
      py      :     0.009133


                      *****************************
                      * MAYER POPULATION ANALYSIS *
                      *****************************

  NA   - Mulliken gross atomic population
  ZA   - Total nuclear charge
  QA   - Mulliken gross atomic charge
  VA   - Mayer's total valence
  BVA  - Mayer's bonded valence
  FA   - Mayer's free valence

  ATOM       NA         ZA         QA         VA         BVA        FA
  0 C      6.1605     6.0000    -0.1605     3.9447     3.9447    -0.0000
  1 O      8.4718     8.0000    -0.4718     1.8996     1.8996     0.0000
  2 H      0.6862     1.0000     0.3138     0.9168     0.9168     0.0000
  3 H      0.8909     1.0000     0.1091     0.9560     0.9560    -0.0000
  4 H      0.8748     1.0000     0.1252     0.9614     0.9614    -0.0000
  5 H      0.9196     1.0000     0.0804     0.9514     0.9514    -0.0000
  6 C      6.1720     6.0000    -0.1720     3.9494     3.9494    -0.0000
  7 O      8.4805     8.0000    -0.4805     1.8890     1.8890    -0.0000
  8 H      0.6834     1.0000     0.3166     0.9089     0.9089     0.0000
  9 H      0.8905     1.0000     0.1095     0.9681     0.9681    -0.0000
 10 H      0.8916     1.0000     0.1084     0.9516     0.9516    -0.0000
 11 H      0.8781     1.0000     0.1219     0.9524     0.9524    -0.0000

  Mayer bond orders larger than 0.1
B(  0-C ,  1-O ) :   1.0089 B(  0-C ,  3-H ) :   0.9797 B(  0-C ,  4-H ) :   0.9708 
B(  0-C ,  5-H ) :   0.9742 B(  1-O ,  2-H ) :   0.9005 B(  6-C ,  7-O ) :   1.0043 
B(  6-C ,  9-H ) :   0.9850 B(  6-C , 10-H ) :   0.9739 B(  6-C , 11-H ) :   0.9750 
B(  7-O ,  8-H ) :   0.8992 

-------
TIMINGS
-------

Total SCF time: 0 days 0 hours 0 min 17 sec 

Total time                  ....      17.001 sec
Sum of individual times     ....      16.340 sec  ( 96.1%)

Fock matrix formation       ....      15.647 sec  ( 92.0%)
  XC integration            ....       7.008 sec  ( 44.8% of F)
    Basis function eval.    ....       0.058 sec  (  0.8% of XC)
    Density eval.           ....       0.151 sec  (  2.2% of XC)
    XC-Functional eval.     ....       0.129 sec  (  1.8% of XC)
    XC-Potential eval.      ....       0.058 sec  (  0.8% of XC)
Diagonalization             ....       0.065 sec  (  0.4%)
Density matrix formation    ....       0.005 sec  (  0.0%)
Population analysis         ....       0.017 sec  (  0.1%)
Initial guess               ....       0.125 sec  (  0.7%)
Orbital Transformation      ....       0.000 sec  (  0.0%)
Orbital Orthonormalization  ....       0.000 sec  (  0.0%)
DIIS solution               ....       0.059 sec  (  0.3%)
SOSCF solution              ....       0.101 sec  (  0.6%)
Grid generation             ....       0.320 sec  (  1.9%)


-------------------------------------------------------------------------------
                          DFT DISPERSION CORRECTION                            
                                                                               
                              DFTD3 V3.1  Rev 1                                
                              USING zero damping                               
-------------------------------------------------------------------------------
The omegaB97X-D3 functional is recognized. Fit by Chai et al.
Active option DFTDOPT                   ...         3   

molecular C6(AA) [au] = 834.966058 


            DFT-D V3
 parameters
 s6 scaling factor         :     1.0000 
 rs6 scaling factor        :     1.2810 
 s8 scaling factor         :     1.0000 
 rs8 scaling factor        :     1.0940 
 Damping factor alpha6     :    14.0000 
 Damping factor alpha8     :    16.0000 
 ad hoc parameters k1-k3   :    16.0000     1.3333    -4.0000 

 Edisp/kcal,au: -0.715324891629  -0.001139942654 
 E6   /kcal   :  -0.327554320 
 E8   /kcal   :  -0.387770571 
 % E8         :  54.209014107 

-------------------------   ----------------
Dispersion correction           -0.001139943
-------------------------   ----------------


-------------------------   --------------------
FINAL SINGLE POINT ENERGY      -231.465218449667
-------------------------   --------------------


                            ***************************************
                            *     ORCA property calculations      *
                            ***************************************

                                    ---------------------
                                    Active property flags
                                    ---------------------
   (+) Dipole Moment


------------------------------------------------------------------------------
                       ORCA ELECTRIC PROPERTIES CALCULATION
------------------------------------------------------------------------------

Dipole Moment Calculation                       ... on
Quadrupole Moment Calculation                   ... off
Polarizability Calculation                      ... off
GBWName                                         ... 10-33_DFT_AB.gbw
Electron density file                           ... 10-33_DFT_AB.scfp.tmp
The origin for moment calculation is the CENTER OF MASS  = ( 1.368486, -9.874878 -14.525410)

-------------
DIPOLE MOMENT
-------------
                                X             Y             Z
Electronic contribution:     -1.22434      -3.27831       0.31474
Nuclear contribution   :      1.35939       3.90095       0.29401
                        -----------------------------------------
Total Dipole Moment    :      0.13505       0.62264       0.60874
                        -----------------------------------------
Magnitude (a.u.)       :      0.88119
Magnitude (Debye)      :      2.23980



--------------------
Rotational spectrum 
--------------------
 
Rotational constants in cm-1:     1.539515     0.034828     0.034750 
Rotational constants in MHz : 46153.503206  1044.108140  1041.783442 

 Dipole components along the rotational axes: 
x,y,z [a.u.] :    -0.350520     0.693949    -0.414803 
x,y,z [Debye]:    -0.890952     1.763877    -1.054346 

 
------------------------------------------------------------------------------
                      ORCA CHELPG CHARGES GENERATION
------------------------------------------------------------------------------

GBW file                           ... 10-33_DFT_AB.gbw

Reading the GBW file               ... done

Grid spacing                       ...     0.300000
Point Cut-Off                      ...     2.800000
Van-der-Waals Radii                ...        COSMO
Total charge                       ...            0


Number of points X direction       ...           31
Number of points Y direction       ...           41
Number of points Z direction       ...           32
Maximum number of possible points  ...        40672
Final number of points             ...        10667


CHELPG Charges            
--------------------------------
  0   C   :       0.252526
  1   O   :      -0.669344
  2   H   :       0.430075
  3   H   :      -0.028371
  4   H   :       0.039733
  5   H   :      -0.024402
  6   C   :      -0.009475
  7   O   :      -0.580563
  8   H   :       0.388360
  9   H   :       0.039824
 10   H   :       0.069657
 11   H   :       0.091979
--------------------------------
Total charge:     0.000000
--------------------------------

CHELPG charges calculated...

Timings for individual parts in CHELPG calculation:
Grid generation                 ...        0.002 sec (=   0.000 min)
Potential calculation           ...        2.088 sec (=   0.035 min)
Fit to the potential            ...        0.004 sec (=   0.000 min)
------------------------------------------------------------------------------


Timings for individual modules:

Sum of individual times         ...       24.396 sec (=   0.407 min)
GTO integral calculation        ...        3.233 sec (=   0.054 min)  13.3 %
SCF iterations                  ...       19.039 sec (=   0.317 min)  78.0 %
CHELPG charge generation        ...        2.124 sec (=   0.035 min)   8.7 %


                 $$$$$$$$$$$$$$$$  JOB NUMBER  2 $$$$$$$$$$$$$$


                       ****************************
                       * Single Point Calculation *
                       ****************************

---------------------------------
CARTESIAN COORDINATES (ANGSTROEM)
---------------------------------
  C     -0.107336   -6.761295   -6.715591
  O     -0.840736   -7.925506   -6.762882
  H     -0.625648   -8.537022   -6.098598
  H      0.918834   -6.900276   -6.443235
  H     -0.136207   -6.196261   -7.628469
  H     -0.460480   -6.062073   -5.931819
  C      2.052238   -2.423676   -8.966001
  O      1.824543   -3.739333   -8.398036
  H      1.137843   -3.681050   -7.729025
  H      1.261028   -1.726732   -8.568119
  H      3.064639   -2.062793   -8.737179
  H      2.089660   -2.461131  -10.045646

----------------------------
CARTESIAN COORDINATES (A.U.)
----------------------------
  NO LB      ZA    FRAG     MASS         X           Y           Z
   0 C     6.0000    0    12.011   -0.202836  -12.776996  -12.690628
   1 O     8.0000    0    15.999   -1.588761  -14.977036  -12.779995
   2 H     1.0000    0     1.008   -1.182303  -16.132634  -11.524680
   3 H     1.0000    0     1.008    1.736345  -13.039632  -12.175950
   4 H     1.0000    0     1.008   -0.257394  -11.709236  -14.415717
   5 H     1.0000    0     1.008   -0.870181  -11.455658  -11.209513
   6 C     0.0000    0     0.000    3.878168   -4.580084  -16.943286
   7 O     0.0000    0     0.000    3.447887   -7.066315  -15.869988
   8 H     0.0000    0     0.000    2.150212   -6.956176  -14.605741
   9 H     0.0000    0     0.000    2.382998   -3.263051  -16.191398
  10 H     0.0000    0     0.000    5.791328   -3.898114  -16.510875
  11 H     0.0000    0     0.000    3.948885   -4.650864  -18.983520

--------------------------------
INTERNAL COORDINATES (ANGSTROEM)
--------------------------------
 C      0   0   0     0.000000000000     0.00000000     0.00000000
 O      1   0   0     1.376771314054     0.00000000     0.00000000
 H      2   1   0     0.928163724057   114.14817190     0.00000000
 H      1   2   3     1.070755984339   114.17303066    37.86928199
 H      1   2   3     1.073984729259   113.66366653   162.47912564
 H      1   2   3     1.108115805322   112.83704366   282.03901858
 C      5   1   2     4.561872526855   132.17544700   185.80296533
 O      7   5   1     1.450993658118    19.96609455    46.40841275
 H      8   7   5     0.960484001017   109.25771412   305.46364944
 H      7   5   1     1.126966853621    94.07773178   270.27943660
 H      7   5   1     1.098886632995   130.73064428    33.72592792
 H      7   5   1     1.080942463378   106.30789130   154.36832245

---------------------------
INTERNAL COORDINATES (A.U.)
---------------------------
 C      0   0   0     0.000000000000     0.00000000     0.00000000
 O      1   0   0     2.601720732601     0.00000000     0.00000000
 H      2   1   0     1.753975245909   114.14817190     0.00000000
 H      1   2   3     2.023435566657   114.17303066    37.86928199
 H      1   2   3     2.029537010313   113.66366653   162.47912564
 H      1   2   3     2.094035396728   112.83704366   282.03901858
 C      5   1   2     8.620689733615   132.17544700   185.80296533
 O      7   5   1     2.741980635900    19.96609455    46.40841275
 H      8   7   5     1.815051717935   109.25771412   305.46364944
 H      7   5   1     2.129658715350    94.07773178   270.27943660
 H      7   5   1     2.076594788586   130.73064428    33.72592792
 H      7   5   1     2.042685222311   106.30789130   154.36832245

---------------------
BASIS SET INFORMATION
---------------------
There are 3 groups of distinct atoms

 Group   1 Type C   : 11s6p2d1f contracted to 5s3p2d1f pattern {62111/411/11/1}
 Group   2 Type O   : 11s6p2d1f contracted to 5s3p2d1f pattern {62111/411/11/1}
 Group   3 Type H   : 5s1p contracted to 3s1p pattern {311/1}

Atom   0C    basis set group =>   1
Atom   1O    basis set group =>   2
Atom   2H    basis set group =>   3
Atom   3H    basis set group =>   3
Atom   4H    basis set group =>   3
Atom   5H    basis set group =>   3
Atom   6C    basis set group =>   1
Atom   7O    basis set group =>   2
Atom   8H    basis set group =>   3
Atom   9H    basis set group =>   3
Atom  10H    basis set group =>   3
Atom  11H    basis set group =>   3


           ************************************************************
           *        Program running with 8 parallel MPI-processes     *
           *              working on a common directory               *
           ************************************************************
------------------------------------------------------------------------------
                           ORCA GTO INTEGRAL CALCULATION
------------------------------------------------------------------------------

                         BASIS SET STATISTICS AND STARTUP INFO

 # of primitive gaussian shells          ...  128
 # of primitive gaussian functions       ...  248
 # of contracted shells                  ...   76
 # of contracted basis functions         ...  172
 Highest angular momentum                ...    3
 Maximum contraction depth               ...    6
 Integral package used                   ... LIBINT
 Integral threshhold            Thresh   ...  2.500e-11
 Primitive cut-off              TCut     ...  2.500e-12


------------------------------ INTEGRAL EVALUATION ----------------------------


 * One electron integrals 
 Pre-screening matrix                    ... done
 Shell pair data                         ... done (   0.001 sec)



           ************************************************************
           *        Program running with 8 parallel MPI-processes     *
           *              working on a common directory               *
           ************************************************************
-------------------------------------------------------------------------------
                                 ORCA SCF
-------------------------------------------------------------------------------

------------
SCF SETTINGS
------------
Hamiltonian:
 Density Functional     Method          .... DFT(GTOs)
 Exchange Functional    Exchange        .... WB97X-D3
 Correlation Functional Correlation     .... WB97X-D3
 Gradients option       PostSCFGGA      .... off
 Hybrid DFT is turned on
   Fraction HF Exchange ScalHFX         ....  0.195728
   Scaling of DF-GGA-X  ScalDFX         ....  0.000000
   Scaling of DF-GGA-C  ScalDFC         ....  1.000000
   Scaling of DF-LDA-C  ScalLDAC        ....  1.000000
   Perturbative correction              ....  0.000000
   Density functional embedding theory  .... OFF
 Long-range corrected/Screened/Range-Separated Hybrid DFT is turned on
   Amount of maximum screened exact exchange              ....  0.804272
   Range separation parameter mu (erf(mu*r12)/r12)        ....  0.250000


General Settings:
 Integral files         IntName         .... 10-33_DFT_A
 Hartree-Fock type      HFTyp           .... RHF
 Total Charge           Charge          ....    0
 Multiplicity           Mult            ....    1
 Number of Electrons    NEL             ....   18
 Basis Dimension        Dim             ....  172
 Nuclear Repulsion      ENuc            ....     41.1303241969 Eh

Convergence Acceleration:
 DIIS                   CNVDIIS         .... on
   Start iteration      DIISMaxIt       ....    12
   Startup error        DIISStart       ....  0.200000
   # of expansion vecs  DIISMaxEq       ....     5
   Bias factor          DIISBfac        ....   1.050
   Max. coefficient     DIISMaxC        ....  10.000
 Newton-Raphson         CNVNR           .... off
 SOSCF                  CNVSOSCF        .... on
   Start iteration      SOSCFMaxIt      ....   150
   Startup grad/error   SOSCFStart      ....  0.003300
 Level Shifting         CNVShift        .... on
   Level shift para.    LevelShift      ....    0.2500
   Turn off err/grad.   ShiftErr        ....    0.0010
 Zerner damping         CNVZerner       .... off
 Static damping         CNVDamp         .... on
   Fraction old density DampFac         ....    0.7000
   Max. Damping (<1)    DampMax         ....    0.9800
   Min. Damping (>=0)   DampMin         ....    0.0000
   Turn off err/grad.   DampErr         ....    0.1000
 Fernandez-Rico         CNVRico         .... off

SCF Procedure:
 Maximum # iterations   MaxIter         ....  1000
 SCF integral mode      SCFMode         .... Direct
   Integral package                     .... LIBINT
 Reset frequency        DirectResetFreq ....    20
 Integral Threshold     Thresh          ....  2.500e-11 Eh
 Primitive CutOff       TCut            ....  2.500e-12 Eh

Convergence Tolerance:
 Convergence Check Mode ConvCheckMode   .... Total+1el-Energy
 Convergence forced     ConvForced      .... 0
 Energy Change          TolE            ....  1.000e-08 Eh
 1-El. energy change                    ....  1.000e-05 Eh
 Orbital Gradient       TolG            ....  1.000e-05
 Orbital Rotation angle TolX            ....  1.000e-05
 DIIS Error             TolErr          ....  5.000e-07


Diagonalization of the overlap matrix:
Smallest eigenvalue                        ... 1.529e-03
Time for diagonalization                   ...    0.004 sec
Threshold for overlap eigenvalues          ... 1.000e-08
Number of eigenvalues below threshold      ... 0
Time for construction of square roots      ...    0.005 sec
Total time needed                          ...    0.010 sec

-------------------
DFT GRID GENERATION
-------------------

General Integration Accuracy     IntAcc      ...  4.340
Radial Grid Type                 RadialGrid  ... Gauss-Chebyshev
Angular Grid (max. acc.)         AngularGrid ... Lebedev-110
Angular grid pruning method      GridPruning ... 3 (G Style)
Weight generation scheme         WeightScheme... Becke
Basis function cutoff            BFCut       ...    1.0000e-11
Integration weight cutoff        WCut        ...    1.0000e-14
Grids for H and He will be reduced by one unit

# of grid points (after initial pruning)     ...  13096 (   0.0 sec)
# of grid points (after weights+screening)   ...  12568 (   0.0 sec)
nearest neighbour list constructed           ...    0.0 sec
Grid point re-assignment to atoms done       ...    0.0 sec
Grid point division into batches done        ...    0.0 sec
Reduced shell lists constructed in    0.0 sec

Total number of grid points                  ...    12568
Total number of batches                      ...      202
Average number of points per batch           ...       62
Average number of grid points per atom       ...     1047
Average number of shells per batch           ...    44.44 (58.48%)
Average number of basis functions per batch  ...    96.30 (55.99%)
Average number of large shells per batch     ...    35.78 (80.50%)
Average number of large basis fcns per batch ...    81.11 (84.23%)
Maximum spatial batch extension              ...  16.14, 12.32, 15.38 au
Average spatial batch extension              ...   0.40,  0.35,  0.37 au

Time for grid setup =    0.041 sec

------------------------------
INITIAL GUESS: MODEL POTENTIAL
------------------------------
Loading Hartree-Fock densities                     ... done
Calculating cut-offs                               ... done
Setting up the integral package                    ... done
Initializing the effective Hamiltonian             ... done
Starting the Coulomb interaction                   ... done (   0.0 sec)
Reading the grid                                   ... done
Mapping shells                                     ... done
Starting the XC term evaluation                    ... done (   0.0 sec)
  promolecular density results
     # of electrons  =     18.003263682
     EX              =    -14.453184718
     EC              =     -0.577568894
     EX+EC           =    -15.030753613
Transforming the Hamiltonian                       ... done (   0.0 sec)
Diagonalizing the Hamiltonian                      ... done (   0.0 sec)
Back transforming the eigenvectors                 ... done (   0.0 sec)
Now organizing SCF variables                       ... done
                      ------------------
                      INITIAL GUESS DONE (   0.2 sec)
                      ------------------
--------------
SCF ITERATIONS
--------------
ITER       Energy         Delta-E        Max-DP      RMS-DP      [F,P]     Damp
               ***  Starting incremental Fock matrix formation  ***
  0   -115.6412653593   0.000000000000 0.03786673  0.00075690  0.2557082 0.7000
  1   -115.6800129749  -0.038747615647 0.02257818  0.00053906  0.1291947 0.7000
                               ***Turning on DIIS***
  2   -115.6980095325  -0.017996557626 0.03256879  0.00098260  0.0512599 0.0000
  3   -115.7272549497  -0.029245417153 0.01765846  0.00035072  0.0617075 0.0000
  4   -115.7319858332  -0.004730883498 0.00397634  0.00006633  0.0061565 0.0000
                      *** Initiating the SOSCF procedure ***
                           *** Shutting down DIIS ***
                      *** Re-Reading the Fockian *** 
                      *** Removing any level shift *** 
ITER      Energy       Delta-E        Grad      Rot      Max-DP    RMS-DP
  5   -115.73207429  -0.0000884542  0.000410  0.000410  0.000732  0.000023
               *** Restarting incremental Fock matrix formation ***
  6   -115.73208233  -0.0000080431  0.000121  0.000182  0.000491  0.000014
  7   -115.73208310  -0.0000007728  0.000045  0.000110  0.000235  0.000007
  8   -115.73208316  -0.0000000614  0.000022  0.000015  0.000035  0.000001
  9   -115.73208318  -0.0000000149  0.000009  0.000007  0.000018  0.000000
 10   -115.73208318  -0.0000000011  0.000003  0.000002  0.000005  0.000000
                  ***Gradient check signals convergence***
              ***Rediagonalizing the Fockian in SOSCF/NRSCF***

               *****************************************************
               *                     SUCCESS                       *
               *           SCF CONVERGED AFTER  11 CYCLES          *
               *****************************************************

Setting up the final grid:

General Integration Accuracy     IntAcc      ...  4.670
Radial Grid Type                 RadialGrid  ... Gauss-Chebyshev
Angular Grid (max. acc.)         AngularGrid ... Lebedev-302
Angular grid pruning method      GridPruning ... 3 (G Style)
Weight generation scheme         WeightScheme... Becke
Basis function cutoff            BFCut       ...    1.0000e-11
Integration weight cutoff        WCut        ...    1.0000e-14
Grids for H and He will be reduced by one unit

# of grid points (after initial pruning)     ...  52000 (   0.0 sec)
# of grid points (after weights+screening)   ...  49579 (   0.0 sec)
nearest neighbour list constructed           ...    0.0 sec
Grid point re-assignment to atoms done       ...    0.0 sec
Grid point division into batches done        ...    0.2 sec
Reduced shell lists constructed in    0.2 sec

Total number of grid points                  ...    49579
Total number of batches                      ...      782
Average number of points per batch           ...       63
Average number of grid points per atom       ...     4132
Average number of shells per batch           ...    42.82 (56.34%)
Average number of basis functions per batch  ...    92.66 (53.87%)
Average number of large shells per batch     ...    33.94 (79.26%)
Average number of large basis fcns per batch ...    77.66 (83.81%)
Maximum spatial batch extension              ...  17.12, 13.45, 16.05 au
Average spatial batch extension              ...   0.25,  0.24,  0.27 au

Final grid set up in    0.3 sec
Final integration                            ... done (   0.1 sec)
Change in XC energy                          ...    -0.000252376
Integrated number of electrons               ...    17.999975802
Previous integrated no of electrons          ...    18.000918890

----------------
TOTAL SCF ENERGY
----------------

Total Energy       :         -115.73233556 Eh           -3149.23695 eV

Components:
Nuclear Repulsion  :           41.13032420 Eh            1119.21302 eV
Electronic Energy  :         -156.86265975 Eh           -4268.44998 eV
One Electron Energy:         -238.58675566 Eh           -6492.27568 eV
Two Electron Energy:           81.72409591 Eh            2223.82571 eV

Virial components:
Potential Energy   :         -231.12694479 Eh           -6289.28391 eV
Kinetic Energy     :          115.39460924 Eh            3140.04695 eV
Virial Ratio       :            2.00292671


DFT components:
N(Alpha)           :        8.999987901141 electrons
N(Beta)            :        8.999987901141 electrons
N(Total)           :       17.999975802283 electrons
E(XC)              :      -10.686301979796 Eh       
DFET-embed. en.    :        0.000000000000 Eh       

---------------
SCF CONVERGENCE
---------------

  Last Energy change         ...   -2.8946e-10  Tolerance :   1.0000e-08
  Last MAX-Density change    ...    1.7979e-06  Tolerance :   1.0000e-07
  Last RMS-Density change    ...    5.0409e-08  Tolerance :   5.0000e-09
  Last Orbital Gradient      ...    8.8106e-07  Tolerance :   1.0000e-05
  Last Orbital Rotation      ...    1.0455e-06  Tolerance :   1.0000e-05

             **** THE GBW FILE WAS UPDATED (10-33_DFT_A.gbw) ****
             **** DENSITY FILE WAS UPDATED (10-33_DFT_A.scfp.tmp) ****
             **** ENERGY FILE WAS UPDATED (10-33_DFT_A.en.tmp) ****
----------------
ORBITAL ENERGIES
----------------

  NO   OCC          E(Eh)            E(eV) 
   0   2.0000     -19.226825      -523.1885 
   1   2.0000     -10.307152      -280.4719 
   2   2.0000      -1.150658       -31.3110 
   3   2.0000      -0.804342       -21.8872 
   4   2.0000      -0.628851       -17.1119 
   5   2.0000      -0.539955       -14.6929 
   6   2.0000      -0.536060       -14.5869 
   7   2.0000      -0.430002       -11.7010 
   8   2.0000      -0.369799       -10.0627 
   9   0.0000       0.085596         2.3292 
  10   0.0000       0.119892         3.2624 
  11   0.0000       0.136972         3.7272 
  12   0.0000       0.191817         5.2196 
  13   0.0000       0.193846         5.2748 
  14   0.0000       0.197654         5.3784 
  15   0.0000       0.209144         5.6911 
  16   0.0000       0.215718         5.8700 
  17   0.0000       0.248758         6.7691 
  18   0.0000       0.290592         7.9074 
  19   0.0000       0.303879         8.2690 
  20   0.0000       0.320997         8.7348 
  21   0.0000       0.326622         8.8878 
  22   0.0000       0.330919         9.0048 
  23   0.0000       0.367225         9.9927 
  24   0.0000       0.421033        11.4569 
  25   0.0000       0.441708        12.0195 
  26   0.0000       0.475975        12.9519 
  27   0.0000       0.492598        13.4043 
  28   0.0000       0.512433        13.9440 
  29   0.0000       0.532560        14.4917 
  30   0.0000       0.552246        15.0274 
  31   0.0000       0.557213        15.1625 
  32   0.0000       0.593279        16.1439 
  33   0.0000       0.602970        16.4076 
  34   0.0000       0.639237        17.3945 
  35   0.0000       0.666679        18.1413 
  36   0.0000       0.677632        18.4393 
  37   0.0000       0.712522        19.3887 
  38   0.0000       0.778152        21.1746 
  39   0.0000       0.787664        21.4334 
  40   0.0000       0.794081        21.6080 
  41   0.0000       0.837248        22.7827 
  42   0.0000       0.873012        23.7559 
  43   0.0000       0.942367        25.6431 
  44   0.0000       0.994103        27.0509 
  45   0.0000       1.030196        28.0331 
  46   0.0000       1.060972        28.8705 
  47   0.0000       1.124221        30.5916 
  48   0.0000       1.146460        31.1968 
  49   0.0000       1.155268        31.4364 
  50   0.0000       1.181251        32.1435 
  51   0.0000       1.188868        32.3508 
  52   0.0000       1.208011        32.8717 
  53   0.0000       1.362658        37.0798 
  54   0.0000       1.374657        37.4063 
  55   0.0000       1.394708        37.9519 
  56   0.0000       1.454432        39.5771 
  57   0.0000       1.514818        41.2203 
  58   0.0000       1.531985        41.6874 
  59   0.0000       1.565109        42.5888 
  60   0.0000       1.606270        43.7088 
  61   0.0000       1.618625        44.0450 
  62   0.0000       1.656102        45.0648 
  63   0.0000       1.665036        45.3079 
  64   0.0000       1.708810        46.4991 
  65   0.0000       1.771419        48.2028 
  66   0.0000       1.806853        49.1670 
  67   0.0000       1.916727        52.1568 
  68   0.0000       1.940335        52.7992 
  69   0.0000       1.954898        53.1955 
  70   0.0000       2.008946        54.6662 
  71   0.0000       2.073023        56.4098 
  72   0.0000       2.082758        56.6747 
  73   0.0000       2.092389        56.9368 
  74   0.0000       2.150248        58.5112 
  75   0.0000       2.172035        59.1041 
  76   0.0000       2.196704        59.7754 
  77   0.0000       2.236005        60.8448 
  78   0.0000       2.292622        62.3854 
  79   0.0000       2.313461        62.9525 
  80   0.0000       2.342534        63.7436 
  81   0.0000       2.377159        64.6858 
  82   0.0000       2.405165        65.4479 
  83   0.0000       2.431428        66.1625 
  84   0.0000       2.481695        67.5303 
  85   0.0000       2.514936        68.4349 
  86   0.0000       2.602265        70.8112 
  87   0.0000       2.615438        71.1697 
  88   0.0000       2.641276        71.8728 
  89   0.0000       2.656668        72.2916 
  90   0.0000       2.691165        73.2303 
  91   0.0000       2.737188        74.4827 
  92   0.0000       2.809065        76.4385 
  93   0.0000       2.870837        78.1194 
  94   0.0000       2.878201        78.3198 
  95   0.0000       2.898556        78.8737 
  96   0.0000       2.940039        80.0025 
  97   0.0000       2.996651        81.5430 
  98   0.0000       3.034449        82.5716 
  99   0.0000       3.107817        84.5680 
 100   0.0000       3.116854        84.8139 
 101   0.0000       3.156780        85.9004 
 102   0.0000       3.183865        86.6374 
 103   0.0000       3.208176        87.2989 
 104   0.0000       3.268823        88.9492 
 105   0.0000       3.291889        89.5769 
 106   0.0000       3.356159        91.3257 
 107   0.0000       3.372076        91.7589 
 108   0.0000       3.409952        92.7895 
 109   0.0000       3.480859        94.7190 
 110   0.0000       3.555924        96.7616 
 111   0.0000       3.579914        97.4144 
 112   0.0000       3.593762        97.7912 
 113   0.0000       3.632229        98.8380 
 114   0.0000       3.681437       100.1770 
 115   0.0000       3.724649       101.3529 
 116   0.0000       3.745701       101.9257 
 117   0.0000       4.025221       109.5318 
 118   0.0000       4.051442       110.2453 
 119   0.0000       4.135076       112.5211 
 120   0.0000       4.252124       115.7062 
 121   0.0000       4.279846       116.4605 
 122   0.0000       4.286058       116.6296 
 123   0.0000       4.309604       117.2703 
 124   0.0000       4.320007       117.5534 
 125   0.0000       4.416583       120.1813 
 126   0.0000       4.514537       122.8468 
 127   0.0000       4.557708       124.0215 
 128   0.0000       4.562128       124.1418 
 129   0.0000       4.566970       124.2736 
 130   0.0000       4.616324       125.6166 
 131   0.0000       4.944267       134.5403 
 132   0.0000       5.023664       136.7008 
 133   0.0000       5.067903       137.9046 
 134   0.0000       5.330954       145.0626 
 135   0.0000       5.349834       145.5764 
 136   0.0000       5.414460       147.3349 
 137   0.0000       5.517670       150.1434 
 138   0.0000       5.612914       152.7352 
 139   0.0000       5.770344       157.0190 
 140   0.0000       5.825014       158.5067 
 141   0.0000       5.887822       160.2158 
 142   0.0000       5.907179       160.7425 
 143   0.0000       6.031499       164.1254 
 144   0.0000       6.034765       164.2143 
 145   0.0000       6.475502       176.2074 
 146   0.0000       6.528808       177.6579 
 147   0.0000       6.574251       178.8945 
 148   0.0000       6.649901       180.9530 
 149   0.0000       6.752960       183.7574 
 150   0.0000       6.826885       185.7690 
 151   0.0000       6.840761       186.1466 
 152   0.0000       7.040037       191.5692 
 153   0.0000       7.050157       191.8445 
 154   0.0000       7.158550       194.7941 
 155   0.0000       7.259854       197.5507 
 156   0.0000       7.319791       199.1816 
 157   0.0000       8.066240       219.4935 
 158   0.0000       8.855055       240.9583 
 159   0.0000       9.311695       253.3841 
 160   0.0000       9.538898       259.5666 
 161   0.0000       9.555311       260.0132 
 162   0.0000       9.765462       265.7317 
 163   0.0000       9.855481       268.1813 
[...]
  82   0.0000       2.398075        65.2549 
  83   0.0000       2.449277        66.6482 
  84   0.0000       2.489850        67.7523 
  85   0.0000       2.518524        68.5325 
  86   0.0000       2.543920        69.2236 
  87   0.0000       2.596148        70.6448 
  88   0.0000       2.600644        70.7671 
  89   0.0000       2.643589        71.9357 
  90   0.0000       2.671801        72.7034 
  91   0.0000       2.684672        73.0536 
  92   0.0000       2.838535        77.2405 
  93   0.0000       2.849254        77.5322 
  94   0.0000       2.852805        77.6288 
  95   0.0000       2.890576        78.6566 
  96   0.0000       2.952091        80.3305 
  97   0.0000       2.978935        81.0609 
  98   0.0000       3.016240        82.0761 
  99   0.0000       3.096945        84.2722 
 100   0.0000       3.142396        85.5089 
 101   0.0000       3.148129        85.6649 
 102   0.0000       3.186601        86.7118 
 103   0.0000       3.223017        87.7028 
 104   0.0000       3.261851        88.7595 
 105   0.0000       3.301072        89.8267 
 106   0.0000       3.371627        91.7466 
 107   0.0000       3.383187        92.0612 
 108   0.0000       3.414191        92.9049 
 109   0.0000       3.473668        94.5233 
 110   0.0000       3.525380        95.9305 
 111   0.0000       3.532191        96.1158 
 112   0.0000       3.638048        98.9963 
 113   0.0000       3.642320        99.1126 
 114   0.0000       3.656003        99.4849 
 115   0.0000       3.705010       100.8184 
 116   0.0000       3.759367       102.2976 
 117   0.0000       3.958576       107.7183 
 118   0.0000       4.091400       111.3327 
 119   0.0000       4.113234       111.9268 
 120   0.0000       4.183689       113.8440 
 121   0.0000       4.269798       116.1871 
 122   0.0000       4.303417       117.1019 
 123   0.0000       4.323259       117.6419 
 124   0.0000       4.424568       120.3986 
 125   0.0000       4.447313       121.0175 
 126   0.0000       4.514481       122.8453 
 127   0.0000       4.541557       123.5821 
 128   0.0000       4.548185       123.7624 
 129   0.0000       4.601923       125.2247 
 130   0.0000       4.617617       125.6518 
 131   0.0000       5.044309       137.2626 
 132   0.0000       5.074674       138.0889 
 133   0.0000       5.087890       138.4485 
 134   0.0000       5.334673       145.1638 
 135   0.0000       5.385814       146.5554 
 136   0.0000       5.407595       147.1481 
 137   0.0000       5.527779       150.4185 
 138   0.0000       5.556263       151.1936 
 139   0.0000       5.760910       156.7623 
 140   0.0000       5.764494       156.8599 
 141   0.0000       5.799091       157.8013 
 142   0.0000       5.912344       160.8831 
 143   0.0000       6.028834       164.0529 
 144   0.0000       6.085757       165.6019 
 145   0.0000       6.334727       172.3767 
 146   0.0000       6.516719       177.3289 
 147   0.0000       6.607984       179.8124 
 148   0.0000       6.685403       181.9191 
 149   0.0000       6.772811       184.2975 
 150   0.0000       6.783806       184.5967 
 151   0.0000       6.933416       188.6679 
 152   0.0000       7.067271       192.3102 
 153   0.0000       7.201870       195.9728 
 154   0.0000       7.268000       197.7723 
 155   0.0000       7.325343       199.3327 
 156   0.0000       7.519544       204.6172 
 157   0.0000       8.308136       226.0759 
 158   0.0000       8.894269       242.0254 
 159   0.0000       9.330733       253.9022 
 160   0.0000       9.556722       260.0516 
 161   0.0000       9.596878       261.1443 
 162   0.0000       9.805085       266.8099 
 163   0.0000       9.846562       267.9386 
 164   0.0000       9.977105       271.4908 
 165   0.0000      10.136047       275.8158 
 166   0.0000      11.232847       305.6613 
 167   0.0000      19.105420       519.8849 
 168   0.0000      22.270792       606.0191 
 169   0.0000      43.655314      1187.9215 
 170   0.0000      66.075047      1797.9934 
 171   0.0000     126.424527      3440.1863 

                    ********************************
                    * MULLIKEN POPULATION ANALYSIS *
                    ********************************

-----------------------
MULLIKEN ATOMIC CHARGES
-----------------------
   0 C :    0.002059
   1 O :   -0.000033
   2 H :   -0.000002
   3 H :   -0.000325
   4 H :   -0.005187
   5 H :   -0.000104
   6 C :   -0.172227
   7 O :   -0.478266
   8 H :    0.317656
   9 H :    0.108278
  10 H :    0.107868
  11 H :    0.120284
Sum of atomic charges:   -0.0000000

--------------------------------
MULLIKEN REDUCED ORBITAL CHARGES
--------------------------------
  0 C s       :    -0.001523  s :    -0.001523
      pz      :    -0.000693  p :    -0.000570
      px      :     0.000264
      py      :    -0.000141
      dz2     :     0.000006  d :     0.000034
      dxz     :     0.000001
      dyz     :     0.000019
      dx2y2   :     0.000013
      dxy     :    -0.000006
      f0      :    -0.000000  f :    -0.000000
      f+1     :    -0.000000
      f-1     :     0.000000
      f+2     :    -0.000000
      f-2     :    -0.000000
      f+3     :    -0.000000
      f-3     :    -0.000000
  1 O s       :     0.000020  s :     0.000020
      pz      :     0.000000  p :     0.000013
      px      :     0.000004
      py      :     0.000009
      dz2     :    -0.000000  d :     0.000000
      dxz     :     0.000000
      dyz     :     0.000000
      dx2y2   :    -0.000000
      dxy     :    -0.000000
      f0      :    -0.000000  f :    -0.000000
      f+1     :    -0.000000
      f-1     :    -0.000000
      f+2     :    -0.000000
      f-2     :    -0.000000
      f+3     :     0.000000
      f-3     :    -0.000000
  2 H s       :     0.000002  s :     0.000002
      pz      :     0.000000  p :    -0.000000
      px      :    -0.000000
      py      :    -0.000000
  3 H s       :     0.000325  s :     0.000325
      pz      :    -0.000000  p :     0.000000
      px      :     0.000001
      py      :    -0.000000
  4 H s       :     0.005171  s :     0.005171
      pz      :     0.000009  p :     0.000017
      px      :     0.000001
      py      :     0.000007
  5 H s       :     0.000105  s :     0.000105
      pz      :    -0.000000  p :    -0.000000
      px      :    -0.000000
      py      :     0.000000
  6 C s       :     3.236920  s :     3.236920
      pz      :     1.032643  p :     2.832054
      px      :     1.060366
      py      :     0.739044
      dz2     :     0.028588  d :     0.095989
      dxz     :     0.006411
      dyz     :     0.017422
      dx2y2   :     0.015037
      dxy     :     0.028531
      f0      :     0.001204  f :     0.007265
      f+1     :     0.000076
      f-1     :     0.001543
      f+2     :     0.000864
      f-2     :     0.000744
      f+3     :     0.001550
      f-3     :     0.001283
  7 O s       :     3.794790  s :     3.794790
      pz      :     1.571467  p :     4.653546
      px      :     1.626909
      py      :     1.455170
      dz2     :     0.004041  d :     0.028337
      dxz     :     0.006548
      dyz     :     0.004658
      dx2y2   :     0.009199
      dxy     :     0.003891
      f0      :     0.000174  f :     0.001593
      f+1     :     0.000364
      f-1     :     0.000139
      f+2     :     0.000481
      f-2     :     0.000151
      f+3     :     0.000152
      f-3     :     0.000131
  8 H s       :     0.633947  s :     0.633947
      pz      :     0.018629  p :     0.048397
      px      :     0.018300
      py      :     0.011467
  9 H s       :     0.873638  s :     0.873638
      pz      :     0.004276  p :     0.018084
      px      :     0.007607
      py      :     0.006201
 10 H s       :     0.871799  s :     0.871799
      pz      :     0.004640  p :     0.020334
      px      :     0.011824
      py      :     0.003870
 11 H s       :     0.858953  s :     0.858953
      pz      :     0.013159  p :     0.020763
      px      :     0.004808
      py      :     0.002796


                     *******************************
                     * LOEWDIN POPULATION ANALYSIS *
                     *******************************

----------------------
LOEWDIN ATOMIC CHARGES
----------------------
   0 C :   -0.001301
   1 O :   -0.000016
   2 H :   -0.000002
   3 H :   -0.000199
   4 H :   -0.002228
   5 H :   -0.000097
   6 C :   -0.359207
   7 O :   -0.106238
   8 H :    0.165655
   9 H :    0.105576
  10 H :    0.099033
  11 H :    0.099023

-------------------------------
LOEWDIN REDUCED ORBITAL CHARGES
-------------------------------
  0 C s       :     0.000083  s :     0.000083
      pz      :     0.000228  p :     0.001189
      px      :     0.000319
      py      :     0.000643
      dz2     :     0.000005  d :     0.000028
      dxz     :     0.000002
      dyz     :     0.000008
      dx2y2   :     0.000008
      dxy     :     0.000006
      f0      :     0.000000  f :     0.000001
      f+1     :     0.000000
      f-1     :     0.000000
      f+2     :     0.000000
      f-2     :     0.000000
      f+3     :     0.000000
      f-3     :     0.000000
  1 O s       :     0.000002  s :     0.000002
      pz      :     0.000007  p :     0.000013
      px      :     0.000002
      py      :     0.000003
      dz2     :     0.000000  d :     0.000000
      dxz     :     0.000000
      dyz     :     0.000000
      dx2y2   :     0.000000
      dxy     :     0.000000
      f0      :     0.000000  f :     0.000000
      f+1     :     0.000000
      f-1     :     0.000000
      f+2     :     0.000000
      f-2     :     0.000000
      f+3     :     0.000000
      f-3     :     0.000000
  2 H s       :     0.000001  s :     0.000001
      pz      :     0.000000  p :     0.000000
      px      :     0.000000
      py      :     0.000000
  3 H s       :     0.000199  s :     0.000199
      pz      :     0.000000  p :     0.000001
      px      :     0.000000
      py      :     0.000001
  4 H s       :     0.002216  s :     0.002216
      pz      :     0.000003  p :     0.000012
      px      :     0.000003
      py      :     0.000007
  5 H s       :     0.000096  s :     0.000096
      pz      :     0.000000  p :     0.000001
      px      :     0.000000
      py      :     0.000000
  6 C s       :     2.878591  s :     2.878591
      pz      :     1.078040  p :     3.048218
      px      :     1.098972
      py      :     0.871205
      dz2     :     0.107077  d :     0.382020
      dxz     :     0.015937
      dyz     :     0.071985
      dx2y2   :     0.079251
      dxy     :     0.107770
      f0      :     0.005268  f :     0.050378
      f+1     :     0.001319
      f-1     :     0.009119
      f+2     :     0.009847
      f-2     :     0.007612
      f+3     :     0.008308
      f-3     :     0.008905
  7 O s       :     3.387450  s :     3.387450
      pz      :     1.542751  p :     4.650646
      px      :     1.593896
      py      :     1.513999
      dz2     :     0.008830  d :     0.064067
      dxz     :     0.014093
      dyz     :     0.012318
      dx2y2   :     0.018608
      dxy     :     0.010218
      f0      :     0.000328  f :     0.004075
      f+1     :     0.000559
      f-1     :     0.000639
      f+2     :     0.001033
      f-2     :     0.000309
      f+3     :     0.000668
      f-3     :     0.000539
  8 H s       :     0.674960  s :     0.674960
      pz      :     0.061694  p :     0.159385
      px      :     0.065310
      py      :     0.032381
  9 H s       :     0.839185  s :     0.839185
      pz      :     0.013593  p :     0.055240
      px      :     0.022971
      py      :     0.018675
 10 H s       :     0.840993  s :     0.840993
      pz      :     0.014132  p :     0.059974
      px      :     0.034165
      py      :     0.011676
 11 H s       :     0.838157  s :     0.838157
      pz      :     0.039172  p :     0.062820
      px      :     0.014492
      py      :     0.009156


                      *****************************
                      * MAYER POPULATION ANALYSIS *
                      *****************************

  NA   - Mulliken gross atomic population
  ZA   - Total nuclear charge
  QA   - Mulliken gross atomic charge
  VA   - Mayer's total valence
  BVA  - Mayer's bonded valence
  FA   - Mayer's free valence

  ATOM       NA         ZA         QA         VA         BVA        FA
  0 C     -0.0021     0.0000     0.0021    -0.0041    -0.0041     0.0000
  1 O      0.0000     0.0000    -0.0000     0.0001     0.0001    -0.0000
  2 H      0.0000     0.0000    -0.0000     0.0000     0.0000     0.0000
  3 H      0.0003     0.0000    -0.0003     0.0007     0.0007    -0.0000
  4 H      0.0052     0.0000    -0.0052     0.0103     0.0103    -0.0000
  5 H      0.0001     0.0000    -0.0001     0.0002     0.0002    -0.0000
  6 C      6.1722     6.0000    -0.1722     3.9520     3.9520    -0.0000
  7 O      8.4783     8.0000    -0.4783     1.8904     1.8904    -0.0000
  8 H      0.6823     1.0000     0.3177     0.9084     0.9084     0.0000
  9 H      0.8917     1.0000     0.1083     0.9682     0.9682    -0.0000
 10 H      0.8921     1.0000     0.1079     0.9515     0.9515    -0.0000
 11 H      0.8797     1.0000     0.1203     0.9523     0.9523    -0.0000

  Mayer bond orders larger than 0.1
B(  6-C ,  7-O ) :   1.0069 B(  6-C ,  9-H ) :   0.9850 B(  6-C , 10-H ) :   0.9737 
B(  6-C , 11-H ) :   0.9749 B(  7-O ,  8-H ) :   0.8988 

-------
TIMINGS
-------

Total SCF time: 0 days 0 hours 0 min 12 sec 

Total time                  ....      12.970 sec
Sum of individual times     ....      12.608 sec  ( 97.2%)

Fock matrix formation       ....      12.021 sec  ( 92.7%)
  XC integration            ....       5.325 sec  ( 44.3% of F)
    Basis function eval.    ....       0.053 sec  (  1.0% of XC)
    Density eval.           ....       0.063 sec  (  1.2% of XC)
    XC-Functional eval.     ....       0.087 sec  (  1.6% of XC)
    XC-Potential eval.      ....       0.052 sec  (  1.0% of XC)
Diagonalization             ....       0.077 sec  (  0.6%)
Density matrix formation    ....       0.005 sec  (  0.0%)
Population analysis         ....       0.021 sec  (  0.2%)
Initial guess               ....       0.095 sec  (  0.7%)
Orbital Transformation      ....       0.000 sec  (  0.0%)
Orbital Orthonormalization  ....       0.000 sec  (  0.0%)
DIIS solution               ....       0.042 sec  (  0.3%)
SOSCF solution              ....       0.034 sec  (  0.3%)
Grid generation             ....       0.313 sec  (  2.4%)


-------------------------------------------------------------------------------
                          DFT DISPERSION CORRECTION                            
                                                                               
                              DFTD3 V3.1  Rev 1                                
                              USING zero damping                               
-------------------------------------------------------------------------------
The omegaB97X-D3 functional is recognized. Fit by Chai et al.
Active option DFTDOPT                   ...         3   

molecular C6(AA) [au] = 208.818651 


            DFT-D V3
 parameters
 s6 scaling factor         :     1.0000 
 rs6 scaling factor        :     1.2810 
 s8 scaling factor         :     1.0000 
 rs8 scaling factor        :     1.0940 
 Damping factor alpha6     :    14.0000 
 Damping factor alpha8     :    16.0000 
 ad hoc parameters k1-k3   :    16.0000     1.3333    -4.0000 

 Edisp/kcal,au: -0.165885678409  -0.000264355627 
 E6   /kcal   :  -0.034837604 
 E8   /kcal   :  -0.131048074 
 % E8         :  78.999028357 

-------------------------   ----------------
Dispersion correction           -0.000264356
-------------------------   ----------------


-------------------------   --------------------
FINAL SINGLE POINT ENERGY      -115.731988678691
-------------------------   --------------------


                            ***************************************
                            *     ORCA property calculations      *
                            ***************************************

                                    ---------------------
                                    Active property flags
                                    ---------------------
   (+) Dipole Moment


------------------------------------------------------------------------------
                       ORCA ELECTRIC PROPERTIES CALCULATION
------------------------------------------------------------------------------

Dipole Moment Calculation                       ... on
Quadrupole Moment Calculation                   ... off
Polarizability Calculation                      ... off
GBWName                                         ... 10-33_DFT_B.gbw
Electron density file                           ... 10-33_DFT_B.scfp.tmp
The origin for moment calculation is the CENTER OF MASS  = ( 3.624337, -5.835582 -16.360765)

-------------
DIPOLE MOMENT
-------------
                                X             Y             Z
Electronic contribution:     -0.22403      -1.66647       0.59982
Nuclear contribution   :     -0.11255       2.26124      -0.41739
                        -----------------------------------------
Total Dipole Moment    :     -0.33658       0.59477       0.18243
                        -----------------------------------------
Magnitude (a.u.)       :      0.70734
Magnitude (Debye)      :      1.79791



--------------------
Rotational spectrum 
--------------------
 
Rotational constants in cm-1:     4.240751     0.801825     0.761262 
Rotational constants in MHz : 127134.528067 24038.113460 22822.051363 

 Dipole components along the rotational axes: 
x,y,z [a.u.] :    -0.378707     0.596801    -0.027099 
x,y,z [Debye]:    -0.962597     1.516948    -0.068881 

 
------------------------------------------------------------------------------
                      ORCA CHELPG CHARGES GENERATION
------------------------------------------------------------------------------

GBW file                           ... 10-33_DFT_B.gbw

Reading the GBW file               ... done

Grid spacing                       ...     0.300000
Point Cut-Off                      ...     2.800000
Van-der-Waals Radii                ...        COSMO
Total charge                       ...            0


Number of points X direction       ...           31
Number of points Y direction       ...           41
Number of points Z direction       ...           32
Maximum number of possible points  ...        40672
Final number of points             ...         5971


CHELPG Charges            
--------------------------------
  0   C   :       0.048117
  1   O   :      -0.225927
  2   H   :       0.182330
  3   H   :      -0.037855
  4   H   :       0.000821
  5   H   :       0.010307
  6   C   :      -0.126605
  7   O   :      -0.538924
  8   H   :       0.402087
  9   H   :       0.066976
 10   H   :       0.095664
 11   H   :       0.123009
--------------------------------
Total charge:    -0.000000
--------------------------------

CHELPG charges calculated...

Timings for individual parts in CHELPG calculation:
Grid generation                 ...        0.001 sec (=   0.000 min)
Potential calculation           ...        1.103 sec (=   0.018 min)
Fit to the potential            ...        0.002 sec (=   0.000 min)
------------------------------------------------------------------------------


Timings for individual modules:

Sum of individual times         ...       15.153 sec (=   0.253 min)
GTO integral calculation        ...        0.634 sec (=   0.011 min)   4.2 %
SCF iterations                  ...       13.382 sec (=   0.223 min)  88.3 %
CHELPG charge generation        ...        1.137 sec (=   0.019 min)   7.5 %



                             ****ORCA TERMINATED NORMALLY****
TOTAL RUN TIME: 0 days 0 hours 1 minutes 3 seconds 675 msec
