LAMMPS data file via vdw_self_gen.py, on 2021-08-05 13:22:25.354920

2500 atoms
3 atom types
2000 bonds
2 bond types
3000 angles
2 angle types

-28.5166786687602816  28.5166786687602816 xlo xhi
-28.5166786687602816  28.5166786687602816 ylo yhi
-28.5166786687602816  28.5166786687602816 zlo zhi

Masses

1  1.007940
2  79.904000
3  12.011000

Atoms

1         0    3   -0.4597670000000000  -15.8906261631870862  9.5838483016541041  -22.3389309508003571 0 0 0
2         0    2   -0.1075030000000000  -15.3852056258280925  8.7599703133489530  -20.6627177939190503 0 0 0
3         0    1    0.1890900000000000  -15.9486160727392630  8.8012991046094076  -23.0968507375818035 0 0 0
4         0    1    0.1890900000000000  -15.1276891871709189  10.3192877015132396 -22.5982638067252140 0 0 0
5         0    1    0.1890900000000000  -16.8608592531865327  10.0633923601414317 -22.2014315339302257 0 0 0
6         1    3   -0.4597670000000000   15.9533258033888483 -3.1762994156174056   22.0330485181429658 0 0 0
7         1    2   -0.1075030000000000   14.7881370232911866 -3.0944914109386801   23.5756301087257789 0 0 0
8         1    1    0.1890900000000000   15.6559727582340180 -4.0349756099592451   21.4293558493057752 0 0 0
9         1    1    0.1890900000000000   16.9785346137614290 -3.2885569412066262   22.3887768041746291 0 0 0
10        1    1    0.1890900000000000   15.8370261034364113 -2.2482758827004212   21.4713835426075050 0 0 0
11        2    3   -0.4597670000000000  -15.8133910168332683 -15.7008198693843113 -9.6189400250269905  0 0 0
12        2    2   -0.1075030000000000  -16.1207145934931049 -17.1927527990929256 -8.4257913507285735  0 0 0
13        2    1    0.1890900000000000  -14.7863171477601849 -15.3609072256271144 -9.4783443612202927  0 0 0
14        2    1    0.1890900000000000  -16.5216915812059142 -14.9114245013423172 -9.3632786594997803  0 0 0
15        2    1    0.1890900000000000  -15.9708819628194245 -16.0470919066652264 -10.6414433847914971 0 0 0
16        3    3   -0.4597670000000000  -3.1798032859388350  -3.3519814814694175  -22.1747234198732386 0 0 0
17        3    2   -0.1075030000000000  -3.0611226255396966  -1.4213977856761237  -22.2264621953160812 0 0 0
18        3    1    0.1890900000000000  -3.9561082541959358  -3.6623276875984159  -22.8755973794413521 0 0 0
19        3    1    0.1890900000000000  -3.4355927123977645  -3.6482447432977438  -21.1563927665966851 0 0 0
20        3    1    0.1890900000000000  -2.2099723823501449  -3.7586475623806748  -22.4650190617292935 0 0 0
21        4    3   -0.4597670000000000  -15.7918450305499469  22.3526476553425688 -3.2045982249773588  0 0 0
22        4    2   -0.1075030000000000  -16.3259648879124022  20.5320624791346695 -2.8249918490520312  0 0 0
23        4    1    0.1890900000000000  -16.5877247217649604  22.8255880104302662 -3.7817389497932581  0 0 0
24        4    1    0.1890900000000000  -14.8637974041365482  22.3207578014765424 -3.7772308390754903  0 0 0
25        4    1    0.1890900000000000  -15.6436642577480374  22.8671388765726036 -2.2540393975242381  0 0 0
26        5    3   -0.4597670000000000   2.9935464129770994   22.1706276261825899 -15.7868073317676014 0 0 0
27        5    2   -0.1075030000000000   4.8348139732675151   22.2654990225345912 -16.3738751268955589 0 0 0
28        5    1    0.1890900000000000   2.6671500765440896   23.1798639150586325 -15.5316681082467447 0 0 0
29        5    1    0.1890900000000000   2.9495605279560793   21.5166041710118243 -14.9147316283992453 0 0 0
30        5    1    0.1890900000000000   2.3975282696775961   21.7656000881690161 -16.6059141068027429 0 0 0
31        6    3   -0.4597670000000000  -22.0457557226435199 -9.6256185056149555  -22.2179896375938952 0 0 0
32        6    2   -0.1075030000000000  -23.4546488152190413 -8.3622476973774482  -21.8144678152765756 0 0 0
33        6    1    0.1890900000000000  -22.0207412387020121 -9.7709369845551990  -23.2989361181708183 0 0 0
34        6    1    0.1890900000000000  -22.2735088780062078 -10.5616221444432288 -21.7059123399887639 0 0 0
35        6    1    0.1890900000000000  -21.1035401683858694 -9.2073724492763045  -21.8608889119266010 0 0 0
36        7    3   -0.4597670000000000   22.3014927792807640 -3.2365014683668765   22.2993878502198193 0 0 0
37        7    2   -0.1075030000000000   21.0192574370822030 -2.5211195190384541   21.0392225434874049 0 0 0
38        7    1    0.1890900000000000   23.2681024513425783 -2.7719009603122950   22.0993863792452885 0 0 0
39        7    1    0.1890900000000000   22.3526853237336205 -4.3165148190546567   22.1539644816417329 0 0 0
40        7    1    0.1890900000000000   21.9566568315174884 -2.9965624936500941   23.3062335683624049 0 0 0
41        8    3   -0.4597670000000000   9.4392153647292307   22.0084056765712539 -3.1778610105155187  0 0 0
42        8    2   -0.1075030000000000   10.1373470073248413  23.8103086295861210 -3.0795077491407734  0 0 0
43        8    1    0.1890900000000000   8.6282387719083609   21.9195616505505839 -2.4535598414310753  0 0 0
44        8    1    0.1890900000000000   10.2495532857645966  21.3179315607986801 -2.9395431144603399  0 0 0
45        8    1    0.1890900000000000   9.0734433515401030   21.8419873054500080 -4.1921275448746691  0 0 0
46        9    3   -0.4597670000000000   9.4907673376894017  -16.0232728156716107  15.8118112007310572 0 0 0
47        9    2   -0.1075030000000000   9.6464408628859850  -14.1220417561667659  16.1358507329288230 0 0 0
48        9    1    0.1890900000000000   9.1638817559343675  -16.4988283477345021  16.7376520245042641 0 0 0
49        9    1    0.1890900000000000   10.4701743594243997 -16.3963517783456965  15.5088731810204035 0 0 0
50        9    1    0.1890900000000000   8.7565334653329820  -16.1725016041933216  15.0188091629273472 0 0 0
51        10   3   -0.4597670000000000  -3.1596825984513153  -16.0030047881456738 -22.2690907255579731 0 0 0
52        10   2   -0.1075030000000000  -3.2527140156253562  -14.3150682971560990 -21.3277454306186627 0 0 0
53        10   1    0.1890900000000000  -4.1198027259594703  -16.5081127819635043 -22.1540962303199365 0 0 0
54        10   1    0.1890900000000000  -2.3555087170511770  -16.5931489099885745 -21.8272403500595296 0 0 0
55        10   1    0.1890900000000000  -2.9548912033350607  -15.7936615248580470 -23.3200220864005452 0 0 0
56        11   3   -0.4597670000000000   16.0101855471061469  22.1063298797113958  9.5242748576298872  0 0 0
57        11   2   -0.1075030000000000   14.2466577098007150  22.8777430264370309  9.3272806175931162  0 0 0
58        11   1    0.1890900000000000   16.4611387123089337  22.0351099097478453  8.5334381216980901  0 0 0
59        11   1    0.1890900000000000   15.8991266969371896  21.1176529341497243  9.9719145559521039  0 0 0
60        11   1    0.1890900000000000   16.5958876359589098  22.7613590729106470  10.1708896283939350 0 0 0
61        12   3   -0.4597670000000000  -15.9344451351132221 -15.8235114532180834 -3.0103754913427636  0 0 0
62        12   2   -0.1075030000000000  -14.9679603079512287 -16.0243214155360505 -4.6745563241850032  0 0 0
63        12   1    0.1890900000000000  -16.7930805712377200 -15.1759230378406613 -3.1935773218474086  0 0 0
64        12   1    0.1890900000000000  -15.2599333351939030 -15.3758077905407387 -2.2790802482330452  0 0 0
65        12   1    0.1890900000000000  -16.2575769526158211 -16.8134326049763523 -2.6850098748141540  0 0 0
66        13   3   -0.4597670000000000   3.0576256630335839   15.9328476389297649 -15.7269819739660193 0 0 0
67        13   2   -0.1075030000000000   4.2245562586671195   14.9831907353426210 -16.9436742756362584 0 0 0
68        13   1    0.1890900000000000   2.1900524420137879   16.2788026992738537 -16.2907374892309740 0 0 0
69        13   1    0.1890900000000000   3.6131972969386545   16.7759822437881887 -15.3138698002283142 0 0 0
70        13   1    0.1890900000000000   2.7571675997692306   15.2421729847774738 -14.9377327630503292 0 0 0
71        14   3   -0.4597670000000000   3.0688342248889500   15.8096172593749582 -22.0286932417186954 0 0 0
72        14   2   -0.1075030000000000   4.1178275287028949   16.1566347998530055 -23.6171224285740813 0 0 0
73        14   1    0.1890900000000000   3.2353600932001658   14.7728255615840531 -21.7328544525529637 0 0 0
74        14   1    0.1890900000000000   2.0191269588191667   15.9796643717854412 -22.2724064041067180 0 0 0
75        14   1    0.1890900000000000   3.4014504548111950   16.4942543095144245 -21.2471182960041922 0 0 0
76        15   3   -0.4597670000000000   3.3114434315860417  -9.6191629494980067   15.8644342640124094 0 0 0
77        15   2   -0.1075030000000000   1.8074827508604130  -8.4236659956340585   15.6346415081794312 0 0 0
78        15   1    0.1890900000000000   4.1973994270310966  -9.0143364580772189   16.0630680174647900 0 0 0
79        15   1    0.1890900000000000   3.4316355288369227  -10.1927295677394767  14.9442317511939038 0 0 0
80        15   1    0.1890900000000000   3.0946381221079151  -10.2779028103183734  16.7066207612613518 0 0 0
81        16   3   -0.4597670000000000  -15.8069380790164793 -9.3888575881387588   22.3171837889028915 0 0 0
82        16   2   -0.1075030000000000  -16.1822211121773485 -10.6169602969226133  20.8698269606814151 0 0 0
83        16   1    0.1890900000000000  -15.5204930062043562 -9.9741825862336189   23.1921308418534728 0 0 0
84        16   1    0.1890900000000000  -16.7117875480268161 -8.8124946646445110   22.5153016559742021 0 0 0
85        16   1    0.1890900000000000  -14.9915565566868967 -8.7353026453276357   22.0037515755446762 0 0 0
86        17   3   -0.4597670000000000  -22.2729659429972671  15.7003980085049566  22.1097925117770657 0 0 0
87        17   2   -0.1075030000000000  -21.2909276967967642  17.1968141624459108  22.8448129085852045 0 0 0
88        17   1    0.1890900000000000  -23.2751560122497239  16.0465448096961119  21.8529152342360504 0 0 0
89        17   1    0.1890900000000000  -22.3155020883916393  14.9178232102644852  22.8687159808395819 0 0 0
90        17   1    0.1890900000000000  -21.7436430825212597  15.3514161112004253  21.2219581875187515 0 0 0
91        18   3   -0.4597670000000000   22.3169024591990599 -9.4008050985524907  -22.2428440637199323 0 0 0
92        18   2   -0.1075030000000000   20.8724877147591812 -10.5031881968760867 -21.5777628979400369 0 0 0
93        18   1    0.1890900000000000   22.5657704529333039 -9.7399870627768426  -23.2494267952624512 0 0 0
94        18   1    0.1890900000000000   23.1691428668380084 -9.5185736266666527  -21.5720129882819904 0 0 0
95        18   1    0.1890900000000000   21.9738913292271043 -8.3652437963950650  -22.2561480777522398 0 0 0
96        19   3   -0.4597670000000000   3.1770170459637508   22.0577101097088395  22.3170099948678136 0 0 0
97        19   2   -0.1075030000000000   3.0875451233884119   23.3407855683957521  20.8714555860384401 0 0 0
98        19   1    0.1890900000000000   2.1998593317188258   21.5811106725049449  22.4075873460576140 0 0 0
99        19   1    0.1890900000000000   3.4327416256771515   22.5951415804310258  23.2313238490818854 0 0 0
100       19   1    0.1890900000000000   3.9454361336742365   21.3234468919160918  22.0708180469109045 0 0 0
101       20   3   -0.4597670000000000   3.0432606902015533  -15.7179509690419099  22.2304581906412970 0 0 0
102       20   2   -0.1075030000000000   4.3613307264861163  -17.0296678371952126  21.6956632357745676 0 0 0
103       20   1    0.1890900000000000   2.1227799259164453  -16.2463923494297298  22.4827543433565431 0 0 0
104       20   1    0.1890900000000000   2.8829948517548565  -15.0380010647570241  21.3924961037364341 0 0 0
105       20   1    0.1890900000000000   3.4322330660634037  -15.1809840816880168  23.0968229494478017 0 0 0
106       21   3   -0.4597670000000000   15.9489774009498397  9.3807930698505224   9.4223329799415705  0 0 0
107       21   2   -0.1075030000000000   14.8295726889884811  10.6937038463697416  10.2981833040486137 0 0 0
108       21   1    0.1890900000000000   16.0729422367270800  8.5352159842165989   10.1004337028003199 0 0 0
109       21   1    0.1890900000000000   16.9107092137678379  9.8473782519996007   9.2042328689541577  0 0 0
110       21   1    0.1890900000000000   15.4507947616786598  9.0707066288306759   8.5026149255224777  0 0 0
111       22   3   -0.4597670000000000   15.9056734224367808 -22.2889112088869297  9.6393163303950882  0 0 0
112       22   2   -0.1075030000000000   15.2418889980782222 -21.1390583141150614  8.2317851709304986  0 0 0
113       22   1    0.1890900000000000   15.4163425655129256 -23.2591841146247305  9.5428058156659361  0 0 0
114       22   1    0.1890900000000000   15.6636189750274042 -21.8259280665501763  10.5970499701934031 0 0 0
115       22   1    0.1890900000000000   16.9854723410565533 -22.3851131187797492  9.5168404940822136  0 0 0
116       23   3   -0.4597670000000000   15.8886949488245683  3.1441683015347310   9.3292307797801843  0 0 0
117       23   2   -0.1075030000000000   15.4036292335564582  3.4003650540639541   11.1847603220847294 0 0 0
118       23   1    0.1890900000000000   15.4996129160641267  2.1768750210688914   9.0080651528076920  0 0 0
119       23   1    0.1890900000000000   16.9770400206384622  3.1677319060845437   9.2574865702645077  0 0 0
120       23   1    0.1890900000000000   15.4440191830282831  3.9534589776702549   8.7482549563300278  0 0 0
121       24   3   -0.4597670000000000   9.5018583637258942  -9.6150049484178464   3.3162278587186802  0 0 0
122       24   2   -0.1075030000000000   9.5407856211398663  -8.4632597555922526   1.7619167296543088  0 0 0
123       24   1    0.1890900000000000   8.6760637640872371  -9.2956442134308350   3.9536135180774261  0 0 0
124       24   1    0.1890900000000000   10.4552881695187860 -9.5135618881947099   3.8366876375280441  0 0 0
125       24   1    0.1890900000000000   9.3538018627953576  -10.6403269756314867  2.9741535164439208  0 0 0
126       25   3   -0.4597670000000000   3.2280154332022368  -15.9903552050235689  15.9344584166261534 0 0 0
127       25   2   -0.1075030000000000   2.6019644361219383  -14.4354742168207242  14.9678557743371385 0 0 0
128       25   1    0.1890900000000000   3.2890931157826149  -15.7295833834846945  16.9920292428037243 0 0 0
129       25   1    0.1890900000000000   4.2105853708492678  -16.2588783191089910  15.5437550441884760 0 0 0
130       25   1    0.1890900000000000   2.5129409044663280  -16.7987051776739129  15.7748978241564011 0 0 0
131       26   3   -0.4597670000000000   16.0173142166076694  15.7856123992057320  15.8486680041017838 0 0 0
132       26   2   -0.1075030000000000   14.1787916383236485  16.3853408658024513  15.7848252128609090 0 0 0
133       26   1    0.1890900000000000   16.5186784149734613  16.3166699003783009  16.6591002033913824 0 0 0
134       26   1    0.1890900000000000   16.4818291490066571  16.0152559088476920  14.8886225851461571 0 0 0
135       26   1    0.1890900000000000   16.0163828832004640  14.7101172278777259  16.0317802966116574 0 0 0
136       27   3   -0.4597670000000000  -15.9437684195588272 -9.5177401626423563  -15.6895434471266348 0 0 0
137       27   2   -0.1075030000000000  -14.8791105515707471 -9.3895739261298452  -17.3001310561840533 0 0 0
138       27   1    0.1890900000000000  -15.3278895754464148 -9.1924863161654731  -14.8498460829967058 0 0 0
139       27   1    0.1890900000000000  -16.2484800882113554 -10.5581000733390145 -15.5670708967235711 0 0 0
140       27   1    0.1890900000000000  -16.8137476673245452 -8.8698973029904540  -15.8064048190809210 0 0 0
141       28   3   -0.4597670000000000  -15.9615765331777464  15.8041930312932113  22.3144685535092400 0 0 0
142       28   2   -0.1075030000000000  -14.7096084645474949  16.2083285847172824  20.8956078076681067 0 0 0
143       28   1    0.1890900000000000  -16.5979515924317589  14.9832980623815946  21.9807820051213163 0 0 0
144       28   1    0.1890900000000000  -16.5536075263765312  16.6997027443105637  22.5087856330046812 0 0 0
145       28   1    0.1890900000000000  -15.3902521855783725  15.5174738794092448  23.1985508236533065 0 0 0
146       29   3   -0.4597670000000000   15.8316430358766915  9.3420798065762547   3.0850693847089512  0 0 0
147       29   2   -0.1075030000000000   15.9468853308458591  11.0623805195405396  3.9632493645108200  0 0 0
148       29   1    0.1890900000000000   14.7788300198626068  9.1294694430836607   2.8938363717460436  0 0 0
149       29   1    0.1890900000000000   16.2641390988755390  8.5929772027580764   3.7498926054551291  0 0 0
150       29   1    0.1890900000000000   16.3914988166511932  9.4008908093085939   2.1505515340014396  0 0 0
151       30   3   -0.4597670000000000   9.5353525968250512  -22.0194928623135233 -15.9278943281269285 0 0 0
152       30   2   -0.1075030000000000   9.2218702313305947  -23.7047491518084001 -15.0303669181042849 0 0 0
153       30   1    0.1890900000000000   9.6556917131650462  -22.2206494449215697 -16.9933721575311623 0 0 0
154       30   1    0.1890900000000000   10.4419298002295786 -21.5778019081194294 -15.5116920387887536 0 0 0
155       30   1    0.1890900000000000   8.6729534397168759  -21.3755014557937244 -15.7496708595607693 0 0 0
156       31   3   -0.4597670000000000   16.0074773586151160  15.8794216731314890 -15.7700115853347551 0 0 0
157       31   2   -0.1075030000000000   14.2724353394321000  15.4919153916745351 -16.5338070291551027 0 0 0
158       31   1    0.1890900000000000   16.2134484549862243  15.1329148275710992 -15.0015768674886942 0 0 0
159       31   1    0.1890900000000000   15.9713431417531808  16.8807032643840778 -15.3383555141502246 0 0 0
160       31   1    0.1890900000000000   16.7482920073252757  15.8280411453506975 -16.5692453059831024 0 0 0
161       32   3   -0.4597670000000000  -3.1586103038918649   15.8249838548327020  9.6883193610698299  0 0 0
162       32   2   -0.1075030000000000  -3.2628689824996542   16.0102990131610454  7.7651179086658733  0 0 0
163       32   1    0.1890900000000000  -2.3271940555856614   15.1575404073836104  9.9195221835216856  0 0 0
164       32   1    0.1890900000000000  -4.1023120003655746   15.4051985284720843  10.0396096374011830 0 0 0
165       32   1    0.1890900000000000  -2.9916139180796266   16.8149744982624370  10.1152286906085731 0 0 0
166       33   3   -0.4597670000000000  -9.4045748588090241   22.0627129151737122 -22.2793387026333711 0 0 0
167       33   2   -0.1075030000000000  -10.4672802086884857  23.2931412882253319 -21.2302349114729800 0 0 0
168       33   1    0.1890900000000000  -9.4791151017266166   22.3589588515860918 -23.3266545938261558 0 0 0
169       33   1    0.1890900000000000  -9.8042913687123789   21.0585344630577325 -22.1308468900084208 0 0 0
170       33   1    0.1890900000000000  -8.3725362433306358   22.1248473049137679 -21.9311197250157370 0 0 0
171       34   3   -0.4597670000000000  -3.2756548666888552  -9.5358573786354643   9.3592250814341753  0 0 0
172       34   2   -0.1075030000000000  -2.1482206897280851  -9.2170207968302940   10.8990792359642636 0 0 0
173       34   1    0.1890900000000000  -2.6535031448302568  -9.9486789435054561   8.5638043945227320  0 0 0
174       34   1    0.1890900000000000  -3.7116012031733616  -8.5829445045424322   9.0557365042298574  0 0 0
175       34   1    0.1890900000000000  -4.0536193560018203  -10.2432961577534805  9.6499525651160880  0 0 0
176       35   3   -0.4597670000000000   9.6398838289459281  -3.1498472423151855  -15.7184301365387213 0 0 0
177       35   2   -0.1075030000000000   8.2263738069489136  -3.3462836984644739  -17.0250737539453567 0 0 0
178       35   1    0.1890900000000000   9.4401894975508860  -2.2488878092693252  -15.1365514957429212 0 0 0
179       35   1    0.1890900000000000   10.5864265697165827 -3.0638680216304430  -16.2540250244015816 0 0 0
180       35   1    0.1890900000000000   9.6349240781048415  -4.0337124887429363  -15.0789158914833088 0 0 0
181       36   3   -0.4597670000000000   22.0669813320564465  9.5408139537834238  -9.6465383958089888  0 0 0
182       36   2   -0.1075030000000000   23.2524770391097704  9.1697732408867143  -8.1630141713922679  0 0 0
183       36   1    0.1890900000000000   21.3052617299089313  8.7603107091998940  -9.6745814252246873  0 0 0
184       36   1    0.1890900000000000   22.6596421927926173  9.5375479814229980  -10.5624750246081707 0 0 0
185       36   1    0.1890900000000000   21.6138325290888851  10.5193518959740953 -9.4811887642330426  0 0 0
186       37   3   -0.4597670000000000   15.9624178544748219  9.4784028731652459   22.3164441801313238 0 0 0
187       37   2   -0.1075030000000000   14.7015770644570605  9.7642281145398222   20.8768262307709591 0 0 0
188       37   1    0.1890900000000000   16.1215260523895445  10.4322493478754748  22.8214688950108986 0 0 0
189       37   1    0.1890900000000000   16.8929568595124557  9.1089400821102195   21.8830945793129921 0 0 0
190       37   1    0.1890900000000000   15.5345184712780338  8.7439773635763789   23.0003609377304734 0 0 0
191       38   3   -0.4597670000000000   9.4878305779422334   16.0029709546303920 -15.7544162068299034 0 0 0
192       38   2   -0.1075030000000000   9.6744371914750644   14.3153532684673657 -16.6823385762313308 0 0 0
193       38   1    0.1890900000000000   10.4730799515500976  16.3015543009498352 -15.3934174039150058 0 0 0
194       38   1    0.1890900000000000   8.7975560234255372   15.8572178876438201 -14.9222656475854887 0 0 0
195       38   1    0.1890900000000000   9.0948940368741997   16.7358998904204839 -16.4605584675501397 0 0 0
196       39   3   -0.4597670000000000   16.0044602919867316 -15.9285180645882676  3.1836398212520467  0 0 0
197       39   2   -0.1075030000000000   14.3011703407893478 -15.0244221950891408  3.0244876695083924  0 0 0
198       39   1    0.1890900000000000   16.2996797717815944 -16.2715753651894133  2.1909940506702643  0 0 0
199       39   1    0.1890900000000000   15.8777300062270204 -16.7720278682388617  3.8638075330824506  0 0 0
200       39   1    0.1890900000000000   16.7299558913272044 -15.2164528090062383  3.5796701859092277  0 0 0
201       40   3   -0.4597670000000000   22.3464130948688364  3.1339849316377184  -15.7732928634887717 0 0 0
202       40   2   -0.1075030000000000   20.5914123427077271  3.4973709697859681  -16.5025653459621360 0 0 0
203       40   1    0.1890900000000000   22.3002380851973250  2.1852058353862289  -15.2367534207652788 0 0 0
204       40   1    0.1890900000000000   22.6076452627189326  3.9495421629324179  -15.0974070540776903 0 0 0
205       40   1    0.1890900000000000   23.0524860374638365  3.0764953606800511  -16.6029776178179880 0 0 0
206       41   3   -0.4597670000000000  -9.5204560436748267   15.6631435238942576  3.2057136849826149  0 0 0
207       41   2   -0.1075030000000000  -9.3637498257727003   17.5515685216438584  2.8142937114947575  0 0 0
208       41   1    0.1890900000000000  -10.0924092994855279  15.1971618775985640  2.4020227885036967  0 0 0
209       41   1    0.1890900000000000  -10.0365289171871108  15.5571269964691137  4.1610286882864971  0 0 0
210       41   1    0.1890900000000000  -8.5146536951469951   15.2439953825060890  3.2595403871548250  0 0 0
211       42   3   -0.4597670000000000  -15.8943100407415887  15.6843949564521044 -15.7644516992316390 0 0 0
212       42   2   -0.1075030000000000  -15.3501375523949406  17.3491623828368304 -16.5868513134551598 0 0 0
213       42   1    0.1890900000000000  -15.2502973935458233  14.8913407851037647 -16.1472065426482736 0 0 0
214       42   1    0.1890900000000000  -16.9362393399065212  15.5002118625768848 -16.0302662847461121 0 0 0
215       42   1    0.1890900000000000  -15.7820119755230355  15.7878863151422912 -14.6842204620307228 0 0 0
216       43   3   -0.4597670000000000  -15.9672696910115359 -9.6121380510090457  -9.4224454412768388  0 0 0
217       43   2   -0.1075030000000000  -14.6553753508421138 -8.4905585460471240  -10.2970356657710358 0 0 0
218       43   1    0.1890900000000000  -16.8734761129968156 -9.0224656179837464  -9.2766208168725512  0 0 0
219       43   1    0.1890900000000000  -15.5544120524794955 -9.9322091810587203  -8.4646873755762790  0 0 0
220       43   1    0.1890900000000000  -16.1624630947819377 -10.4704263851684978 -10.0670084817704044 0 0 0
221       44   3   -0.4597670000000000   9.4177093546494497  -9.5529684255965108  -3.0141035669920297  0 0 0
222       44   2   -0.1075030000000000   10.3421731378625292 -9.0541364788806291  -4.6390493534609210  0 0 0
223       44   1    0.1890900000000000   9.8636700399846955  -10.4759047824046672 -2.6406118977181423  0 0 0
224       44   1    0.1890900000000000   8.3642624691456717  -9.7012840698737701  -3.2558670867484625  0 0 0
225       44   1    0.1890900000000000   9.5399827796247703  -8.7435040245115783  -2.2929673555028227  0 0 0
226       45   3   -0.4597670000000000  -22.2170586388345370  9.6350291670278789  -9.6306476683242579  0 0 0
227       45   2   -0.1075030000000000  -21.8232894146204686  8.2726502518097860  -8.3142947916490773  0 0 0
228       45   1    0.1890900000000000  -21.7766072195043172  10.5729383971353226 -9.2893013604648562  0 0 0
229       45   1    0.1890900000000000  -23.3013572983136044  9.7229389557156001  -9.7129018870901440  0 0 0
230       45   1    0.1890900000000000  -21.7798822516837447  9.3242410095785644  -10.5806520737387970 0 0 0
231       46   3   -0.4597670000000000   22.3438925931394152 -9.5791824491034614  -3.2060706586427887  0 0 0
232       46   2   -0.1075030000000000   20.6154623323082831 -8.8043909201846589  -2.8109221717939996  0 0 0
233       46   1    0.1890900000000000   23.1107305395371299 -8.9331348676426394  -2.7762211907436787  0 0 0
234       46   1    0.1890900000000000   22.4488646331231365 -9.6373835415346427  -4.2904096158242977  0 0 0
235       46   1    0.1890900000000000   22.3792447248486965 -10.5737060028017247 -2.7589756234176357  0 0 0
236       47   3   -0.4597670000000000  -3.3259981888587311   15.7920723636206368 -3.2488768932345828  0 0 0
237       47   2   -0.1075030000000000  -1.6688354350415198   16.3237178772446754 -2.4032528268171300  0 0 0
238       47   1    0.1890900000000000  -3.7867636097998116   15.0178080736696842 -2.6337358404899893  0 0 0
239       47   1    0.1890900000000000  -3.0910826036260177   15.4090425507809190 -4.2430098323784140  0 0 0
240       47   1    0.1890900000000000  -3.9699194230962958   16.6703554367959583 -3.3137238675022784  0 0 0
241       48   3   -0.4597670000000000  -9.3728820235713162   22.0553928967882484 -3.1407847682940977  0 0 0
242       48   2   -0.1075030000000000  -10.7690622964817795  23.3628513786199115 -3.4325867050973158  0 0 0
243       48   1    0.1890900000000000  -9.5666432128422567   21.5600849814979867 -2.1882538505895237  0 0 0
244       48   1    0.1890900000000000  -8.4168761902840572   22.5804754043492864 -3.1175753440410610  0 0 0
245       48   1    0.1890900000000000  -9.4023340580877068   21.3393901617012283 -3.9633985924003676  0 0 0
246       49   3   -0.4597670000000000  -3.2497144737918977  -3.1497843415072468  -3.0046111519944589  0 0 0
247       49   2   -0.1075030000000000  -2.3953476217174670  -3.3469534611229079  -4.7294581095087818  0 0 0
248       49   1    0.1890900000000000  -4.0879729275817205  -3.8466042611714188  -2.9604156453325223  0 0 0
249       49   1    0.1890900000000000  -3.5966386852436041  -2.1193865820275466  -2.9144916803591006  0 0 0
250       49   1    0.1890900000000000  -2.5129255520877081  -3.3798706145932411  -2.2336226732275164  0 0 0
251       50   3   -0.4597670000000000   3.1043821162646061  -15.7172663566077393 -15.9608687069472133 0 0 0
252       50   2   -0.1075030000000000   3.7793355509808628  -17.0361804092176499 -14.7163531428449250 0 0 0
253       50   1    0.1890900000000000   2.9785842816828270  -16.2003410499250968 -16.9309213983464311 0 0 0
254       50   1    0.1890900000000000   3.8318732326470322  -14.9066247406186125 -16.0226288592397808 0 0 0
255       50   1    0.1890900000000000   2.1484240788470692  -15.3525837457427841 -15.5822241947335538 0 0 0
256       51   3   -0.4597670000000000   3.3046891278223716   3.0458106394744520   9.5200518094131201  0 0 0
257       51   2   -0.1075030000000000   1.8717946042641267   4.3371214596972916   9.3675885140525139  0 0 0
258       51   1    0.1890900000000000   3.6735140473487231   3.0690158849794753   10.5465108558038771 0 0 0
259       51   1    0.1890900000000000   4.0911483639480721   3.3284604652337837   8.8187755326784707  0 0 0
260       51   1    0.1890900000000000   2.9014531170391065   2.0621908110373877   9.2748710693191505  0 0 0
261       52   3   -0.4597670000000000   3.2169511890659597  -22.0305663571800530  22.0835067055219163 0 0 0
262       52   2   -0.1075030000000000   2.7073081853479062  -23.5992385921533092  23.0951621975177090 0 0 0
263       52   1    0.1890900000000000   3.8760078986180186  -21.4248950296636735  22.7072013224771645 0 0 0
264       52   1    0.1890900000000000   2.3090205128650010  -21.4810529399908461  21.8307333644783554 0 0 0
265       52   1    0.1890900000000000   3.7333114745254781  -22.3624419039687474  21.1815912329615124 0 0 0
266       53   3   -0.4597670000000000   22.1683208563505758 -15.7001504231368649 -3.2842344885737966  0 0 0
267       53   2   -0.1075030000000000   22.2874747949237850 -17.1991338818178647 -2.0665455562009853  0 0 0
268       53   1    0.1890900000000000   23.1718453926073629 -15.4829079165574282 -3.6529249780981119  0 0 0
269       53   1    0.1890900000000000   21.7642398538723256 -14.8487988632785015 -2.7345832033365864  0 0 0
270       53   1    0.1890900000000000   21.5063139252026083 -15.9820052173212090 -4.1043110342128859  0 0 0
271       54   3   -0.4597670000000000   3.0993547260518777  -3.1054312267464561   9.3473013539072181  0 0 0
272       54   2   -0.1075030000000000   3.8272154016520687  -3.7693561334169092   11.0126355431069296 0 0 0