
                                 *****************
                                 * O   R   C   A *
                                 *****************

           --- An Ab Initio, DFT and Semiempirical electronic structure package ---

                  #######################################################
                  #                        -***-                        #
                  #          Department of theory and spectroscopy      #
                  #               Directorship: Frank Neese             #
                  #        Max Planck Institute fuer Kohlenforschung    #
                  #                Kaiser Wilhelm Platz 1               #
                  #                 D-45470 Muelheim/Ruhr               #
                  #                      Germany                        #
                  #                                                     #
                  #                  All rights reserved                #
                  #                        -***-                        #
                  #######################################################


                         Program Version 4.1.2  - RELEASE  -


 With contributions from (in alphabetic order):
   Daniel Aravena         : Magnetic Properties
   Michael Atanasov       : Ab Initio Ligand Field Theory
   Alexander A. Auer      : GIAO ZORA
   Ute Becker             : Parallelization
   Giovanni Bistoni       : ED, Open-shell LED
   Martin Brehm           : Molecular dynamics
   Dmytro Bykov           : SCF Hessian
   Vijay G. Chilkuri      : MRCI spin determinant printing
   Dipayan Datta          : RHF DLPNO-CCSD density
   Achintya Kumar Dutta   : EOM-CC, STEOM-CC
   Dmitry Ganyushin       : Spin-Orbit,Spin-Spin,Magnetic field MRCI
   Miquel Garcia          : C-PCM Hessian
   Yang Guo               : DLPNO-NEVPT2, CIM, IAO-localization
   Andreas Hansen         : Spin unrestricted coupled pair/coupled cluster methods
   Benjamin Helmich-Paris : CASSCF linear response (MC-RPA)
   Lee Huntington         : MR-EOM, pCC
   Robert Izsak           : Overlap fitted RIJCOSX, COSX-SCS-MP3, EOM
   Christian Kollmar      : KDIIS, OOCD, Brueckner-CCSD(T), CCSD density
   Simone Kossmann        : Meta GGA functionals, TD-DFT gradient, OOMP2, MP2 Hessian
   Martin Krupicka        : AUTO-CI
   Lucas Lang             : DCDCAS
   Dagmar Lenk            : GEPOL surface, SMD
   Dimitrios Liakos       : Extrapolation schemes; parallel MDCI
   Dimitrios Manganas     : ROCIS; embedding schemes
   Dimitrios Pantazis     : SARC Basis sets
   Taras Petrenko         : DFT Hessian,TD-DFT gradient, ASA, ECA, R-Raman, ABS, FL, XAS/XES, NRVS
   Peter Pinski           : DLPNO-MP2, DLPNO-MP2 Gradient
   Christoph Reimann      : Effective Core Potentials
   Marius Retegan         : Local ZFS, SOC
   Christoph Riplinger    : Optimizer, TS searches, QM/MM, DLPNO-CCSD(T), (RO)-DLPNO pert. Triples
   Tobias Risthaus        : Range-separated hybrids, TD-DFT gradient, RPA, STAB
   Michael Roemelt        : Restricted open shell CIS
   Masaaki Saitow         : Open-shell DLPNO
   Barbara Sandhoefer     : DKH picture change effects
   Avijit Sen             : IP-ROCIS
   Kantharuban Sivalingam : CASSCF convergence, NEVPT2, FIC-MRCI
   Bernardo de Souza      : ESD, SOC TD-DFT
   Georgi Stoychev        : AutoAux, RI-MP2 NMR
   Willem Van den Heuvel  : Paramagnetic NMR
   Boris Wezisla          : Elementary symmetry handling
   Frank Wennmohs         : Technical directorship


 We gratefully acknowledge several colleagues who have allowed us to
 interface, adapt or use parts of their codes:
   Stefan Grimme, W. Hujo, H. Kruse,             : VdW corrections, initial TS optimization,
                  C. Bannwarth                     DFT functionals, gCP, sTDA/sTD-DF
   Ed Valeev                                     : LibInt (2-el integral package), F12 methods
   Garnet Chan, S. Sharma, J. Yang, R. Olivares  : DMRG
   Ulf Ekstrom                                   : XCFun DFT Library
   Mihaly Kallay                                 : mrcc  (arbitrary order and MRCC methods)
   Andreas Klamt, Michael Diedenhofen            : otool_cosmo (COSMO solvation model)
   Jiri Pittner, Ondrej Demel                    : Mk-CCSD
   Frank Weinhold                                : gennbo (NPA and NBO analysis)
   Christopher J. Cramer and Donald G. Truhlar   : smd solvation model
   Lars Goerigk                                  : TD-DFT with DH, B97 family of functionals
   V. Asgeirsson, H. Jonsson                     : NEB implementation
   FAccTs GmbH                                   : IRC, NEB, NEB-TS, Multilevel


 Your calculation uses the libint2 library for the computation of 2-el integrals
 For citations please refer to: http://libint.valeyev.net

 This ORCA versions uses:
   CBLAS   interface :  Fast vector & matrix operations
   LAPACKE interface :  Fast linear algebra routines
   SCALAPACK package :  Parallel linear algebra routines


Your calculation utilizes the atom-pairwise dispersion correction
with the zero-damping scheme (D30)
Cite in your paper:
S.Grimme, J.Antony, S.Ehrlich and H.Krieg, J.Chem.Phys., 132, (2010), 154104 
   

XCFun DFT library Copyright 2009-2010 Ulf Ekstrom and contributors.
See http://admol.org/xcfun for more information. This is free soft-
ware; see the source code for copying conditions. There is ABSOLUTELY
NO WARRANTY; not even for MERCHANTABILITY or FITNESS FOR A PARTICULAR
PURPOSE. For details see the documentation. Scientific users of this 
library should cite U. Ekstrom, L. Visscher, R. Bast, A. J. Thorvald-
sen and K. Ruud; J.Chem.Theor.Comp. 2010, DOI: 10.1021/ct100117s
XCFun Version 0.99 
----- Orbital basis set information -----
Your calculation utilizes the basis: def2-TZVP
   F. Weigend and R. Ahlrichs, Phys. Chem. Chem. Phys. 7, 3297 (2005).

================================================================================
                                        WARNINGS
                       Please study these warnings very carefully!
================================================================================


INFO   : the flag for use of LIBINT has been found!

================================================================================
                                       INPUT FILE
================================================================================
NAME = 25.in
|  1> #Run DFT-D3 single point of the dimer
|  2> ! wB97X-D3 def2-TZVP TIGHTSCF  CHELPG PAL8
|  3> 
|  4> %base "25_charges"
|  5> 
|  6> %scf
|  7> MaxIter 1000
|  8> end
|  9> %output
| 10>   Print[ P_Mayer ] 1
| 11>   Print[ P_NatPop ] 1
| 12>   Print[ P_Hirshfeld ] 1
| 13>   Print[ P_Mulliken ] 1
| 14>   Print [ P_Loewdin ] 1
| 15> end
| 16> 
| 17> * xyz 0 1
| 18>   C                      -9.568668            -2.562127            3.226594            
| 19>   O                      -10.668221           -2.241973            2.439989            
| 20>   H                      -10.878699           -3.028132            1.881909            
| 21>   H                      -9.739475            -3.479929            3.794011            
| 22>   H                      -8.719056            -2.807948            2.581830            
| 23>   H                      -9.111186            -1.768636            3.839962            
| 24> *
| 25> 
| 26>                          ****END OF INPUT****
================================================================================

                       ****************************
                       * Single Point Calculation *
                       ****************************

---------------------------------
CARTESIAN COORDINATES (ANGSTROEM)
---------------------------------
  C     -9.568668   -2.562127    3.226594
  O    -10.668221   -2.241973    2.439989
  H    -10.878699   -3.028132    1.881909
  H     -9.739475   -3.479929    3.794011
  H     -8.719056   -2.807948    2.581830
  H     -9.111186   -1.768636    3.839962

----------------------------
CARTESIAN COORDINATES (A.U.)
----------------------------
  NO LB      ZA    FRAG     MASS         X           Y           Z
   0 C     6.0000    0    12.011  -18.082162   -4.841718    6.097379
   1 O     8.0000    0    15.999  -20.160016   -4.236715    4.610911
   2 H     1.0000    0     1.008  -20.557762   -5.722340    3.556293
   3 H     1.0000    0     1.008  -18.404940   -6.576113    7.169642
   4 H     1.0000    0     1.008  -16.476628   -5.306253    4.878952
   5 H     1.0000    0     1.008  -17.217646   -3.342238    7.256477

--------------------------------
INTERNAL COORDINATES (ANGSTROEM)
--------------------------------
 C      0   0   0     0.000000000000     0.00000000     0.00000000
 O      1   0   0     1.389338982952     0.00000000     0.00000000
 H      2   1   0     0.986813177945   107.78308119     0.00000000
 H      1   2   3     1.092473154975   111.34098077   305.89837058
 H      1   2   3     1.094526897925   109.42446139    60.06875874
 H      1   2   3     1.102333003601   118.52934754   173.24831721

---------------------------
INTERNAL COORDINATES (A.U.)
---------------------------
 C      0   0   0     0.000000000000     0.00000000     0.00000000
 O      1   0   0     2.625470184960     0.00000000     0.00000000
 H      2   1   0     1.864806651660   107.78308119     0.00000000
 H      1   2   3     2.064475071564   111.34098077   305.89837058
 H      1   2   3     2.068356083288   109.42446139    60.06875874
 H      1   2   3     2.083107485190   118.52934754   173.24831721

---------------------
BASIS SET INFORMATION
---------------------
There are 3 groups of distinct atoms

 Group   1 Type C   : 11s6p2d1f contracted to 5s3p2d1f pattern {62111/411/11/1}
 Group   2 Type O   : 11s6p2d1f contracted to 5s3p2d1f pattern {62111/411/11/1}
 Group   3 Type H   : 5s1p contracted to 3s1p pattern {311/1}

Atom   0C    basis set group =>   1
Atom   1O    basis set group =>   2
Atom   2H    basis set group =>   3
Atom   3H    basis set group =>   3
Atom   4H    basis set group =>   3
Atom   5H    basis set group =>   3


           ************************************************************
           *        Program running with 8 parallel MPI-processes     *
           *              working on a common directory               *
           ************************************************************
------------------------------------------------------------------------------
                           ORCA GTO INTEGRAL CALCULATION
------------------------------------------------------------------------------

                         BASIS SET STATISTICS AND STARTUP INFO

 # of primitive gaussian shells          ...   64
 # of primitive gaussian functions       ...  124
 # of contracted shells                  ...   38
 # of contracted basis functions         ...   86
 Highest angular momentum                ...    3
 Maximum contraction depth               ...    6
 Integral package used                   ... LIBINT
 Integral threshhold            Thresh   ...  2.500e-11
 Primitive cut-off              TCut     ...  2.500e-12


------------------------------ INTEGRAL EVALUATION ----------------------------


 * One electron integrals 
 Pre-screening matrix                    ... done
 Shell pair data                         ... done (   0.000 sec)



           ************************************************************
           *        Program running with 8 parallel MPI-processes     *
           *              working on a common directory               *
           ************************************************************
-------------------------------------------------------------------------------
                                 ORCA SCF
-------------------------------------------------------------------------------

------------
SCF SETTINGS
------------
Hamiltonian:
 Density Functional     Method          .... DFT(GTOs)
 Exchange Functional    Exchange        .... WB97X-D3
 Correlation Functional Correlation     .... WB97X-D3
 Gradients option       PostSCFGGA      .... off
 Hybrid DFT is turned on
   Fraction HF Exchange ScalHFX         ....  0.195728
   Scaling of DF-GGA-X  ScalDFX         ....  0.000000
   Scaling of DF-GGA-C  ScalDFC         ....  1.000000
   Scaling of DF-LDA-C  ScalLDAC        ....  1.000000
   Perturbative correction              ....  0.000000
   Density functional embedding theory  .... OFF
 Long-range corrected/Screened/Range-Separated Hybrid DFT is turned on
   Amount of maximum screened exact exchange              ....  0.804272
   Range separation parameter mu (erf(mu*r12)/r12)        ....  0.250000


General Settings:
 Integral files         IntName         .... 25_charges
 Hartree-Fock type      HFTyp           .... RHF
 Total Charge           Charge          ....    0
 Multiplicity           Mult            ....    1
 Number of Electrons    NEL             ....   18
 Basis Dimension        Dim             ....   86
 Nuclear Repulsion      ENuc            ....     40.5718192750 Eh

Convergence Acceleration:
 DIIS                   CNVDIIS         .... on
   Start iteration      DIISMaxIt       ....    12
   Startup error        DIISStart       ....  0.200000
   # of expansion vecs  DIISMaxEq       ....     5
   Bias factor          DIISBfac        ....   1.050
   Max. coefficient     DIISMaxC        ....  10.000
 Newton-Raphson         CNVNR           .... off
 SOSCF                  CNVSOSCF        .... on
   Start iteration      SOSCFMaxIt      ....   150
   Startup grad/error   SOSCFStart      ....  0.003300
 Level Shifting         CNVShift        .... on
   Level shift para.    LevelShift      ....    0.2500
   Turn off err/grad.   ShiftErr        ....    0.0010
 Zerner damping         CNVZerner       .... off
 Static damping         CNVDamp         .... on
   Fraction old density DampFac         ....    0.7000
   Max. Damping (<1)    DampMax         ....    0.9800
   Min. Damping (>=0)   DampMin         ....    0.0000
   Turn off err/grad.   DampErr         ....    0.1000
 Fernandez-Rico         CNVRico         .... off

SCF Procedure:
 Maximum # iterations   MaxIter         ....  1000
 SCF integral mode      SCFMode         .... Direct
   Integral package                     .... LIBINT
 Reset frequency        DirectResetFreq ....    20
 Integral Threshold     Thresh          ....  2.500e-11 Eh
 Primitive CutOff       TCut            ....  2.500e-12 Eh

Convergence Tolerance:
 Convergence Check Mode ConvCheckMode   .... Total+1el-Energy
 Convergence forced     ConvForced      .... 0
 Energy Change          TolE            ....  1.000e-08 Eh
 1-El. energy change                    ....  1.000e-05 Eh
 Orbital Gradient       TolG            ....  1.000e-05
 Orbital Rotation angle TolX            ....  1.000e-05
 DIIS Error             TolErr          ....  5.000e-07


Diagonalization of the overlap matrix:
Smallest eigenvalue                        ... 1.653e-03
Time for diagonalization                   ...    0.002 sec
Threshold for overlap eigenvalues          ... 1.000e-08
Number of eigenvalues below threshold      ... 0
Time for construction of square roots      ...    0.005 sec
Total time needed                          ...    0.007 sec

-------------------
DFT GRID GENERATION
-------------------

General Integration Accuracy     IntAcc      ...  4.340
Radial Grid Type                 RadialGrid  ... Gauss-Chebyshev
Angular Grid (max. acc.)         AngularGrid ... Lebedev-110
Angular grid pruning method      GridPruning ... 3 (G Style)
Weight generation scheme         WeightScheme... Becke
Basis function cutoff            BFCut       ...    1.0000e-11
Integration weight cutoff        WCut        ...    1.0000e-14
Grids for H and He will be reduced by one unit

# of grid points (after initial pruning)     ...   6548 (   0.0 sec)
# of grid points (after weights+screening)   ...   6404 (   0.0 sec)
nearest neighbour list constructed           ...    0.0 sec
Grid point re-assignment to atoms done       ...    0.0 sec
Grid point division into batches done        ...    0.0 sec
Reduced shell lists constructed in    0.0 sec

Total number of grid points                  ...     6404
Total number of batches                      ...      103
Average number of points per batch           ...       62
Average number of grid points per atom       ...     1067
Average number of shells per batch           ...    31.43 (82.71%)
Average number of basis functions per batch  ...    71.57 (83.22%)
Average number of large shells per batch     ...    30.50 (97.05%)
Average number of large basis fcns per batch ...    70.21 (98.10%)
Maximum spatial batch extension              ...  17.98, 16.61, 13.22 au
Average spatial batch extension              ...   0.46,  0.44,  0.40 au

Time for grid setup =    0.093 sec

------------------------------
INITIAL GUESS: MODEL POTENTIAL
------------------------------
Loading Hartree-Fock densities                     ... done
Calculating cut-offs                               ... done
Setting up the integral package                    ... done
Initializing the effective Hamiltonian             ... done
Starting the Coulomb interaction                   ... done (   0.0 sec)
Reading the grid                                   ... done
Mapping shells                                     ... done
Starting the XC term evaluation                    ... done (   0.2 sec)
  promolecular density results
     # of electrons  =     17.998070794
     EX              =    -14.430514937
     EC              =     -0.575752093
     EX+EC           =    -15.006267031
Transforming the Hamiltonian                       ... done (   0.1 sec)
Diagonalizing the Hamiltonian                      ... done (   0.0 sec)
Back transforming the eigenvectors                 ... done (   0.0 sec)
Now organizing SCF variables                       ... done
                      ------------------
                      INITIAL GUESS DONE (   0.7 sec)
                      ------------------
--------------
SCF ITERATIONS
--------------
ITER       Energy         Delta-E        Max-DP      RMS-DP      [F,P]     Damp
               ***  Starting incremental Fock matrix formation  ***
  0   -115.6423175837   0.000000000000 0.03633868  0.00148627  0.2484604 0.7000
  1   -115.6795541470  -0.037236563317 0.02183811  0.00105425  0.1244554 0.7000
                               ***Turning on DIIS***
  2   -115.6967019800  -0.017147832949 0.03159847  0.00190865  0.0485912 0.0000
  3   -115.7245400624  -0.027838082457 0.01684989  0.00069472  0.0594025 0.0000
  4   -115.7291386124  -0.004598549968 0.00393151  0.00013301  0.0059287 0.0000
                      *** Initiating the SOSCF procedure ***
                           *** Shutting down DIIS ***
                      *** Re-Reading the Fockian *** 
                      *** Removing any level shift *** 
ITER      Energy       Delta-E        Grad      Rot      Max-DP    RMS-DP
  5   -115.72922774  -0.0000891261  0.000502  0.000502  0.000726  0.000046
               *** Restarting incremental Fock matrix formation ***
  6   -115.72923624  -0.0000085000  0.000147  0.000190  0.000445  0.000028
  7   -115.72923700  -0.0000007607  0.000050  0.000113  0.000216  0.000013
  8   -115.72923705  -0.0000000532  0.000042  0.000026  0.000044  0.000002
  9   -115.72923707  -0.0000000204  0.000009  0.000010  0.000017  0.000001
 10   -115.72923707  -0.0000000011  0.000003  0.000003  0.000005  0.000000
                  ***Gradient check signals convergence***
              ***Rediagonalizing the Fockian in SOSCF/NRSCF***

               *****************************************************
               *                     SUCCESS                       *
               *           SCF CONVERGED AFTER  11 CYCLES          *
               *****************************************************

Setting up the final grid:

General Integration Accuracy     IntAcc      ...  4.670
Radial Grid Type                 RadialGrid  ... Gauss-Chebyshev
Angular Grid (max. acc.)         AngularGrid ... Lebedev-302
Angular grid pruning method      GridPruning ... 3 (G Style)
Weight generation scheme         WeightScheme... Becke
Basis function cutoff            BFCut       ...    1.0000e-11
Integration weight cutoff        WCut        ...    1.0000e-14
Grids for H and He will be reduced by one unit

# of grid points (after initial pruning)     ...  26000 (   0.0 sec)
# of grid points (after weights+screening)   ...  25202 (   0.1 sec)
nearest neighbour list constructed           ...    0.0 sec
Grid point re-assignment to atoms done       ...    0.0 sec
Grid point division into batches done        ...    0.1 sec
Reduced shell lists constructed in    0.2 sec

Total number of grid points                  ...    25202
Total number of batches                      ...      397
Average number of points per batch           ...       63
Average number of grid points per atom       ...     4200
Average number of shells per batch           ...    31.16 (81.99%)
Average number of basis functions per batch  ...    71.31 (82.92%)
Average number of large shells per batch     ...    29.65 (95.15%)
Average number of large basis fcns per batch ...    68.55 (96.12%)
Maximum spatial batch extension              ...  15.65, 16.73, 14.74 au
Average spatial batch extension              ...   0.31,  0.32,  0.32 au

Final grid set up in    0.3 sec
Final integration                            ... done (   0.3 sec)
Change in XC energy                          ...    -0.000317431
Integrated number of electrons               ...    17.999986270
Previous integrated no of electrons          ...    18.001027339

----------------
TOTAL SCF ENERGY
----------------

Total Energy       :         -115.72955451 Eh           -3149.16128 eV

Components:
Nuclear Repulsion  :           40.57181927 Eh            1104.01533 eV
Electronic Energy  :         -156.30137378 Eh           -4253.17661 eV
One Electron Energy:         -237.54677143 Eh           -6463.97627 eV
Two Electron Energy:           81.24539765 Eh            2210.79966 eV

Virial components:
Potential Energy   :         -230.95828313 Eh           -6284.69439 eV
Kinetic Energy     :          115.22872863 Eh            3135.53311 eV
Virial Ratio       :            2.00434636


DFT components:
N(Alpha)           :        8.999993135066 electrons
N(Beta)            :        8.999993135066 electrons
N(Total)           :       17.999986270132 electrons
E(XC)              :      -10.650504866403 Eh       
DFET-embed. en.    :        0.000000000000 Eh       

---------------
SCF CONVERGENCE
---------------

  Last Energy change         ...   -1.9330e-10  Tolerance :   1.0000e-08
  Last MAX-Density change    ...    1.6931e-06  Tolerance :   1.0000e-07
  Last RMS-Density change    ...    8.9998e-08  Tolerance :   5.0000e-09
  Last Orbital Gradient      ...    8.1665e-07  Tolerance :   1.0000e-05
  Last Orbital Rotation      ...    5.9475e-07  Tolerance :   1.0000e-05

             **** THE GBW FILE WAS UPDATED (25_charges.gbw) ****
             **** DENSITY FILE WAS UPDATED (25_charges.scfp.tmp) ****
             **** ENERGY FILE WAS UPDATED (25_charges.en.tmp) ****
----------------
ORBITAL ENERGIES
----------------

  NO   OCC          E(Eh)            E(eV) 
   0   2.0000     -19.232965      -523.3556 
   1   2.0000     -10.311706      -280.5958 
   2   2.0000      -1.139873       -31.0175 
   3   2.0000      -0.792631       -21.5686 
   4   2.0000      -0.614028       -16.7086 
   5   2.0000      -0.546754       -14.8779 
   6   2.0000      -0.528765       -14.3884 
   7   2.0000      -0.429326       -11.6826 
   8   2.0000      -0.368058       -10.0154 
   9   0.0000       0.111100         3.0232 
  10   0.0000       0.151969         4.1353 
  11   0.0000       0.203969         5.5503 
  12   0.0000       0.208305         5.6683 
  13   0.0000       0.224480         6.1084 
  14   0.0000       0.303589         8.2611 
  15   0.0000       0.326941         8.8965 
  16   0.0000       0.408128        11.1057 
  17   0.0000       0.451830        12.2949 
  18   0.0000       0.469453        12.7745 
  19   0.0000       0.530504        14.4357 
  20   0.0000       0.543642        14.7932 
  21   0.0000       0.571595        15.5539 
  22   0.0000       0.597557        16.2604 
  23   0.0000       0.615563        16.7503 
  24   0.0000       0.659210        17.9380 
  25   0.0000       0.784291        21.3416 
  26   0.0000       0.815779        22.1985 
  27   0.0000       0.871931        23.7265 
  28   0.0000       0.984096        26.7786 
  29   0.0000       1.001927        27.2638 
  30   0.0000       1.113509        30.3001 
  31   0.0000       1.380802        37.5735 
  32   0.0000       1.501019        40.8448 
  33   0.0000       1.549845        42.1734 
  34   0.0000       1.589071        43.2408 
  35   0.0000       1.611432        43.8493 
  36   0.0000       1.659325        45.1525 
  37   0.0000       1.676255        45.6132 
  38   0.0000       1.714962        46.6665 
  39   0.0000       1.802776        49.0560 
  40   0.0000       1.960617        53.3511 
  41   0.0000       1.978276        53.8316 
  42   0.0000       2.052843        55.8607 
  43   0.0000       2.083584        56.6972 
  44   0.0000       2.126738        57.8715 
  45   0.0000       2.242799        61.0297 
  46   0.0000       2.326107        63.2966 
  47   0.0000       2.352531        64.0156 
  48   0.0000       2.407814        65.5199 
  49   0.0000       2.469525        67.1992 
  50   0.0000       2.501936        68.0811 
  51   0.0000       2.590452        70.4898 
  52   0.0000       2.651026        72.1381 
  53   0.0000       2.738072        74.5067 
  54   0.0000       2.775445        75.5237 
  55   0.0000       2.899196        78.8911 
  56   0.0000       2.908725        79.1504 
  57   0.0000       2.974787        80.9481 
  58   0.0000       3.099996        84.3552 
  59   0.0000       3.135050        85.3091 
  60   0.0000       3.253103        88.5214 
  61   0.0000       3.345295        91.0301 
  62   0.0000       3.467114        94.3450 
  63   0.0000       3.506851        95.4263 
  64   0.0000       3.620852        98.5284 
  65   0.0000       3.645546        99.2003 
  66   0.0000       3.700183       100.6871 
  67   0.0000       4.005433       108.9934 
  68   0.0000       4.180721       113.7632 
  69   0.0000       4.312549       117.3504 
  70   0.0000       4.387895       119.4007 
  71   0.0000       4.557351       124.0118 
  72   0.0000       5.360759       145.8737 
  73   0.0000       5.456943       148.4910 
  74   0.0000       5.543736       150.8527 
  75   0.0000       5.828520       158.6021 
  76   0.0000       5.865298       159.6029 
  77   0.0000       6.004060       163.3788 
  78   0.0000       6.278783       170.8544 
  79   0.0000       6.537457       177.8932 
  80   0.0000       6.737973       183.3496 
  81   0.0000       6.826167       185.7494 
  82   0.0000       7.025088       191.1624 
  83   0.0000       7.190106       195.6527 
  84   0.0000      22.456837       611.0816 
  85   0.0000      43.666374      1188.2225 

                    ********************************
                    * MULLIKEN POPULATION ANALYSIS *
                    ********************************

-----------------------
MULLIKEN ATOMIC CHARGES
-----------------------
   0 C :   -0.174075
   1 O :   -0.471339
   2 H :    0.322226
   3 H :    0.101648
   4 H :    0.096768
   5 H :    0.124772
Sum of atomic charges:    0.0000000

--------------------------------
MULLIKEN REDUCED ORBITAL CHARGES
--------------------------------
  0 C s       :     3.219696  s :     3.219696
      pz      :     0.977074  p :     2.844342
      px      :     0.819828
      py      :     1.047440
      dz2     :     0.021332  d :     0.102126
      dxz     :     0.017485
      dyz     :     0.020129
      dx2y2   :     0.020177
      dxy     :     0.023003
      f0      :     0.000553  f :     0.007911
      f+1     :     0.002001
      f-1     :     0.000161
      f+2     :     0.001853
      f-2     :     0.001757
      f+3     :     0.000899
      f-3     :     0.000687
  1 O s       :     3.797114  s :     3.797114
      pz      :     1.560594  p :     4.641713
      px      :     1.550562
      py      :     1.530557
      dz2     :     0.003008  d :     0.030830
      dxz     :     0.005332
      dyz     :     0.008577
      dx2y2   :     0.008257
      dxy     :     0.005655
      f0      :     0.000249  f :     0.001682
      f+1     :     0.000316
      f-1     :     0.000089
      f+2     :     0.000523
      f-2     :     0.000270
      f+3     :     0.000100
      f-3     :     0.000135
  2 H s       :     0.633664  s :     0.633664
      pz      :     0.015858  p :     0.044110
      px      :     0.012721
      py      :     0.015531
  3 H s       :     0.878973  s :     0.878973
      pz      :     0.006242  p :     0.019379
      px      :     0.003363
      py      :     0.009774
  4 H s       :     0.883450  s :     0.883450
      pz      :     0.006311  p :     0.019782
      px      :     0.008652
      py      :     0.004819
  5 H s       :     0.855214  s :     0.855214
      pz      :     0.006891  p :     0.020014
      px      :     0.005377
      py      :     0.007746


                     *******************************
                     * LOEWDIN POPULATION ANALYSIS *
                     *******************************

----------------------
LOEWDIN ATOMIC CHARGES
----------------------
   0 C :   -0.415372
   1 O :   -0.072695
   2 H :    0.190511
   3 H :    0.093063
   4 H :    0.092810
   5 H :    0.111684

-------------------------------
LOEWDIN REDUCED ORBITAL CHARGES
-------------------------------
  0 C s       :     2.855301  s :     2.855301
      pz      :     1.045869  p :     3.065316
      px      :     0.935032
      py      :     1.084414
      dz2     :     0.057450  d :     0.434108
      dxz     :     0.107186
      dyz     :     0.094581
      dx2y2   :     0.099037
      dxy     :     0.075853
      f0      :     0.008866  f :     0.060648
      f+1     :     0.015921
      f-1     :     0.001922
      f+2     :     0.008474
      f-2     :     0.009270
      f+3     :     0.008634
      f-3     :     0.007560
  1 O s       :     3.367180  s :     3.367180
      pz      :     1.532590  p :     4.626607
      px      :     1.561355
      py      :     1.532661
      dz2     :     0.010051  d :     0.074075
      dxz     :     0.014861
      dyz     :     0.018672
      dx2y2   :     0.016360
      dxy     :     0.014132
      f0      :     0.000596  f :     0.004833
      f+1     :     0.000984
      f-1     :     0.000190
      f+2     :     0.001184
      f-2     :     0.000649
      f+3     :     0.000541
      f-3     :     0.000691
  2 H s       :     0.664524  s :     0.664524
      pz      :     0.046765  p :     0.144966
      px      :     0.032672
      py      :     0.065529
  3 H s       :     0.846312  s :     0.846312
      pz      :     0.019898  p :     0.060625
      px      :     0.010721
      py      :     0.030006
  4 H s       :     0.846832  s :     0.846832
      pz      :     0.019871  p :     0.060358
      px      :     0.025573
      py      :     0.014914
  5 H s       :     0.829117  s :     0.829117
      pz      :     0.020061  p :     0.059198
      px      :     0.014897
      py      :     0.024240


                      *****************************
                      * MAYER POPULATION ANALYSIS *
                      *****************************

  NA   - Mulliken gross atomic population
  ZA   - Total nuclear charge
  QA   - Mulliken gross atomic charge
  VA   - Mayer's total valence
  BVA  - Mayer's bonded valence
  FA   - Mayer's free valence

  ATOM       NA         ZA         QA         VA         BVA        FA
  0 C      6.1741     6.0000    -0.1741     3.9400     3.9400    -0.0000
  1 O      8.4713     8.0000    -0.4713     1.8781     1.8781     0.0000
  2 H      0.6778     1.0000     0.3222     0.9044     0.9044     0.0000
  3 H      0.8984     1.0000     0.1016     0.9600     0.9600     0.0000
  4 H      0.9032     1.0000     0.0968     0.9535     0.9535    -0.0000
  5 H      0.8752     1.0000     0.1248     0.9579     0.9579     0.0000

  Mayer bond orders larger than 0.1
B(  0-C ,  1-O ) :   0.9980 B(  0-C ,  3-H ) :   0.9798 B(  0-C ,  4-H ) :   0.9822 
B(  0-C ,  5-H ) :   0.9674 B(  1-O ,  2-H ) :   0.8895 


------------------
HIRSHFELD ANALYSIS
------------------

Total integrated alpha density =      9.000513670
Total integrated beta density  =      9.000513670

  ATOM     CHARGE      SPIN    
   0 C    0.002749    0.000000
   1 O   -0.250755    0.000000
   2 H    0.169116    0.000000
   3 H    0.021180    0.000000
   4 H    0.013473    0.000000
   5 H    0.043210    0.000000

  TOTAL  -0.001027    0.000000

-------
TIMINGS
-------

Total SCF time: 0 days 0 hours 0 min 27 sec 

Total time                  ....      27.758 sec
Sum of individual times     ....      23.756 sec  ( 85.6%)

Fock matrix formation       ....      18.117 sec  ( 65.3%)
  XC integration            ....       4.205 sec  ( 23.2% of F)
    Basis function eval.    ....       0.066 sec  (  1.6% of XC)
    Density eval.           ....       0.056 sec  (  1.3% of XC)
    XC-Functional eval.     ....       0.074 sec  (  1.8% of XC)
    XC-Potential eval.      ....       0.070 sec  (  1.7% of XC)
Diagonalization             ....       1.442 sec  (  5.2%)
Density matrix formation    ....       1.480 sec  (  5.3%)
Population analysis         ....       0.200 sec  (  0.7%)
Initial guess               ....       0.571 sec  (  2.1%)
Orbital Transformation      ....       0.000 sec  (  0.0%)
Orbital Orthonormalization  ....       0.000 sec  (  0.0%)
DIIS solution               ....       0.292 sec  (  1.1%)
SOSCF solution              ....       1.214 sec  (  4.4%)
Grid generation             ....       0.441 sec  (  1.6%)


-------------------------------------------------------------------------------
                          DFT DISPERSION CORRECTION                            
                                                                               
                              DFTD3 V3.1  Rev 1                                
                              USING zero damping                               
-------------------------------------------------------------------------------
The omegaB97X-D3 functional is recognized. Fit by Chai et al.
Active option DFTDOPT                   ...         3   

molecular C6(AA) [au] = 208.732386 


            DFT-D V3
 parameters
 s6 scaling factor         :     1.0000 
 rs6 scaling factor        :     1.2810 
 s8 scaling factor         :     1.0000 
 rs8 scaling factor        :     1.0940 
 Damping factor alpha6     :    14.0000 
 Damping factor alpha8     :    16.0000 
 ad hoc parameters k1-k3   :    16.0000     1.3333    -4.0000 

 Edisp/kcal,au: -0.143422843149  -0.000228558825 
 E6   /kcal   :  -0.031072506 
 E8   /kcal   :  -0.112350337 
 % E8         :  78.335036800 

-------------------------   ----------------
Dispersion correction           -0.000228559
-------------------------   ----------------


-------------------------   --------------------
FINAL SINGLE POINT ENERGY      -115.729783064370
-------------------------   --------------------


                            ***************************************
                            *     ORCA property calculations      *
                            ***************************************

                                    ---------------------
                                    Active property flags
                                    ---------------------
   (+) Dipole Moment


------------------------------------------------------------------------------
                       ORCA ELECTRIC PROPERTIES CALCULATION
------------------------------------------------------------------------------

Dipole Moment Calculation                       ... on
Quadrupole Moment Calculation                   ... off
Polarizability Calculation                      ... off
GBWName                                         ... 25_charges.gbw
Electron density file                           ... 25_charges.scfp.tmp
The origin for moment calculation is the CENTER OF MASS  = (-19.129991, -4.589339  5.307092)

-------------
DIPOLE MOMENT
-------------
                                X             Y             Z
Electronic contribution:     -1.59878       0.67207      -0.86773
Nuclear contribution   :      1.90976      -1.28287       0.80527
                        -----------------------------------------
Total Dipole Moment    :      0.31098      -0.61080      -0.06246
                        -----------------------------------------
Magnitude (a.u.)       :      0.68825
Magnitude (Debye)      :      1.74940



--------------------
Rotational spectrum 
--------------------
 
Rotational constants in cm-1:     4.366548     0.847908     0.811149 
Rotational constants in MHz : 130905.810939 25419.641777 24317.634617 

 Dipole components along the rotational axes: 
x,y,z [a.u.] :    -0.317632     0.599684    -0.114809 
x,y,z [Debye]:    -0.807356     1.524275    -0.291822 

 
------------------------------------------------------------------------------
                      ORCA CHELPG CHARGES GENERATION
------------------------------------------------------------------------------

GBW file                           ... 25_charges.gbw

Reading the GBW file               ... done

Grid spacing                       ...     0.300000
Point Cut-Off                      ...     2.800000
Van-der-Waals Radii                ...        COSMO
Total charge                       ...            0


Number of points X direction       ...           25
Number of points Y direction       ...           24
Number of points Z direction       ...           25
Maximum number of possible points  ...        15000
Final number of points             ...         5912


CHELPG Charges            
--------------------------------
  0   C   :       0.194070
  1   O   :      -0.623778
  2   H   :       0.408594
  3   H   :      -0.019341
  4   H   :      -0.015362
  5   H   :       0.055817
--------------------------------
Total charge:    -0.000000
--------------------------------

CHELPG charges calculated...

Timings for individual parts in CHELPG calculation:
Grid generation                 ...        0.001 sec (=   0.000 min)
Potential calculation           ...        0.625 sec (=   0.010 min)
Fit to the potential            ...        0.001 sec (=   0.000 min)
------------------------------------------------------------------------------


Timings for individual modules:

Sum of individual times         ...       37.330 sec (=   0.622 min)
GTO integral calculation        ...        4.864 sec (=   0.081 min)  13.0 %
SCF iterations                  ...       31.803 sec (=   0.530 min)  85.2 %
CHELPG charge generation        ...        0.663 sec (=   0.011 min)   1.8 %
                             ****ORCA TERMINATED NORMALLY****
TOTAL RUN TIME: 0 days 0 hours 0 minutes 40 seconds 234 msec
