LAMMPS data file via vdw_self_gen.py, on 2021-08-05 13:21:16.003890

5500 atoms
7 atom types
5000 bonds
6 bond types
9000 angles
10 angle types
9000 dihedrals
6 dihedral types

-40.2775272294572488  40.2775272294572559 xlo xhi
-40.2775272294572488  40.2775272294572559 ylo yhi
-40.2775272294572488  40.2775272294572559 zlo zhi

Masses

1  1.007940
2  1.007940
3  1.007940
4  79.904000
5  12.011000
6  12.011000
7  12.011000

Atoms

1         0    6   -0.1079060000000000  -30.3300614848108481  5.2393504476651653   3.9818217462738068  0 0 0
2         0    5    0.1150760000000000  -31.1271903701452395  4.4632514709708753   5.0177061477103875  0 0 0
3         0    7   -0.1683500000000000  -32.3625407397700329  3.8324997702870434   4.4005382560047757  0 0 0
4         0    4   -0.1647530000000000  -33.3518831069036068  2.8527781167056414   5.7610930254640067  0 0 0
5         0    2    0.0285690000000000  -29.4435673479735023  5.6864473367748012   4.4424360793133877  0 0 0
6         0    2    0.0285690000000000  -30.9305918548955994  6.0453773967172753   3.5480803835844537  0 0 0
7         0    2    0.0285690000000000  -29.9973788825130718  4.5835334159343732   3.1708515048837826  0 0 0
8         0    3    0.0140440000000000  -31.4125644594341580  5.1403761030283608   5.8318482757958563  0 0 0
9         0    3    0.0140440000000000  -30.4860133430166407  3.6904760945412480   5.4586802961211269  0 0 0
10        0    1    0.1060690000000000  -32.1076123244701819  3.1111749638327622   3.6192777294411966  0 0 0
11        0    1    0.1060690000000000  -33.0472179380902773  4.5828237195457824   3.9957553914105537  0 0 0
12        1    6   -0.1079060000000000   30.8151291584009286 -32.0248435048553333 -12.3904139871512093 0 0 0
13        1    5    0.1150760000000000   31.8437760044822333 -31.2350702277211774 -13.1834741433636875 0 0 0
14        1    7   -0.1683500000000000   31.2913690336562809 -30.8139445385672524 -14.5334127133429067 0 0 0
15        1    4   -0.1647530000000000   32.6406502055162022 -29.8094410447798701 -15.5132979968497402 0 0 0
16        1    2    0.0285690000000000   31.2285710397612455 -32.3196816789112091 -11.4208422731678461 0 0 0
17        1    2    0.0285690000000000   30.5213401014521821 -32.9338743996559273 -12.9250152965540135 0 0 0
18        1    2    0.0285690000000000   29.9163262553432041 -31.4268316741270617 -12.2088055700444151 0 0 0
19        1    3    0.0140440000000000   32.7431883970529825 -31.8485832783070002 -13.3154689453486075 0 0 0
20        1    3    0.0140440000000000   32.1439940347722768 -30.3536430450180674 -12.6040751288833235 0 0 0
21        1    1    0.1060690000000000   30.4232217384966539 -30.1565961502286832 -14.4340177740567128 0 0 0
22        1    1    0.1060690000000000   31.0290558830889758 -31.6741123098515729 -15.1554426792474537 0 0 0
23        2    6   -0.1079060000000000   32.5666737809233382  4.9092916738337316   31.6366111786212052 0 0 0
24        2    5    0.1150760000000000   31.5004029055448491  4.0589219594836843   30.9652406819237420 0 0 0
25        2    7   -0.1683500000000000   30.1076709895210257  4.4855296392848931   31.3931871129443216 0 0 0
26        2    4   -0.1647530000000000   28.7771119482467661  3.3702827363274777   30.5125060686795884 0 0 0
27        2    2    0.0285690000000000   33.5634863891298991  4.5896025392108468   31.3170857054199061 0 0 0
28        2    2    0.0285690000000000   32.5133565575842312  4.8170146176580122   32.7261477573091142 0 0 0
29        2    2    0.0285690000000000   32.4484352522419286  5.9656137046149578   31.3746000280541182 0 0 0
30        2    3    0.0140440000000000   31.6697922085107955  3.0053689748281442   31.2184143682817705 0 0 0
31        2    3    0.0140440000000000   31.6062237582070473  4.1439967223138670   29.8769795946973247 0 0 0
32        2    1    0.1060690000000000   29.8891571486907210  5.5179574855161695   31.1068124852416688 0 0 0
33        2    1    0.1060690000000000   29.9543109134225425  4.3645087829315363   32.4690368708503954 0 0 0
34        3    6   -0.1079060000000000   4.3497336085632092  -12.1681457302389902 -31.7997859767998392 0 0 0
35        3    5    0.1150760000000000   3.9090812483248132  -13.5428296042589196 -31.3234769190171001 0 0 0
36        3    7   -0.1683500000000000   5.1012187952434251  -14.3944338303211623 -30.9254659121594848 0 0 0
37        3    4   -0.1647530000000000   4.4910385094064971  -16.1430178517755536 -30.3255525373374510 0 0 0
38        3    2    0.0285690000000000   3.4793233757119904  -11.5674644992638189 -32.0817454277888885 0 0 0
39        3    2    0.0285690000000000   5.0052193552742068  -12.2471528835533654 -32.6730236553753173 0 0 0
40        3    2    0.0285690000000000   4.8898995848026834  -11.6343344428890401 -31.0112984036504251 0 0 0
41        3    3    0.0140440000000000   3.3408025240377945  -14.0341958495136154 -32.1224650587582516 0 0 0
42        3    3    0.0140440000000000   3.2250882698890901  -13.4260939798466019 -30.4741981888326663 0 0 0
43        3    1    0.1060690000000000   5.6588617673062966  -13.9556225620856686 -30.0935134073381789 0 0 0
44        3    1    0.1060690000000000   5.7778217974433224  -14.5709752742631924 -31.7660963649655557 0 0 0
45        4    6   -0.1079060000000000  -4.7558749037725327   5.2923840464234537  -30.2902731112301211 0 0 0
46        4    5    0.1150760000000000  -4.9497398796261010   4.6035710346126262  -31.6314493041657805 0 0 0
47        4    7   -0.1683500000000000  -3.8008508705357564   3.6586422692142797  -31.9347612282870905 0 0 0
48        4    4   -0.1647530000000000  -4.0895784535392652   2.8023007752786810  -33.6590227360570395 0 0 0
49        4    2    0.0285690000000000  -5.5921360698063109   5.9685554488048460  -30.0868215359464344 0 0 0
50        4    2    0.0285690000000000  -3.8330493082660371   5.8812518970408929  -30.2815948344839150 0 0 0
51        4    2    0.0285690000000000  -4.7049006162200513   4.5609197182497159  -29.4773721430809488 0 0 0
52        4    3    0.0140440000000000  -5.0334529403423796   5.3645178345690834  -32.4167617477202867 0 0 0
53        4    3    0.0140440000000000  -5.8994943380214275   4.0553315567779702  -31.6192876512446901 0 0 0
54        4    1    0.1060690000000000  -3.7243678423349156   2.8560420683216821  -31.1960804801797700 0 0 0
55        4    1    0.1060690000000000  -2.8446436135385085   4.1845721867100991  -32.0031970796270926 0 0 0
56        5    6   -0.1079060000000000   13.5727056645739239 -21.1019610485841724 -31.7457118817053967 0 0 0
57        5    5    0.1150760000000000   13.6926673367381291 -22.6169646752521025 -31.7799723982599112 0 0 0
58        5    7   -0.1683500000000000   13.0556101835297067 -23.2462498308933547 -30.5540063193508935 0 0 0
59        5    4   -0.1647530000000000   13.2344555374194339 -25.1828804380827052 -30.6390848083446770 0 0 0
60        5    2    0.0285690000000000   14.0356526727288813 -20.6646477223823979 -32.6358636491398713 0 0 0
61        5    2    0.0285690000000000   14.0737498137255166 -20.6887105352147032 -30.8644477263576213 0 0 0
62        5    2    0.0285690000000000   12.5230327893378721 -20.7920356266112556 -31.7216388011258026 0 0 0
63        5    3    0.0140440000000000   14.7526860675716485 -22.8916017742530791 -31.8407860236610567 0 0 0
64        5    3    0.0140440000000000   13.2150299405137464 -22.9941845950177992 -32.6922857281855173 0 0 0
65        5    1    0.1060690000000000   11.9847117509722469 -23.0336051271135851 -30.4938003329343630 0 0 0
66        5    1    0.1060690000000000   13.5439647508988941 -22.9276028066113930 -29.6290241829580339 0 0 0
67        6    6   -0.1079060000000000  -30.2227264673225946 -3.8005220062453033  -22.7591292129179088 0 0 0
68        6    5    0.1150760000000000  -31.6751629815538358 -4.0138724549264504  -22.3645277268901097 0 0 0
69        6    7   -0.1683500000000000  -31.9525611527989248 -5.4750132858342626  -22.0596471321584708 0 0 0
70        6    4   -0.1647530000000000  -33.8210271975921302 -5.7011988375617255  -21.5622168815256998 0 0 0
71        6    2    0.0285690000000000  -30.0396501251829982 -2.7431609219069935  -22.9745442471557801 0 0 0
72        6    2    0.0285690000000000  -29.9706083061784589 -4.3781488641446193  -23.6542445035674795 0 0 0
73        6    2    0.0285690000000000  -29.5482946787137877 -4.1045651837412098  -21.9521930728596502 0 0 0
74        6    3    0.0140440000000000  -32.3228198458904359 -3.6657927468765652  -23.1782504350785885 0 0 0
75        6    3    0.0140440000000000  -31.9042728602141388 -3.3931199535551690  -21.4899289859571283 0 0 0
76        6    1    0.1060690000000000  -31.3584938764361247 -5.8376708119102299  -21.2163028527355628 0 0 0
77        6    1    0.1060690000000000  -31.7810043601397396 -6.1150237693007705  -22.9294591291701551 0 0 0
78        7    6   -0.1079060000000000  -4.2446404875124601  -14.1195309109235900  23.5107423394235369 0 0 0
79        7    5    0.1150760000000000  -4.1159338780898462  -13.7352541835837094  22.0456257638173909 0 0 0
80        7    7   -0.1683500000000000  -5.0014857633115684  -12.5489208650491140  21.7091059781955664 0 0 0
81        7    4   -0.1647530000000000  -4.8065708471759176  -12.0941941352602349  19.8262905609856510 0 0 0
82        7    2    0.0285690000000000  -3.6000260818012646  -14.9747624875630017  23.7365392946033467 0 0 0
83        7    2    0.0285690000000000  -5.2751764277028848  -14.3972664486023518  23.7542713618954586 0 0 0
84        7    2    0.0285690000000000  -3.9489631156773060  -13.2901474795342889  24.1612378743210243 0 0 0
85        7    3    0.0140440000000000  -4.3836640319290128  -14.5979321379266302  21.4236363308557287 0 0 0
86        7    3    0.0140440000000000  -3.0671729587445840  -13.5006157962854250  21.8270089223798252 0 0 0
87        7    1    0.1060690000000000  -4.7240291779706931  -11.6563534309195447  22.2765627628781857 0 0 0
88        7    1    0.1060690000000000  -6.0604260660877598  -12.7692886323620183  21.8694229906608335 0 0 0
89        8    6   -0.1079060000000000   12.5803825017936770  13.9528807352845110  12.5155950421272379 0 0 0
90        8    5    0.1150760000000000   13.6998972765510274  13.0772521226719700  13.0548183506685405 0 0 0
91        8    7   -0.1683500000000000   13.8978726309706939  13.2940873028067816  14.5443225345828786 0 0 0
92        8    4   -0.1647530000000000   15.3396953856526803  12.1565171438191797  15.1899566384390621 0 0 0
93        8    2    0.0285690000000000   12.4503783727857691  13.7839479186643299  11.4420524595485720 0 0 0
94        8    2    0.0285690000000000   12.8041694290958947  15.0136227067147363  12.6678895558660898 0 0 0
95        8    2    0.0285690000000000   11.6314943009055138  13.7266589856410306  13.0124665824708874 0 0 0
96        8    3    0.0140440000000000   14.6253970001700839  13.3031839598495392  12.5115241307189624 0 0 0
97        8    3    0.0140440000000000   13.4624188539254099  12.0259237045806380  12.8521843994145009 0 0 0
98        8    1    0.1060690000000000   13.0071884916243388  13.0264512728161961  15.1194040097389824 0 0 0
99        8    1    0.1060690000000000   14.1853722645349247  14.3237406551610711  14.7740528044342856 0 0 0
100       9    6   -0.1079060000000000  -4.7573140574179362  -23.2205704368399459  12.4114645605553839 0 0 0
101       9    5    0.1150760000000000  -4.8810538091496225  -22.5794057480541817  13.7841979251588764 0 0 0
102       9    7   -0.1683500000000000  -3.8625700732049690  -21.4682120178378817  13.9652333464007228 0 0 0
103       9    4   -0.1647530000000000  -4.0558220382010983  -20.6789519378541549  15.7342682026907905 0 0 0
104       9    2    0.0285690000000000  -5.4982222198991284  -24.0180209932359965  12.2971809153020999 0 0 0
105       9    2    0.0285690000000000  -3.7634793280693266  -23.6575770132719221  12.2708746583725308 0 0 0
106       9    2    0.0285690000000000  -4.9249784729794222  -22.4848479996097481  11.6183393721327199 0 0 0
107       9    3    0.0140440000000000  -4.7444551059927740  -23.3491930414020210  14.5533090095908193 0 0 0
108       9    3    0.0140440000000000  -5.8976727622951852  -22.1866063897725034  13.9064375682323078 0 0 0
109       9    1    0.1060690000000000  -4.0066855398910439  -20.6587235252376686  13.2443830871168071 0 0 0
110       9    1    0.1060690000000000  -2.8358354289027794  -21.8383350769005027  13.8985778624569551 0 0 0
111       10   6   -0.1079060000000000   13.9879053976647238  3.3422057081003986   4.0048042901809859  0 0 0
112       10   5    0.1150760000000000   13.9227910107846089  4.7637451483171303   4.5393941433670699  0 0 0
113       10   7   -0.1683500000000000   12.4899398319484654  5.1802209252573759   4.8192510295247963  0 0 0
114       10   4   -0.1647530000000000   12.4545644415958545  7.0042483555452861   5.4985408306514501  0 0 0
115       10   2    0.0285690000000000   15.0265580271012880  3.0577626329404302   3.8092898429959816  0 0 0
116       10   2    0.0285690000000000   13.4282703588980592  3.2492952166353488   3.0685222804956767  0 0 0
117       10   2    0.0285690000000000   13.5713339110325304  2.6322492181174777   4.7265219664617995  0 0 0
118       10   3    0.0140440000000000   14.3803378881355588  5.4427173511878477   3.8097290519345108  0 0 0
119       10   3    0.0140440000000000   14.5235745049903890  4.8308516832053607   5.4544372397101792  0 0 0
120       10   1    0.1060690000000000   12.0226241869180388  4.5530073893983039   5.5833748755373103  0 0 0
121       10   1    0.1060690000000000   11.8763669489404720  5.1717852072983961   3.9142232851435712  0 0 0
122       11   6   -0.1079060000000000   30.4220575002217046 -22.9861021798444867 -3.6812206280229596  0 0 0
123       11   5    0.1150760000000000   31.1778981369937718 -21.8372626779323191 -4.3290425983590941  0 0 0
124       11   7   -0.1683500000000000   32.2373693777483297 -22.3486478742872698 -5.2886468507272317  0 0 0
125       11   4   -0.1647530000000000   33.1796771150200343 -20.8462336677862012 -6.0914978948080432  0 0 0
126       11   2    0.0285690000000000   29.6625151482656761 -22.6006137730838255 -2.9938872660083997  0 0 0
127       11   2    0.0285690000000000   31.1000217720277341 -23.6299885745581761 -3.1118152411875926  0 0 0
128       11   2    0.0285690000000000   29.9180459096819931 -23.5988679324236443 -4.4354996708630301  0 0 0
129       11   3    0.0140440000000000   31.6390296505481103 -21.2240768265507285 -3.5453817139374424  0 0 0
130       11   3    0.0140440000000000   30.4658530983589060 -21.1922118488477622 -4.8578613319084951  0 0 0
131       11   1    0.1060690000000000   31.8022087311033275 -22.9209602958040790 -6.1125155826797588  0 0 0
132       11   1    0.1060690000000000   32.9919454120535889 -22.9554785288980199 -4.7807200575012478  0 0 0
133       12   6   -0.1079060000000000  -21.8959693216379314 -21.7907792039555410 -14.5426898506856830 0 0 0
134       12   5    0.1150760000000000  -22.9024047647430145 -22.1385362526791099 -13.4578150613551610 0 0 0
135       12   7   -0.1683500000000000  -22.3055352708657750 -23.0949946069185863 -12.4410709076546109 0 0 0
136       12   4   -0.1647530000000000  -23.6275746581658446 -23.5135932297286629 -11.0747806127286879 0 0 0
137       12   2    0.0285690000000000  -22.3414022991685570 -21.1007222592294532 -15.2661149831378964 0 0 0
138       12   2    0.0285690000000000  -21.5750225075749427 -22.6877661796260277 -15.0819998225203769 0 0 0
139       12   2    0.0285690000000000  -21.0096604450966566 -21.3102627617025391 -14.1160671256830561 0 0 0
140       12   3    0.0140440000000000  -23.7909705788884764 -22.5832065794053278 -13.9220161356335552 0 0 0
141       12   3    0.0140440000000000  -23.2311425980357171 -21.2159817757939955 -12.9642842758500976 0 0 0
142       12   1    0.1060690000000000  -21.4474305862304355 -22.6587190504919747 -11.9224323314075953 0 0 0
143       12   1    0.1060690000000000  -22.0133311496092041 -24.0458822804853298 -12.8949954013531780 0 0 0
144       13   6   -0.1079060000000000  -31.0130423737876164  23.1297817652232034  5.5499883375180143  0 0 0
145       13   5    0.1150760000000000  -31.3583988901569803  22.8175700998276980  4.1029039145515513  0 0 0
146       13   7   -0.1683500000000000  -31.5669615837045399  21.3279479201483007  3.8970840543159877  0 0 0
147       13   4   -0.1647530000000000  -32.0040004818258836  20.9750588518567689  2.0331558299443473  0 0 0
148       13   2    0.0285690000000000  -30.8668862920588545  24.2065170195545392  5.6811852831902829  0 0 0
149       13   2    0.0285690000000000  -30.0908557691504122  22.6226036007369089  5.8513019837340954  0 0 0
150       13   2    0.0285690000000000  -31.8161898902391229  22.8115338636315848  6.2223861106778564  0 0 0
151       13   3    0.0140440000000000  -30.5518115286649170  23.1815157698396845  3.4550428797139840  0 0 0
152       13   3    0.0140440000000000  -32.2632979291866206  23.3701951827654817  3.8227053974761844  0 0 0
153       13   1    0.1060690000000000  -32.4009131644498325  20.9448643018171836  4.4915903083106477  0 0 0
154       13   1    0.1060690000000000  -30.6642639487983715  20.7528558046152156  4.1207447365703533  0 0 0
155       14   6   -0.1079060000000000  -22.4995500787804268 -14.1766096571613147 -23.4909917027350623 0 0 0
156       14   5    0.1150760000000000  -22.9329153134575137 -13.2714560886472999 -22.3491983040067197 0 0 0
157       14   7   -0.1683500000000000  -21.7613242770423909 -12.9248254246904768 -21.4480567632948365 0 0 0
158       14   4   -0.1647530000000000  -22.3619830934267476 -11.7685311551730400 -20.0016976560255273 0 0 0
159       14   2    0.0285690000000000  -23.3547550369317456 -14.4159876144554442 -24.1307226772978822 0 0 0
160       14   2    0.0285690000000000  -22.0859156356577593 -15.1163347192957573 -23.1111613553968951 0 0 0
161       14   2    0.0285690000000000  -21.7381282875347317 -13.6906461825444890 -24.1094759649071442 0 0 0
162       14   3    0.0140440000000000  -23.7202257575059363 -13.7725563713773465 -21.7731737261976193 0 0 0
163       14   3    0.0140440000000000  -23.3765160185861838 -12.3581978344267807 -22.7638375901427921 0 0 0
164       14   1    0.1060690000000000  -20.9809955560498835 -12.3765580479052204 -21.9829922308488293 0 0 0
165       14   1    0.1060690000000000  -21.3281351250432287 -13.8125634123327377 -20.9791362091632045 0 0 0
166       15   6   -0.1079060000000000   23.7033046318680860  31.4296682508092680 -13.6492457441237036 0 0 0
167       15   5    0.1150760000000000   22.3024118146868808  31.8772302261424443 -13.2645534416195119 0 0 0
168       15   7   -0.1683500000000000   21.3091945671995902  30.7350786558142417 -13.3822128649165268 0 0 0
169       15   4   -0.1647530000000000   19.5319548952100988  31.3532174743973222 -12.8831280345846704 0 0 0
170       15   2    0.0285690000000000   24.4062504902335924  32.2636495200006266 -13.5582764660966646 0 0 0
171       15   2    0.0285690000000000   23.7309067261308115  31.0734859430672010 -14.6840500858926486 0 0 0
172       15   2    0.0285690000000000   24.0494994745654864  30.6209371348529764 -12.9976710834946854 0 0 0
173       15   3    0.0140440000000000   22.0017892712655332  32.7104697975641443 -13.9111610861025259 0 0 0
174       15   3    0.0140440000000000   22.3181412058038084  32.2628155407717259 -12.2379938897681235 0 0 0
175       15   1    0.1060690000000000   21.5532169549622878  29.9087408767107803 -12.7089484794059366 0 0 0
176       15   1    0.1060690000000000   21.2337741480903759  30.3613284318924421 -14.4070253320049186 0 0 0
177       16   6   -0.1079060000000000  -3.9603047660450463   5.3850851629045406   3.6219474386058890  0 0 0
178       16   5    0.1150760000000000  -4.0952781135224061   4.5730656472914726   4.8999173429206504  0 0 0
179       16   7   -0.1683500000000000  -5.2636605321998902   3.6072967396854545   4.8162071820868180  0 0 0
180       16   4   -0.1647530000000000  -5.3995795517084151   2.5923106452580384   6.4718313444059117  0 0 0
181       16   2    0.0285690000000000  -3.1139649869898234   6.0748537411169554   3.6985067855178642  0 0 0
182       16   2    0.0285690000000000  -4.8633780218635572   5.9749183799038201   3.4348559945213260  0 0 0
183       16   2    0.0285690000000000  -3.7902772811006447   4.7331592359226589   2.7590861140048260  0 0 0
184       16   3    0.0140440000000000  -4.2273057568536005   5.2568317577966752   5.7471458542568818  0 0 0
185       16   3    0.0140440000000000  -3.1617536995304567   4.0255543998141370   5.0774323126183996  0 0 0
186       16   1    0.1060690000000000  -5.1354848252725711   2.8776699347121002   4.0119176214694630  0 0 0
187       16   1    0.1060690000000000  -6.2171013009168821   4.1273431915974763   4.6892408455953296  0 0 0
188       17   6   -0.1079060000000000  -3.1706352357904324  -4.2929361156683754   4.7681501958835639  0 0 0
189       17   5    0.1150760000000000  -4.6779808253823694  -4.2001515862650924   4.9416462455249146  0 0 0
190       17   7   -0.1683500000000000  -5.4056201600843510  -4.8834657913334896   3.7977681287894827  0 0 0
191       17   4   -0.1647530000000000  -7.3291372784943896  -4.7381985093709487   4.0599539990699638  0 0 0
192       17   2    0.0285690000000000  -2.6618265992428847  -3.7967662514299860   5.6005336915730766  0 0 0
193       17   2    0.0285690000000000  -2.8523431077957322  -3.8096516102491162   3.8388634017353422  0 0 0
194       17   2    0.0285690000000000  -2.8422092349972612  -5.3369428327382415   4.7429954325968744  0 0 0
195       17   3    0.0140440000000000  -4.9680619093809906  -3.1441031265841035   4.9997681726402874  0 0 0
196       17   3    0.0140440000000000  -4.9579977713377428  -4.6584895458855140   5.8978181897111090  0 0 0
197       17   1    0.1060690000000000  -5.1769587810781488  -5.9515195282538533   3.7463757898523466  0 0 0
198       17   1    0.1060690000000000  -5.1853179324190126  -4.4158639382245539   2.8342155886263738  0 0 0
199       18   6   -0.1079060000000000  -22.7279402773542323 -22.4508504829682174  12.1250725978239764 0 0 0
200       18   5    0.1150760000000000  -22.9121415727577720 -22.2901966565394183  13.6254261579642009 0 0 0
201       18   7   -0.1683500000000000  -21.5850049396907480 -22.3914167532954238  14.3556982301292386 0 0 0
202       18   4   -0.1647530000000000  -21.8687533440329922 -22.1825699200842230  16.2702822481056906 0 0 0
203       18   2    0.0285690000000000  -23.6928895521980714 -22.3746056501609267  11.6141981816035660 0 0 0
204       18   2    0.0285690000000000  -22.2929585784781246 -23.4264992760249839  11.8855979813199770 0 0 0
205       18   2    0.0285690000000000  -22.0694401623617971 -21.6730768262343396  11.7252074169870273 0 0 0
206       18   3    0.0140440000000000  -23.6043062045105678 -23.0605051466067863  13.9863922167296479 0 0 0
207       18   3    0.0140440000000000  -23.3839060503055975 -21.3209463980329836  13.8272681164595319 0 0 0
208       18   1    0.1060690000000000  -20.8903890304248101 -21.6023571147862832  14.0547669935144963 0 0 0
209       18   1    0.1060690000000000  -21.1127144679018421 -23.3674199552829549  14.2143563673726643 0 0 0
210       19   6   -0.1079060000000000  -31.0167274233224575  14.5963544245137005 -12.8302116467206844 0 0 0
211       19   5    0.1150760000000000  -31.2045155443417457  13.6004672726089844 -13.9632363493971798 0 0 0
212       19   7   -0.1683500000000000  -31.7047385799678096  12.2647410634630578 -13.4431912945897292 0 0 0
213       19   4   -0.1647530000000000  -31.9282011327304502  11.0224175023806996 -14.9252367647735653 0 0 0
214       19   2    0.0285690000000000  -30.6569847871162864  15.5529787358786358 -13.2218597148903179 0 0 0
215       19   2    0.0285690000000000  -30.2846638605578207  14.2299968407986324 -12.1033603561344929 0 0 0
216       19   2    0.0285690000000000  -31.9608427707758160  14.7771572376237543 -12.3063767692311057 0 0 0
217       19   3    0.0140440000000000  -30.2506034963349322  13.4706933954534254 -14.4885687093137108 0 0 0
218       19   3    0.0140440000000000  -31.9129835415594911  14.0142867132167552 -14.6909550653811394 0 0 0
219       19   1    0.1060690000000000  -32.6813649005696618  12.3530190012578149 -12.9593793276992955 0 0 0
220       19   1    0.1060690000000000  -30.9949958147466660  11.8021543208145197 -12.7518905098787219 0 0 0
221       20   6   -0.1079060000000000  -3.8714425737694018   14.6053282976912886 -22.6319711423378216 0 0 0
222       20   5    0.1150760000000000  -4.0757916296130041   13.2361450344749372 -22.0039749403556364 0 0 0
223       20   7   -0.1683500000000000  -5.3575466164991417   12.5905427195101272 -22.4990873060915177 0 0 0
224       20   4   -0.1647530000000000  -5.5790305458768232   10.8437901474811440 -21.6686883418956775 0 0 0
225       20   2    0.0285690000000000  -2.9438181879105079   15.0560297578334232 -22.2654820711697106 0 0 0
226       20   2    0.0285690000000000  -4.6978859702563209   15.2785232138086222 -22.3824763427588564 0 0 0
227       20   2    0.0285690000000000  -3.8054242972325838   14.5309379475702780 -23.7221794198573015 0 0 0
228       20   3    0.0140440000000000  -4.1005163662609485   13.3420921595801580 -20.9126787216415586 0 0 0
229       20   3    0.0140440000000000  -3.2140823258462357   12.6004848141704500 -22.2409161191832858 0 0 0
230       20   1    0.1060690000000000  -5.3413353762530358   12.4231799480214260 -23.5795468759548719 0 0 0
231       20   1    0.1060690000000000  -6.2412149464852851   13.1772124678681219 -22.2334428987702637 0 0 0
232       21   6   -0.1079060000000000  -13.3231060277752071 -31.1889930435416680 -14.7643232375205233 0 0 0
233       21   5    0.1150760000000000  -13.4645615958736116 -31.9038206389602834 -13.4302271369033317 0 0 0
234       21   7   -0.1683500000000000  -13.4785234475145117 -30.9166470240735372 -12.2769154830256042 0 0 0
235       21   4   -0.1647530000000000  -13.6586008911218428 -31.8745224394613693 -10.5917422214588886 0 0 0
236       21   2    0.0285690000000000  -13.3155596898785422 -31.9140758126007498 -15.5841592439864307 0 0 0
237       21   2    0.0285690000000000  -12.3896100107085889 -30.6186925515540018 -14.8066348512854855 0 0 0
238       21   2    0.0285690000000000  -14.1561216871267774 -30.4981475223697558 -14.9294407791440236 0 0 0
239       21   3    0.0140440000000000  -12.6361043255148502 -32.6129138697877679 -13.3135700150274658 0 0 0
240       21   3    0.0140440000000000  -14.3885307247989669 -32.4945803469578465 -13.4358820727600126 0 0 0
241       21   1    0.1060690000000000  -14.3257750021568828 -30.2280184877218190 -12.3370945971614745 0 0 0
242       21   1    0.1060690000000000  -12.5477731055401147 -30.3462101149943848 -12.2142768697366577 0 0 0
243       22   6   -0.1079060000000000  -13.5329428467462964 -14.7689938952616462  22.4512084717211913 0 0 0
244       22   5    0.1150760000000000  -13.8692446330362547 -13.3528993894053656  22.0125992679624929 0 0 0
245       22   7   -0.1683500000000000  -12.9279681500419024 -12.3437482620759607  22.6454081134850256 0 0 0
246       22   4   -0.1647530000000000  -13.3962735070887025 -10.5476032782698965  22.0586241597937587 0 0 0
247       22   2    0.0285690000000000  -14.2195074102417163 -15.4832370929759939  21.9860001298235765 0 0 0
248       22   2    0.0285690000000000  -13.6184728850920749 -14.8738215600643837  23.5375525750938657 0 0 0
249       22   2    0.0285690000000000  -12.5129576771688704 -15.0384026657049539  22.1588121761729262 0 0 0
250       22   3    0.0140440000000000  -14.9070624927461690 -13.1291073439689470  22.2875806370887091 0 0 0
251       22   3    0.0140440000000000  -13.8114282718558332 -13.2926882006700247  20.9190820786915985 0 0 0
252       22   1    0.1060690000000000  -11.8890699769250539 -12.5091066038671332  22.3470573327008104 0 0 0
253       22   1    0.1060690000000000  -12.9993386570670708 -12.3446582157455875  23.7365192374826144 0 0 0
254       23   6   -0.1079060000000000   4.2151594919557134  -32.4620874275634108  23.0582819489743009 0 0 0
255       23   5    0.1150760000000000   4.1857971567806187  -31.4786752685468301  21.8994726664038630 0 0 0
256       23   7   -0.1683500000000000   4.9631344300889406  -30.2171519253892313  22.2298362061506829 0 0 0
257       23   4   -0.1647530000000000   4.8967000817363902  -28.9881746858635161  20.7215379794439407 0 0 0
258       23   2    0.0285690000000000   3.6515612681316041  -33.3651256968158307  22.8036999915069565 0 0 0
259       23   2    0.0285690000000000   3.7672423020956773  -32.0239038857150717  23.9559528866686975 0 0 0
260       23   2    0.0285690000000000   5.2420429676634726  -32.7581213306720826  23.2956017351881997 0 0 0
261       23   3    0.0140440000000000   3.1433078683370086  -31.2321706403393442  21.6644937425561359 0 0 0
262       23   3    0.0140440000000000   4.6055636687656571  -31.9612600286329638  21.0085989453588944 0 0 0
263       23   1    0.1060690000000000   6.0201907424643899  -30.4244808145214094  22.4177528576173266 0 0 0
264       23   1    0.1060690000000000   4.5373888579838306  -29.6854701479634571  23.0852152201475498 0 0 0
265       24   6   -0.1079060000000000   5.0540787002069436   3.2638624149351938   13.2895317136888202 0 0 0
266       24   5    0.1150760000000000   4.7755608229740716   4.7304924642549144   13.0027832784810098 0 0 0
267       24   7   -0.1683500000000000   3.7053497982364592   5.2778512879558255   13.9300810358636173 0 0 0
268       24   4   -0.1647530000000000   3.3803016389582234   7.1542849985504224   13.5262217255908421 0 0 0
269       24   2    0.0285690000000000   5.8274706257335769   2.8855320861195386   12.6137624198255622 0 0 0
270       24   2    0.0285690000000000   4.1530826514674839   2.6584970154912484   13.1474521901396546 0 0 0
271       24   2    0.0285690000000000   5.4035124023389614   3.1246608629092085   14.3176199594770317 0 0 0