
                                 *****************
                                 * O   R   C   A *
                                 *****************

           --- An Ab Initio, DFT and Semiempirical electronic structure package ---

                  #######################################################
                  #                        -***-                        #
                  #          Department of theory and spectroscopy      #
                  #               Directorship: Frank Neese             #
                  #        Max Planck Institute fuer Kohlenforschung    #
                  #                Kaiser Wilhelm Platz 1               #
                  #                 D-45470 Muelheim/Ruhr               #
                  #                      Germany                        #
                  #                                                     #
                  #                  All rights reserved                #
                  #                        -***-                        #
                  #######################################################


                         Program Version 4.1.2  - RELEASE  -


 With contributions from (in alphabetic order):
   Daniel Aravena         : Magnetic Properties
   Michael Atanasov       : Ab Initio Ligand Field Theory
   Alexander A. Auer      : GIAO ZORA
   Ute Becker             : Parallelization
   Giovanni Bistoni       : ED, Open-shell LED
   Martin Brehm           : Molecular dynamics
   Dmytro Bykov           : SCF Hessian
   Vijay G. Chilkuri      : MRCI spin determinant printing
   Dipayan Datta          : RHF DLPNO-CCSD density
   Achintya Kumar Dutta   : EOM-CC, STEOM-CC
   Dmitry Ganyushin       : Spin-Orbit,Spin-Spin,Magnetic field MRCI
   Miquel Garcia          : C-PCM Hessian
   Yang Guo               : DLPNO-NEVPT2, CIM, IAO-localization
   Andreas Hansen         : Spin unrestricted coupled pair/coupled cluster methods
   Benjamin Helmich-Paris : CASSCF linear response (MC-RPA)
   Lee Huntington         : MR-EOM, pCC
   Robert Izsak           : Overlap fitted RIJCOSX, COSX-SCS-MP3, EOM
   Christian Kollmar      : KDIIS, OOCD, Brueckner-CCSD(T), CCSD density
   Simone Kossmann        : Meta GGA functionals, TD-DFT gradient, OOMP2, MP2 Hessian
   Martin Krupicka        : AUTO-CI
   Lucas Lang             : DCDCAS
   Dagmar Lenk            : GEPOL surface, SMD
   Dimitrios Liakos       : Extrapolation schemes; parallel MDCI
   Dimitrios Manganas     : ROCIS; embedding schemes
   Dimitrios Pantazis     : SARC Basis sets
   Taras Petrenko         : DFT Hessian,TD-DFT gradient, ASA, ECA, R-Raman, ABS, FL, XAS/XES, NRVS
   Peter Pinski           : DLPNO-MP2, DLPNO-MP2 Gradient
   Christoph Reimann      : Effective Core Potentials
   Marius Retegan         : Local ZFS, SOC
   Christoph Riplinger    : Optimizer, TS searches, QM/MM, DLPNO-CCSD(T), (RO)-DLPNO pert. Triples
   Tobias Risthaus        : Range-separated hybrids, TD-DFT gradient, RPA, STAB
   Michael Roemelt        : Restricted open shell CIS
   Masaaki Saitow         : Open-shell DLPNO
   Barbara Sandhoefer     : DKH picture change effects
   Avijit Sen             : IP-ROCIS
   Kantharuban Sivalingam : CASSCF convergence, NEVPT2, FIC-MRCI
   Bernardo de Souza      : ESD, SOC TD-DFT
   Georgi Stoychev        : AutoAux, RI-MP2 NMR
   Willem Van den Heuvel  : Paramagnetic NMR
   Boris Wezisla          : Elementary symmetry handling
   Frank Wennmohs         : Technical directorship


 We gratefully acknowledge several colleagues who have allowed us to
 interface, adapt or use parts of their codes:
   Stefan Grimme, W. Hujo, H. Kruse,             : VdW corrections, initial TS optimization,
                  C. Bannwarth                     DFT functionals, gCP, sTDA/sTD-DF
   Ed Valeev                                     : LibInt (2-el integral package), F12 methods
   Garnet Chan, S. Sharma, J. Yang, R. Olivares  : DMRG
   Ulf Ekstrom                                   : XCFun DFT Library
   Mihaly Kallay                                 : mrcc  (arbitrary order and MRCC methods)
   Andreas Klamt, Michael Diedenhofen            : otool_cosmo (COSMO solvation model)
   Jiri Pittner, Ondrej Demel                    : Mk-CCSD
   Frank Weinhold                                : gennbo (NPA and NBO analysis)
   Christopher J. Cramer and Donald G. Truhlar   : smd solvation model
   Lars Goerigk                                  : TD-DFT with DH, B97 family of functionals
   V. Asgeirsson, H. Jonsson                     : NEB implementation
   FAccTs GmbH                                   : IRC, NEB, NEB-TS, Multilevel


 Your calculation uses the libint2 library for the computation of 2-el integrals
 For citations please refer to: http://libint.valeyev.net

 This ORCA versions uses:
   CBLAS   interface :  Fast vector & matrix operations
   LAPACKE interface :  Fast linear algebra routines
   SCALAPACK package :  Parallel linear algebra routines


Your calculation utilizes the atom-pairwise dispersion correction
with the zero-damping scheme (D30)
Cite in your paper:
S.Grimme, J.Antony, S.Ehrlich and H.Krieg, J.Chem.Phys., 132, (2010), 154104 
   

XCFun DFT library Copyright 2009-2010 Ulf Ekstrom and contributors.
See http://admol.org/xcfun for more information. This is free soft-
ware; see the source code for copying conditions. There is ABSOLUTELY
NO WARRANTY; not even for MERCHANTABILITY or FITNESS FOR A PARTICULAR
PURPOSE. For details see the documentation. Scientific users of this 
library should cite U. Ekstrom, L. Visscher, R. Bast, A. J. Thorvald-
sen and K. Ruud; J.Chem.Theor.Comp. 2010, DOI: 10.1021/ct100117s
XCFun Version 0.99 
----- Orbital basis set information -----
Your calculation utilizes the basis: def2-TZVP
   F. Weigend and R. Ahlrichs, Phys. Chem. Chem. Phys. 7, 3297 (2005).

================================================================================
                                        WARNINGS
                       Please study these warnings very carefully!
================================================================================


WARNING: Geometry Optimization
  ===> : Switching off AutoStart
         For restart on a previous wavefunction, please use MOREAD

INFO   : the flag for use of LIBINT has been found!

================================================================================
                                       INPUT FILE
================================================================================
NAME = bonds_angles_[1[6[8][1][1]]]-[6[8[1]][1][1][1]]-[8[6[1][1][1]][1]]_6.in
|  1> #Run DFT geometry optimization
|  2> ! wB97X-D3 def2-TZVP TIGHTSCF Grid5 FinalGrid6 Opt CHELPG PAL4
|  3> 
|  4> %base "6_geo_opt"
|  5> %geom MaxIter 500
|  6> end
|  7> 
|  8> %geom
|  9>   Constraints
| 10>     { A 5 0 1 C }
| 11>   end
| 12> end
| 13> 
| 14> 
| 15> * xyz 0 1
| 16>   C                    3.011308             -1.180897            0.598492            
| 17>   O                    4.394526             -1.126943            0.874827            
| 18>   H                    4.772196             -0.379022            0.412493            
| 19>   H                    2.806434             -1.318965            -0.469350           
| 20>   H                    2.611632             -2.040265            1.135898            
| 21>   H                    2.485582             -0.284133            0.945984            
| 22> *
| 23> 
| 24>                          ****END OF INPUT****
================================================================================

                       *****************************
                       * Geometry Optimization Run *
                       *****************************

Geometry optimization settings:
Update method            Update   .... BFGS
Choice of coordinates    CoordSys .... Z-matrix Internals
Initial Hessian          InHess   .... Almoef's Model

Convergence Tolerances:
Energy Change            TolE     ....  5.0000e-06 Eh
Max. Gradient            TolMAXG  ....  3.0000e-04 Eh/bohr
RMS Gradient             TolRMSG  ....  1.0000e-04 Eh/bohr
Max. Displacement        TolMAXD  ....  4.0000e-03 bohr
RMS Displacement         TolRMSD  ....  2.0000e-03 bohr

------------------------------------------------------------------------------
                        ORCA OPTIMIZATION COORDINATE SETUP
------------------------------------------------------------------------------

The optimization will be done in new redundant internal coordinates
Making redundant internal coordinates   ...  (new redundants) done
Evaluating the initial hessian          ...  (Almloef) done
Evaluating the coordinates              ...  done
Calculating the B-matrix                .... done
Calculating the G-matrix                .... done
Diagonalizing the G-matrix              .... done
Imposing constraints:
 Iter   0:  RMS(Cart)=    0.0000000000 RMS(Int)=    0.0000000000
CONVERGED
The first mode is                       ....    3
The number of degrees of freedom        ....   12
Storing new coordinates                 .... done

    -----------------------------------------------------------------
                    Redundant Internal Coordinates


    -----------------------------------------------------------------
         Definition                    Initial Value    Approx d2E/dq
    -----------------------------------------------------------------
      1. B(O   1,C   0)                  1.4116         0.516943   
      2. B(H   2,O   1)                  0.9570         0.525795   
      3. B(H   3,C   0)                  1.0960         0.352187   
      4. B(H   4,C   0)                  1.0895         0.360732   
      5. B(H   5,C   0)                  1.0960         0.352186   
      6. A(O   1,C   0,H   4)          107.0408         0.340286   
      7. A(O   1,C   0,H   3)          112.2534         0.338927   
      8. A(O   1,C   0,H   5)          112.1282         0.338926 C 
      9. A(H   3,C   0,H   5)          108.8014         0.288819   
     10. A(H   4,C   0,H   5)          108.2407         0.289906   
     11. A(H   3,C   0,H   4)          108.2176         0.289907   
     12. A(C   0,O   1,H   2)          108.7852         0.359467   
     13. D(H   2,O   1,C   0,H   5)    -61.5137         0.021177   
     14. D(H   2,O   1,C   0,H   3)     61.3266         0.021177   
     15. D(H   2,O   1,C   0,H   4)    179.9282         0.021177   
    -----------------------------------------------------------------

Number of atoms                         .... 6
Number of degrees of freedom            .... 15

         *************************************************************
         *                GEOMETRY OPTIMIZATION CYCLE   1            *
         *************************************************************
---------------------------------
CARTESIAN COORDINATES (ANGSTROEM)
---------------------------------
  C      3.011308   -1.180897    0.598492
  O      4.394526   -1.126943    0.874827
  H      4.772196   -0.379022    0.412493
  H      2.806434   -1.318965   -0.469350
  H      2.611632   -2.040265    1.135898
  H      2.485582   -0.284133    0.945984

----------------------------
CARTESIAN COORDINATES (A.U.)
----------------------------
  NO LB      ZA    FRAG     MASS         X           Y           Z
   0 C     6.0000    0    12.011    5.690547   -2.231572    1.130986
   1 O     8.0000    0    15.999    8.304451   -2.129614    1.653183
   2 H     1.0000    0     1.008    9.018143   -0.716248    0.779499
   3 H     1.0000    0     1.008    5.303392   -2.492483   -0.886943
   4 H     1.0000    0     1.008    4.935269   -3.855542    2.146536
   5 H     1.0000    0     1.008    4.697069   -0.536934    1.787651

--------------------------------
INTERNAL COORDINATES (ANGSTROEM)
--------------------------------
 C      0   0   0     0.000000000000     0.00000000     0.00000000
 O      1   0   0     1.411582127212     0.00000000     0.00000000
 H      2   1   0     0.956960385124   108.78515314     0.00000000
 H      1   2   3     1.096048660172   112.25343418    61.32661110
 H      1   2   3     1.089522589594   107.04083313   179.92816827
 H      1   2   3     1.096049355110   112.12817900   298.48628189

---------------------------
INTERNAL COORDINATES (A.U.)
---------------------------
 C      0   0   0     0.000000000000     0.00000000     0.00000000
 O      1   0   0     2.667503635969     0.00000000     0.00000000
 H      2   1   0     1.808393048896   108.78515314     0.00000000
 H      1   2   3     2.071231797176   112.25343418    61.32661110
 H      1   2   3     2.058899311054   107.04083313   179.92816827
 H      1   2   3     2.071233110418   112.12817900   298.48628189

---------------------
BASIS SET INFORMATION
---------------------
There are 3 groups of distinct atoms

 Group   1 Type C   : 11s6p2d1f contracted to 5s3p2d1f pattern {62111/411/11/1}
 Group   2 Type O   : 11s6p2d1f contracted to 5s3p2d1f pattern {62111/411/11/1}
 Group   3 Type H   : 5s1p contracted to 3s1p pattern {311/1}

Atom   0C    basis set group =>   1
Atom   1O    basis set group =>   2
Atom   2H    basis set group =>   3
Atom   3H    basis set group =>   3
Atom   4H    basis set group =>   3
Atom   5H    basis set group =>   3


           ************************************************************
           *        Program running with 4 parallel MPI-processes     *
           *              working on a common directory               *
           ************************************************************
------------------------------------------------------------------------------
                           ORCA GTO INTEGRAL CALCULATION
------------------------------------------------------------------------------

                         BASIS SET STATISTICS AND STARTUP INFO

 # of primitive gaussian shells          ...   64
 # of primitive gaussian functions       ...  124
 # of contracted shells                  ...   38
 # of contracted basis functions         ...   86
 Highest angular momentum                ...    3
 Maximum contraction depth               ...    6
 Integral package used                   ... LIBINT
 Integral threshhold            Thresh   ...  2.500e-11
 Primitive cut-off              TCut     ...  2.500e-12


------------------------------ INTEGRAL EVALUATION ----------------------------


 * One electron integrals 
 Pre-screening matrix                    ... done
 Shell pair data                         ... done (   0.000 sec)



           ************************************************************
           *        Program running with 4 parallel MPI-processes     *
           *              working on a common directory               *
           ************************************************************
-------------------------------------------------------------------------------
                                 ORCA SCF
-------------------------------------------------------------------------------

------------
SCF SETTINGS
------------
Hamiltonian:
 Density Functional     Method          .... DFT(GTOs)
 Exchange Functional    Exchange        .... WB97X-D3
 Correlation Functional Correlation     .... WB97X-D3
 Gradients option       PostSCFGGA      .... off
 Hybrid DFT is turned on
   Fraction HF Exchange ScalHFX         ....  0.195728
   Scaling of DF-GGA-X  ScalDFX         ....  0.000000
   Scaling of DF-GGA-C  ScalDFC         ....  1.000000
   Scaling of DF-LDA-C  ScalLDAC        ....  1.000000
   Perturbative correction              ....  0.000000
   Density functional embedding theory  .... OFF
 Long-range corrected/Screened/Range-Separated Hybrid DFT is turned on
   Amount of maximum screened exact exchange              ....  0.804272
   Range separation parameter mu (erf(mu*r12)/r12)        ....  0.250000


General Settings:
 Integral files         IntName         .... 6_geo_opt
 Hartree-Fock type      HFTyp           .... RHF
 Total Charge           Charge          ....    0
 Multiplicity           Mult            ....    1
 Number of Electrons    NEL             ....   18
 Basis Dimension        Dim             ....   86
 Nuclear Repulsion      ENuc            ....     40.4412628579 Eh

Convergence Acceleration:
 DIIS                   CNVDIIS         .... on
   Start iteration      DIISMaxIt       ....    12
   Startup error        DIISStart       ....  0.200000
   # of expansion vecs  DIISMaxEq       ....     5
   Bias factor          DIISBfac        ....   1.050
   Max. coefficient     DIISMaxC        ....  10.000
 Newton-Raphson         CNVNR           .... off
 SOSCF                  CNVSOSCF        .... on
   Start iteration      SOSCFMaxIt      ....   150
   Startup grad/error   SOSCFStart      ....  0.003300
 Level Shifting         CNVShift        .... on
   Level shift para.    LevelShift      ....    0.2500
   Turn off err/grad.   ShiftErr        ....    0.0010
 Zerner damping         CNVZerner       .... off
 Static damping         CNVDamp         .... on
   Fraction old density DampFac         ....    0.7000
   Max. Damping (<1)    DampMax         ....    0.9800
   Min. Damping (>=0)   DampMin         ....    0.0000
   Turn off err/grad.   DampErr         ....    0.1000
 Fernandez-Rico         CNVRico         .... off

SCF Procedure:
 Maximum # iterations   MaxIter         ....   125
 SCF integral mode      SCFMode         .... Direct
   Integral package                     .... LIBINT
 Reset frequency        DirectResetFreq ....    20
 Integral Threshold     Thresh          ....  2.500e-11 Eh
 Primitive CutOff       TCut            ....  2.500e-12 Eh

Convergence Tolerance:
 Convergence Check Mode ConvCheckMode   .... Total+1el-Energy
 Convergence forced     ConvForced      .... 0
 Energy Change          TolE            ....  1.000e-08 Eh
 1-El. energy change                    ....  1.000e-05 Eh
 Orbital Gradient       TolG            ....  1.000e-05
 Orbital Rotation angle TolX            ....  1.000e-05
 DIIS Error             TolErr          ....  5.000e-07


Diagonalization of the overlap matrix:
Smallest eigenvalue                        ... 1.650e-03
Time for diagonalization                   ...    0.002 sec
Threshold for overlap eigenvalues          ... 1.000e-08
Number of eigenvalues below threshold      ... 0
Time for construction of square roots      ...    0.004 sec
Total time needed                          ...    0.006 sec

-------------------
DFT GRID GENERATION
-------------------

General Integration Accuracy     IntAcc      ...  5.010
Radial Grid Type                 RadialGrid  ... Gauss-Chebyshev
Angular Grid (max. acc.)         AngularGrid ... Lebedev-434
Angular grid pruning method      GridPruning ... 3 (G Style)
Weight generation scheme         WeightScheme... Becke
Basis function cutoff            BFCut       ...    1.0000e-11
Integration weight cutoff        WCut        ...    1.0000e-14
Grids for H and He will be reduced by one unit

# of grid points (after initial pruning)     ...  48308 (   0.0 sec)
# of grid points (after weights+screening)   ...  46674 (   0.0 sec)
nearest neighbour list constructed           ...    0.0 sec
Grid point re-assignment to atoms done       ...    0.0 sec
Grid point division into batches done        ...    0.3 sec
Reduced shell lists constructed in    0.3 sec

Total number of grid points                  ...    46674
Total number of batches                      ...      733
Average number of points per batch           ...       63
Average number of grid points per atom       ...     7779
Average number of shells per batch           ...    33.10 (87.11%)
Average number of basis functions per batch  ...    76.74 (89.23%)
Average number of large shells per batch     ...    30.55 (92.28%)
Average number of large basis fcns per batch ...    72.08 (93.93%)
Maximum spatial batch extension              ...  15.77, 14.99, 16.58 au
Average spatial batch extension              ...   0.40,  0.41,  0.43 au

Time for grid setup =    0.387 sec

------------------------------
INITIAL GUESS: MODEL POTENTIAL
------------------------------
Loading Hartree-Fock densities                     ... done
Calculating cut-offs                               ... done
Setting up the integral package                    ... done
Initializing the effective Hamiltonian             ... done
Starting the Coulomb interaction                   ... done (   0.0 sec)
Reading the grid                                   ... done
Mapping shells                                     ... done
Starting the XC term evaluation                    ... done (   0.1 sec)
  promolecular density results
     # of electrons  =     17.998045212
     EX              =    -14.430411412
     EC              =     -0.575128921
     EX+EC           =    -15.005540333
Transforming the Hamiltonian                       ... done (   0.0 sec)
Diagonalizing the Hamiltonian                      ... done (   0.0 sec)
Back transforming the eigenvectors                 ... done (   0.0 sec)
Now organizing SCF variables                       ... done
                      ------------------
                      INITIAL GUESS DONE (   0.6 sec)
                      ------------------
--------------
SCF ITERATIONS
--------------
ITER       Energy         Delta-E        Max-DP      RMS-DP      [F,P]     Damp
               ***  Starting incremental Fock matrix formation  ***
  0   -115.6511733030   0.000000000000 0.03698469  0.00147502  0.2524353 0.7000
  1   -115.6882562087  -0.037082905699 0.02203474  0.00104101  0.1262967 0.7000
                               ***Turning on DIIS***
  2   -115.7053274021  -0.017071193402 0.03156717  0.00188148  0.0491179 0.0000
  3   -115.7330751034  -0.027747701228 0.01774398  0.00068036  0.0611525 0.0000
  4   -115.7376008719  -0.004525768582 0.00406581  0.00013180  0.0065484 0.0000
                      *** Initiating the SOSCF procedure ***
                           *** Shutting down DIIS ***
                      *** Re-Reading the Fockian *** 
                      *** Removing any level shift *** 
ITER      Energy       Delta-E        Grad      Rot      Max-DP    RMS-DP
  5   -115.73769502  -0.0000941508  0.000489  0.000489  0.000677  0.000043
               *** Restarting incremental Fock matrix formation ***
  6   -115.73770316  -0.0000081372  0.000152  0.000202  0.000490  0.000026
  7   -115.73770388  -0.0000007222  0.000056  0.000109  0.000208  0.000011
  8   -115.73770394  -0.0000000575  0.000019  0.000017  0.000029  0.000001
  9   -115.73770395  -0.0000000055  0.000010  0.000008  0.000015  0.000001
 10   -115.73770395  -0.0000000015  0.000003  0.000003  0.000003  0.000000
                  ***Gradient check signals convergence***
              ***Rediagonalizing the Fockian in SOSCF/NRSCF***

               *****************************************************
               *                     SUCCESS                       *
               *           SCF CONVERGED AFTER  11 CYCLES          *
               *****************************************************

Setting up the final grid:

General Integration Accuracy     IntAcc      ...  5.340
Radial Grid Type                 RadialGrid  ... Gauss-Chebyshev
Angular Grid (max. acc.)         AngularGrid ... Lebedev-590
Angular grid pruning method      GridPruning ... 3 (G Style)
Weight generation scheme         WeightScheme... Becke
Basis function cutoff            BFCut       ...    1.0000e-11
Integration weight cutoff        WCut        ...    1.0000e-14
Grids for H and He will be reduced by one unit

# of grid points (after initial pruning)     ...  77324 (   0.0 sec)
# of grid points (after weights+screening)   ...  74512 (   0.0 sec)
nearest neighbour list constructed           ...    0.0 sec
Grid point re-assignment to atoms done       ...    0.0 sec
Grid point division into batches done        ...    0.8 sec
Reduced shell lists constructed in    0.9 sec

Total number of grid points                  ...    74512
Total number of batches                      ...     1167
Average number of points per batch           ...       63
Average number of grid points per atom       ...    12419
Average number of shells per batch           ...    32.92 (86.64%)
Average number of basis functions per batch  ...    76.29 (88.71%)
Average number of large shells per batch     ...    30.33 (92.12%)
Average number of large basis fcns per batch ...    71.49 (93.71%)
Maximum spatial batch extension              ...  13.18, 14.25, 15.48 au
Average spatial batch extension              ...   0.34,  0.36,  0.36 au

Final grid set up in    0.9 sec
Final integration                            ... done (   0.2 sec)
Change in XC energy                          ...    -0.000107593
Integrated number of electrons               ...    18.000000746
Previous integrated no of electrons          ...    18.000002272

----------------
TOTAL SCF ENERGY
----------------

Total Energy       :         -115.73781154 Eh           -3149.38596 eV

Components:
Nuclear Repulsion  :           40.44126286 Eh            1100.46271 eV
Electronic Energy  :         -156.17907440 Eh           -4249.84867 eV
One Electron Energy:         -237.30139831 Eh           -6457.29933 eV
Two Electron Energy:           81.12232391 Eh            2207.45066 eV

Virial components:
Potential Energy   :         -230.98942116 Eh           -6285.54170 eV
Kinetic Energy     :          115.25160962 Eh            3136.15574 eV
Virial Ratio       :            2.00421861


DFT components:
N(Alpha)           :        9.000000373167 electrons
N(Beta)            :        9.000000373167 electrons
N(Total)           :       18.000000746335 electrons
E(XC)              :      -10.655834684473 Eh       
DFET-embed. en.    :        0.000000000000 Eh       

---------------
SCF CONVERGENCE
---------------

  Last Energy change         ...   -8.1158e-11  Tolerance :   1.0000e-08
  Last MAX-Density change    ...    1.8554e-06  Tolerance :   1.0000e-07
  Last RMS-Density change    ...    7.8364e-08  Tolerance :   5.0000e-09
  Last Orbital Gradient      ...    1.3503e-06  Tolerance :   1.0000e-05
  Last Orbital Rotation      ...    7.8051e-07  Tolerance :   1.0000e-05

             **** THE GBW FILE WAS UPDATED (6_geo_opt.gbw) ****
             **** DENSITY FILE WAS UPDATED (6_geo_opt.scfp.tmp) ****
             **** ENERGY FILE WAS UPDATED (6_geo_opt.en.tmp) ****
----------------
ORBITAL ENERGIES
----------------

  NO   OCC          E(Eh)            E(eV) 
   0   2.0000     -19.227987      -523.2201 
   1   2.0000     -10.315128      -280.6889 
   2   2.0000      -1.136869       -30.9358 
   3   2.0000      -0.795399       -21.6439 
   4   2.0000      -0.611616       -16.6429 
   5   2.0000      -0.541821       -14.7437 
   6   2.0000      -0.526381       -14.3236 
   7   2.0000      -0.433748       -11.8029 
   8   2.0000      -0.373597       -10.1661 
   9   0.0000       0.116700         3.1756 
  10   0.0000       0.156718         4.2645 
  11   0.0000       0.202599         5.5130 
  12   0.0000       0.205095         5.5809 
  13   0.0000       0.226346         6.1592 
  14   0.0000       0.304337         8.2814 
  15   0.0000       0.313326         8.5260 
  16   0.0000       0.404545        11.0082 
  17   0.0000       0.452613        12.3162 
  18   0.0000       0.485080        13.1997 
  19   0.0000       0.535879        14.5820 
  20   0.0000       0.543668        14.7940 
  21   0.0000       0.567745        15.4491 
  22   0.0000       0.598541        16.2871 
  23   0.0000       0.603531        16.4229 
  24   0.0000       0.671403        18.2698 
  25   0.0000       0.779122        21.2010 
  26   0.0000       0.832255        22.6468 
  27   0.0000       0.861392        23.4397 
  28   0.0000       0.989535        26.9266 
  29   0.0000       1.013836        27.5879 
  30   0.0000       1.109803        30.1993 
  31   0.0000       1.382762        37.6269 
  32   0.0000       1.512928        41.1689 
  33   0.0000       1.553550        42.2743 
  34   0.0000       1.602887        43.6168 
  35   0.0000       1.613040        43.8931 
  36   0.0000       1.624054        44.1927 
  37   0.0000       1.660181        45.1758 
  38   0.0000       1.688191        45.9380 
  39   0.0000       1.774307        48.2813 
  40   0.0000       1.952218        53.1225 
  41   0.0000       2.030582        55.2549 
  42   0.0000       2.055141        55.9232 
  43   0.0000       2.094303        56.9889 
  44   0.0000       2.114754        57.5454 
  45   0.0000       2.268911        61.7402 
  46   0.0000       2.333458        63.4966 
  47   0.0000       2.345539        63.8254 
  48   0.0000       2.381135        64.7940 
  49   0.0000       2.429204        66.1020 
  50   0.0000       2.497709        67.9661 
  51   0.0000       2.596336        70.6499 
  52   0.0000       2.639971        71.8373 
  53   0.0000       2.707637        73.6786 
  54   0.0000       2.842236        77.3412 
  55   0.0000       2.871786        78.1453 
  56   0.0000       2.888271        78.5939 
  57   0.0000       2.992921        81.4415 
  58   0.0000       3.096110        84.2494 
  59   0.0000       3.173284        86.3494 
  60   0.0000       3.299235        89.7768 
  61   0.0000       3.408628        92.7535 
  62   0.0000       3.442355        93.6712 
  63   0.0000       3.488006        94.9135 
  64   0.0000       3.612806        98.3094 
  65   0.0000       3.645218        99.1914 
  66   0.0000       3.666984        99.7837 
  67   0.0000       4.006201       109.0143 
  68   0.0000       4.223516       114.9277 
  69   0.0000       4.273371       116.2843 
  70   0.0000       4.455974       121.2532 
  71   0.0000       4.564553       124.2078 
  72   0.0000       5.346000       145.4721 
  73   0.0000       5.425256       147.6287 
  74   0.0000       5.554911       151.1568 
  75   0.0000       5.826151       158.5376 
  76   0.0000       5.834508       158.7650 
  77   0.0000       5.985647       162.8777 
  78   0.0000       6.381360       173.6456 
  79   0.0000       6.531045       177.7188 
  80   0.0000       6.745093       183.5433 
  81   0.0000       6.804208       185.1519 
  82   0.0000       7.039497       191.5544 
  83   0.0000       7.216565       196.3727 
  84   0.0000      22.406106       609.7011 
  85   0.0000      43.664264      1188.1650 

                    ********************************
                    * MULLIKEN POPULATION ANALYSIS *
                    ********************************

-----------------------
MULLIKEN ATOMIC CHARGES
-----------------------
   0 C :   -0.150750
   1 O :   -0.477697
   2 H :    0.312950
   3 H :    0.098632
   4 H :    0.118238
   5 H :    0.098628
Sum of atomic charges:    0.0000000

--------------------------------
MULLIKEN REDUCED ORBITAL CHARGES
--------------------------------
  0 C s       :     3.223141  s :     3.223141
      pz      :     1.047187  p :     2.825950
      px      :     0.702192
      py      :     1.076572
      dz2     :     0.011099  d :     0.094238
      dxz     :     0.032472
      dyz     :     0.002652
      dx2y2   :     0.012762
      dxy     :     0.035252
      f0      :     0.001355  f :     0.007421
      f+1     :     0.000957
      f-1     :     0.000175
      f+2     :     0.001463
      f-2     :     0.000125
      f+3     :     0.001360
      f-3     :     0.001986
  1 O s       :     3.792561  s :     3.792561
      pz      :     1.758853  p :     4.652884
      px      :     1.313821
      py      :     1.580210
      dz2     :     0.003134  d :     0.030566
      dxz     :     0.006487
      dyz     :     0.005841
      dx2y2   :     0.008920
      dxy     :     0.006184
      f0      :     0.000269  f :     0.001687
      f+1     :     0.000233
      f-1     :     0.000087
      f+2     :     0.000287
      f-2     :     0.000236
      f+3     :     0.000368
      f-3     :     0.000207
  2 H s       :     0.639286  s :     0.639286
      pz      :     0.017027  p :     0.047763
      px      :     0.012745
      py      :     0.017991
  3 H s       :     0.882006  s :     0.882006
      pz      :     0.012072  p :     0.019362
      px      :     0.003006
      py      :     0.004284
  4 H s       :     0.861545  s :     0.861545
      pz      :     0.006296  p :     0.020217
      px      :     0.004193
      py      :     0.009728
  5 H s       :     0.882006  s :     0.882006
      pz      :     0.004930  p :     0.019366
      px      :     0.004972
      py      :     0.009464


                     *******************************
                     * LOEWDIN POPULATION ANALYSIS *
                     *******************************

----------------------
LOEWDIN ATOMIC CHARGES
----------------------
   0 C :   -0.385020
   1 O :   -0.075901
   2 H :    0.165415
   3 H :    0.093397
   4 H :    0.108688
   5 H :    0.093422

-------------------------------
LOEWDIN REDUCED ORBITAL CHARGES
-------------------------------
  0 C s       :     2.862969  s :     2.862969
      pz      :     1.096619  p :     3.052147
      px      :     0.846036
      py      :     1.109492
      dz2     :     0.072387  d :     0.412875
      dxz     :     0.113995
      dyz     :     0.020741
      dx2y2   :     0.082163
      dxy     :     0.123590
      f0      :     0.007815  f :     0.057029
      f+1     :     0.007161
      f-1     :     0.000853
      f+2     :     0.012526
      f-2     :     0.004841
      f+3     :     0.011739
      f-3     :     0.012094
  1 O s       :     3.365904  s :     3.365904
      pz      :     1.698646  p :     4.633781
      px      :     1.381244
      py      :     1.553891
      dz2     :     0.006127  d :     0.071570
      dxz     :     0.017878
      dyz     :     0.008105
      dx2y2   :     0.019320
      dxy     :     0.020139
      f0      :     0.000483  f :     0.004646
      f+1     :     0.000622
      f-1     :     0.000073
      f+2     :     0.001050
      f-2     :     0.000563
      f+3     :     0.000889
      f-3     :     0.000966
  2 H s       :     0.675238  s :     0.675238
      pz      :     0.055882  p :     0.159347
      px      :     0.033992
      py      :     0.069473
  3 H s       :     0.846779  s :     0.846779
      pz      :     0.036186  p :     0.059825
      px      :     0.009712
      py      :     0.013926
  4 H s       :     0.831718  s :     0.831718
      pz      :     0.019213  p :     0.059595
      px      :     0.011608
      py      :     0.028774
  5 H s       :     0.846760  s :     0.846760
      pz      :     0.015606  p :     0.059818
      px      :     0.015184
      py      :     0.029029


                      *****************************
                      * MAYER POPULATION ANALYSIS *
                      *****************************

  NA   - Mulliken gross atomic population
  ZA   - Total nuclear charge
  QA   - Mulliken gross atomic charge
  VA   - Mayer's total valence
  BVA  - Mayer's bonded valence
  FA   - Mayer's free valence

  ATOM       NA         ZA         QA         VA         BVA        FA
  0 C      6.1508     6.0000    -0.1508     3.9349     3.9349     0.0000
  1 O      8.4777     8.0000    -0.4777     1.8880     1.8880     0.0000
  2 H      0.6870     1.0000     0.3130     0.9137     0.9137     0.0000
  3 H      0.9014     1.0000     0.0986     0.9596     0.9596    -0.0000
  4 H      0.8818     1.0000     0.1182     0.9598     0.9598    -0.0000
  5 H      0.9014     1.0000     0.0986     0.9597     0.9597     0.0000

  Mayer bond orders larger than 0.1
B(  0-C ,  1-O ) :   0.9985 B(  0-C ,  3-H ) :   0.9755 B(  0-C ,  4-H ) :   0.9749 
B(  0-C ,  5-H ) :   0.9757 B(  1-O ,  2-H ) :   0.9003 

-------
TIMINGS
-------

Total SCF time: 0 days 0 hours 0 min 8 sec 

Total time                  ....       8.985 sec
Sum of individual times     ....       8.480 sec  ( 94.4%)

Fock matrix formation       ....       6.848 sec  ( 76.2%)
  XC integration            ....       1.948 sec  ( 28.5% of F)
    Basis function eval.    ....       0.416 sec  ( 21.3% of XC)
    Density eval.           ....       0.270 sec  ( 13.8% of XC)
    XC-Functional eval.     ....       0.681 sec  ( 34.9% of XC)
    XC-Potential eval.      ....       0.273 sec  ( 14.0% of XC)
Diagonalization             ....       0.047 sec  (  0.5%)
Density matrix formation    ....       0.002 sec  (  0.0%)
Population analysis         ....       0.011 sec  (  0.1%)
Initial guess               ....       0.169 sec  (  1.9%)
Orbital Transformation      ....       0.000 sec  (  0.0%)
Orbital Orthonormalization  ....       0.000 sec  (  0.0%)
DIIS solution               ....       0.024 sec  (  0.3%)
SOSCF solution              ....       0.043 sec  (  0.5%)
Grid generation             ....       1.336 sec  ( 14.9%)


-------------------------------------------------------------------------------
                          DFT DISPERSION CORRECTION                            
                                                                               
                              DFTD3 V3.1  Rev 1                                
                              USING zero damping                               
-------------------------------------------------------------------------------
The omegaB97X-D3 functional is recognized. Fit by Chai et al.
Active option DFTDOPT                   ...         3   

molecular C6(AA) [au] = 208.715353 


            DFT-D V3
 parameters
 s6 scaling factor         :     1.0000 
 rs6 scaling factor        :     1.2810 
 s8 scaling factor         :     1.0000 
 rs8 scaling factor        :     1.0940 
 Damping factor alpha6     :    14.0000 
 Damping factor alpha8     :    16.0000 
 ad hoc parameters k1-k3   :    16.0000     1.3333    -4.0000 

 Edisp/kcal,au: -0.150058460376  -0.000239133353 
 E6   /kcal   :  -0.029593873 
 E8   /kcal   :  -0.120464587 
 % E8         :  80.278437254 

-------------------------   ----------------
Dispersion correction           -0.000239133
-------------------------   ----------------


-------------------------   --------------------
FINAL SINGLE POINT ENERGY      -115.738050673421
-------------------------   --------------------



           ************************************************************
           *        Program running with 4 parallel MPI-processes     *
           *              working on a common directory               *
           ************************************************************
------------------------------------------------------------------------------
                         ORCA SCF GRADIENT CALCULATION
------------------------------------------------------------------------------

Gradient of the Kohn-Sham DFT energy:
Kohn-Sham wavefunction type      ... RKS
Hartree-Fock exchange scaling    ...    0.196
Number of operators              ...    1
Number of atoms                  ...    6
Basis set dimensions             ...   86
Integral neglect threshold       ... 2.5e-11
Integral primitive cutoff        ... 2.5e-12

Nuclear repulsion gradient       ... done
One Electron Gradient            ... done
Pre-screening matrix             ... done
Starting the two electron gradient:
Two electron gradient done
Exchange-correlation gradient    ... done
Dispersion correction            ... done

------------------
CARTESIAN GRADIENT
------------------

   1   C   :   -0.000168819   -0.000191008   -0.000129287
   2   O   :    0.000169284    0.000599895   -0.000218125
   3   H   :   -0.000166169   -0.000441867    0.000279384
   4   H   :   -0.000018168   -0.000010587   -0.000004408
   5   H   :    0.000009077   -0.000027840   -0.000002396
   6   H   :    0.000174795    0.000071407    0.000074832

Difference to translation invariance:
           :    0.0000000000   -0.0000000000    0.0000000000

Norm of the cartesian gradient     ...    0.0009280621
RMS gradient                       ...    0.0002187463
MAX gradient                       ...    0.0005998950

-------
TIMINGS
-------

Total SCF gradient time            ...        1.851 sec

One electron gradient       ....       0.005 sec  (  0.3%)
Prescreening matrices       ....       0.024 sec  (  1.3%)
Two electron gradient       ....       0.840 sec  ( 45.4%)
XC gradient                 ....       0.695 sec  ( 37.5%)
------------------------------------------------------------------------------
                         ORCA GEOMETRY RELAXATION STEP
------------------------------------------------------------------------------

Reading the OPT-File                    .... done
Getting information on internals        .... done
Copying old internal coords+grads       .... done
Making the new internal coordinates     .... (new redundants).... done
Validating the new internal coordinates .... (new redundants).... done
Calculating the B-matrix                .... done
Calculating the G,G- and P matrices     .... done
Transforming gradient to internals      .... done
Projecting the internal gradient        .... done
Number of atoms                         ....   6
Number of internal coordinates          ....  15
Current Energy                          ....  -115.738050673 Eh
Current gradient norm                   ....     0.000928062 Eh/bohr
Maximum allowed component of the step   ....  0.300
Current trust radius                    ....  0.300
Evaluating the initial hessian          ....  (Almloef) done
Projecting the Hessian                  .... done
Forming the augmented Hessian           .... done
Diagonalizing the augmented Hessian     .... done
Last element of RFO vector              ....  0.999999372
Lowest eigenvalues of augmented Hessian:
 -0.000000606  0.021176560  0.183654128  0.198032580  0.317846180
Length of the computed step             ....  0.001120819
The final length of the internal step   ....  0.001120819
Converting the step to cartesian space:
 Initial RMS(Int)=    0.0002893942
Transforming coordinates:
 Iter   0:  RMS(Cart)=    0.0002191176 RMS(Int)=    0.0002893885
 Iter   1:  RMS(Cart)=    0.0000000483 RMS(Int)=    0.0000000507
Imposing constraints:
 Iter   0:  RMS(Cart)=    0.0000000011 RMS(Int)=    0.0000000009
CONVERGED
done
Storing new coordinates                 .... done

                                .--------------------.
          ----------------------|Geometry convergence|-------------------------
          Item                value                   Tolerance       Converged
          ---------------------------------------------------------------------
          RMS gradient        0.0001440296            0.0001000000      NO
          MAX gradient        0.0005464432            0.0003000000      NO
          RMS step            0.0002893942            0.0020000000      YES
          MAX step            0.0010392697            0.0040000000      YES
          ........................................................
          Max(Bonds)      0.0005      Max(Angles)    0.02
          Max(Dihed)        0.01      Max(Improp)    0.00
          ---------------------------------------------------------------------

       The step convergence is overachieved with 
       reasonable convergence on the gradient
       Convergence will therefore be signaled now


                    ***********************HURRAY********************
                    ***        THE OPTIMIZATION HAS CONVERGED     ***
                    *************************************************


    ---------------------------------------------------------------------------
                         Redundant Internal Coordinates

                          --- Optimized Parameters ---  
                            (Angstroem and degrees)

        Definition                    OldVal   dE/dq     Step     FinalVal
    ----------------------------------------------------------------------------
     1. B(O   1,C   0)                1.4116  0.000021 -0.0000    1.4116   
     2. B(H   2,O   1)                0.9570 -0.000546  0.0005    0.9575   
     3. B(H   3,C   0)                1.0960  0.000009 -0.0000    1.0960   
     4. B(H   4,C   0)                1.0895  0.000017 -0.0000    1.0895   
     5. B(H   5,C   0)                1.0960 -0.000002  0.0000    1.0961   
     6. A(O   1,C   0,H   4)          107.04  0.000028    0.01    107.05   
     7. A(O   1,C   0,H   3)          112.25  0.000091   -0.00    112.25   
     8. A(O   1,C   0,H   5)          112.13 -0.000315   -0.00    112.13 C 
     9. A(H   3,C   0,H   5)          108.80  0.000100   -0.00    108.80   
    10. A(H   4,C   0,H   5)          108.24  0.000096   -0.00    108.24   
    11. A(H   3,C   0,H   4)          108.22  0.000009    0.00    108.22   
    12. A(C   0,O   1,H   2)          108.79  0.000098   -0.02    108.77   
    13. D(H   2,O   1,C   0,H   5)    -61.51 -0.000006    0.01    -61.50   
    14. D(H   2,O   1,C   0,H   3)     61.33 -0.000042    0.00     61.33   
    15. D(H   2,O   1,C   0,H   4)    179.93  0.000039    0.01    179.94   
    ----------------------------------------------------------------------------
                 *******************************************************
                 *** FINAL ENERGY EVALUATION AT THE STATIONARY POINT ***
                 ***               (AFTER    1 CYCLES)               ***
                 *******************************************************
---------------------------------
CARTESIAN COORDINATES (ANGSTROEM)
---------------------------------
  C      3.011309   -1.180985    0.598538
  O      4.394503   -1.127167    0.874906
  H      4.772216   -0.378714    0.412329
  H      2.806536   -1.318949   -0.469322
  H      2.611447   -2.040257    1.135908
  H      2.485666   -0.284152    0.945985

----------------------------
CARTESIAN COORDINATES (A.U.)
----------------------------
  NO LB      ZA    FRAG     MASS         X           Y           Z
   0 C     6.0000    0    12.011    5.690549   -2.231738    1.131073
   1 O     8.0000    0    15.999    8.304408   -2.130038    1.653333
   2 H     1.0000    0     1.008    9.018181   -0.715666    0.779189
   3 H     1.0000    0     1.008    5.303585   -2.492453   -0.886891
   4 H     1.0000    0     1.008    4.934920   -3.855527    2.146555
   5 H     1.0000    0     1.008    4.697228   -0.536969    1.787653

--------------------------------
INTERNAL COORDINATES (ANGSTROEM)
--------------------------------
 C      0   0   0     0.000000000000     0.00000000     0.00000000
 O      1   0   0     1.411560218119     0.00000000     0.00000000
 H      2   1   0     0.957510342970   108.76952601     0.00000000
 H      1   2   3     1.096034749709   112.24892803    61.33065642
 H      1   2   3     1.089497198125   107.04608852   179.93847160
 H      1   2   3     1.096051950524   112.12817907   298.49704520

---------------------------
INTERNAL COORDINATES (A.U.)
---------------------------
 C      0   0   0     0.000000000000     0.00000000     0.00000000
 O      1   0   0     2.667462233783     0.00000000     0.00000000
 H      2   1   0     1.809432318611   108.76952601     0.00000000
 H      1   2   3     2.071205510212   112.24892803    61.33065642
 H      1   2   3     2.058851328131   107.04608852   179.93847160
 H      1   2   3     2.071238015040   112.12817907   298.49704520

---------------------
BASIS SET INFORMATION
---------------------
There are 3 groups of distinct atoms

 Group   1 Type C   : 11s6p2d1f contracted to 5s3p2d1f pattern {62111/411/11/1}
 Group   2 Type O   : 11s6p2d1f contracted to 5s3p2d1f pattern {62111/411/11/1}
 Group   3 Type H   : 5s1p contracted to 3s1p pattern {311/1}

Atom   0C    basis set group =>   1
Atom   1O    basis set group =>   2
Atom   2H    basis set group =>   3
Atom   3H    basis set group =>   3
Atom   4H    basis set group =>   3
Atom   5H    basis set group =>   3


           ************************************************************
           *        Program running with 4 parallel MPI-processes     *
           *              working on a common directory               *
           ************************************************************
------------------------------------------------------------------------------
                           ORCA GTO INTEGRAL CALCULATION
------------------------------------------------------------------------------

                         BASIS SET STATISTICS AND STARTUP INFO

 # of primitive gaussian shells          ...   64
 # of primitive gaussian functions       ...  124
 # of contracted shells                  ...   38
 # of contracted basis functions         ...   86
 Highest angular momentum                ...    3
 Maximum contraction depth               ...    6
 Integral package used                   ... LIBINT
 Integral threshhold            Thresh   ...  2.500e-11
 Primitive cut-off              TCut     ...  2.500e-12


------------------------------ INTEGRAL EVALUATION ----------------------------


 * One electron integrals 
 Pre-screening matrix                    ... done
 Shell pair data                         ... done (   0.000 sec)



           ************************************************************
           *        Program running with 4 parallel MPI-processes     *
           *              working on a common directory               *
           ************************************************************
-------------------------------------------------------------------------------
                                 ORCA SCF
-------------------------------------------------------------------------------

------------
SCF SETTINGS
------------
Hamiltonian:
 Density Functional     Method          .... DFT(GTOs)
 Exchange Functional    Exchange        .... WB97X-D3
 Correlation Functional Correlation     .... WB97X-D3
 Gradients option       PostSCFGGA      .... off
 Hybrid DFT is turned on
   Fraction HF Exchange ScalHFX         ....  0.195728
   Scaling of DF-GGA-X  ScalDFX         ....  0.000000
   Scaling of DF-GGA-C  ScalDFC         ....  1.000000
   Scaling of DF-LDA-C  ScalLDAC        ....  1.000000
   Perturbative correction              ....  0.000000
   Density functional embedding theory  .... OFF
 Long-range corrected/Screened/Range-Separated Hybrid DFT is turned on
   Amount of maximum screened exact exchange              ....  0.804272
   Range separation parameter mu (erf(mu*r12)/r12)        ....  0.250000


General Settings:
 Integral files         IntName         .... 6_geo_opt
 Hartree-Fock type      HFTyp           .... RHF
 Total Charge           Charge          ....    0
 Multiplicity           Mult            ....    1
 Number of Electrons    NEL             ....   18
 Basis Dimension        Dim             ....   86
 Nuclear Repulsion      ENuc            ....     40.4389898780 Eh

Convergence Acceleration:
 DIIS                   CNVDIIS         .... on
   Start iteration      DIISMaxIt       ....    12
   Startup error        DIISStart       ....  0.200000
   # of expansion vecs  DIISMaxEq       ....     5
   Bias factor          DIISBfac        ....   1.050
   Max. coefficient     DIISMaxC        ....  10.000
 Newton-Raphson         CNVNR           .... off
 SOSCF                  CNVSOSCF        .... on
   Start iteration      SOSCFMaxIt      ....   150
   Startup grad/error   SOSCFStart      ....  0.003300
 Level Shifting         CNVShift        .... on
   Level shift para.    LevelShift      ....    0.2500
   Turn off err/grad.   ShiftErr        ....    0.0010
 Zerner damping         CNVZerner       .... off
 Static damping         CNVDamp         .... on
   Fraction old density DampFac         ....    0.7000
   Max. Damping (<1)    DampMax         ....    0.9800
   Min. Damping (>=0)   DampMin         ....    0.0000
   Turn off err/grad.   DampErr         ....    0.1000
 Fernandez-Rico         CNVRico         .... off

SCF Procedure:
 Maximum # iterations   MaxIter         ....   125
 SCF integral mode      SCFMode         .... Direct
   Integral package                     .... LIBINT
 Reset frequency        DirectResetFreq ....    20
 Integral Threshold     Thresh          ....  2.500e-11 Eh
 Primitive CutOff       TCut            ....  2.500e-12 Eh

Convergence Tolerance:
 Convergence Check Mode ConvCheckMode   .... Total+1el-Energy
 Convergence forced     ConvForced      .... 0
 Energy Change          TolE            ....  1.000e-08 Eh
 1-El. energy change                    ....  1.000e-05 Eh
 Orbital Gradient       TolG            ....  1.000e-05
 Orbital Rotation angle TolX            ....  1.000e-05
 DIIS Error             TolErr          ....  5.000e-07


Diagonalization of the overlap matrix:
Smallest eigenvalue                        ... 1.650e-03
Time for diagonalization                   ...    0.002 sec
Threshold for overlap eigenvalues          ... 1.000e-08
Number of eigenvalues below threshold      ... 0
Time for construction of square roots      ...    0.004 sec
Total time needed                          ...    0.006 sec

---------------------
INITIAL GUESS: MOREAD
---------------------
Guess MOs are being read from file: 6_geo_opt.gbw
Input Geometry matches current geometry (good)
Input basis set matches current basis set (good)
MOs were renormalized
MOs were reorthogonalized (Cholesky)
                      ------------------
                      INITIAL GUESS DONE (   0.0 sec)
                      ------------------
-------------------
DFT GRID GENERATION
-------------------

General Integration Accuracy     IntAcc      ...  5.010
Radial Grid Type                 RadialGrid  ... Gauss-Chebyshev
Angular Grid (max. acc.)         AngularGrid ... Lebedev-434
Angular grid pruning method      GridPruning ... 3 (G Style)
Weight generation scheme         WeightScheme... Becke
Basis function cutoff            BFCut       ...    1.0000e-11
Integration weight cutoff        WCut        ...    1.0000e-14
Grids for H and He will be reduced by one unit

# of grid points (after initial pruning)     ...  48308 (   0.0 sec)
# of grid points (after weights+screening)   ...  46674 (   0.0 sec)
nearest neighbour list constructed           ...    0.0 sec
Grid point re-assignment to atoms done       ...    0.0 sec
Grid point division into batches done        ...    0.3 sec
Reduced shell lists constructed in    0.3 sec

Total number of grid points                  ...    46674
Total number of batches                      ...      733
Average number of points per batch           ...       63
Average number of grid points per atom       ...     7779
Average number of shells per batch           ...    33.11 (87.14%)
Average number of basis functions per batch  ...    76.75 (89.24%)
Average number of large shells per batch     ...    30.56 (92.30%)
Average number of large basis fcns per batch ...    72.14 (94.00%)
Maximum spatial batch extension              ...  15.77, 14.99, 16.58 au
Average spatial batch extension              ...   0.41,  0.40,  0.43 au

Time for grid setup =    0.381 sec

--------------
SCF ITERATIONS
--------------
ITER       Energy         Delta-E        Max-DP      RMS-DP      [F,P]     Damp
               ***  Starting incremental Fock matrix formation  ***
                      *** Initiating the SOSCF procedure ***
                      *** Re-Reading the Fockian *** 
                      *** Removing any level shift *** 
ITER      Energy       Delta-E        Grad      Rot      Max-DP    RMS-DP
  0   -115.73770415 -115.7377041489  0.000104  0.000104  0.000077  0.000003
               *** Restarting incremental Fock matrix formation ***
  1   -115.73770424  -0.0000000878  0.000026  0.000027  0.000040  0.000002
  2   -115.73770424  -0.0000000071  0.000023  0.000016  0.000024  0.000001
                  ***Gradient check signals convergence***
              ***Rediagonalizing the Fockian in SOSCF/NRSCF***

               *****************************************************
               *                     SUCCESS                       *
               *           SCF CONVERGED AFTER   3 CYCLES          *
               *****************************************************

Setting up the final grid:

General Integration Accuracy     IntAcc      ...  5.340
Radial Grid Type                 RadialGrid  ... Gauss-Chebyshev
Angular Grid (max. acc.)         AngularGrid ... Lebedev-590
Angular grid pruning method      GridPruning ... 3 (G Style)
Weight generation scheme         WeightScheme... Becke
Basis function cutoff            BFCut       ...    1.0000e-11
Integration weight cutoff        WCut        ...    1.0000e-14
Grids for H and He will be reduced by one unit

# of grid points (after initial pruning)     ...  77324 (   0.0 sec)
# of grid points (after weights+screening)   ...  74511 (   0.0 sec)
nearest neighbour list constructed           ...    0.0 sec
Grid point re-assignment to atoms done       ...    0.0 sec
Grid point division into batches done        ...    0.8 sec
Reduced shell lists constructed in    0.8 sec

Total number of grid points                  ...    74511
Total number of batches                      ...     1167
Average number of points per batch           ...       63
Average number of grid points per atom       ...    12418
Average number of shells per batch           ...    32.94 (86.67%)
Average number of basis functions per batch  ...    76.36 (88.79%)
Average number of large shells per batch     ...    30.30 (92.01%)
Average number of large basis fcns per batch ...    71.51 (93.64%)
Maximum spatial batch extension              ...  13.18, 14.25, 15.48 au
Average spatial batch extension              ...   0.34,  0.36,  0.37 au

Final grid set up in    0.9 sec
Final integration                            ... done (   0.2 sec)
Change in XC energy                          ...    -0.000107608
Integrated number of electrons               ...    18.000000747
Previous integrated no of electrons          ...    18.000002275

----------------
TOTAL SCF ENERGY
----------------

Total Energy       :         -115.73781186 Eh           -3149.38597 eV

Components:
Nuclear Repulsion  :           40.43898988 Eh            1100.40086 eV
Electronic Energy  :         -156.17680174 Eh           -4249.78683 eV
One Electron Energy:         -237.29742219 Eh           -6457.19114 eV
Two Electron Energy:           81.12062046 Eh            2207.40430 eV

Virial components:
Potential Energy   :         -230.98857054 Eh           -6285.51855 eV
Kinetic Energy     :          115.25075868 Eh            3136.13258 eV
Virial Ratio       :            2.00422603


DFT components:
N(Alpha)           :        9.000000373351 electrons
N(Beta)            :        9.000000373351 electrons
N(Total)           :       18.000000746702 electrons
E(XC)              :      -10.655652101543 Eh       
DFET-embed. en.    :        0.000000000000 Eh       

---------------
SCF CONVERGENCE
---------------

  Last Energy change         ...   -5.4847e-09  Tolerance :   1.0000e-08
  Last MAX-Density change    ...    4.3355e-06  Tolerance :   1.0000e-07
  Last RMS-Density change    ...    1.9327e-07  Tolerance :   5.0000e-09
  Last Orbital Gradient      ...    1.8589e-06  Tolerance :   1.0000e-05
  Last Orbital Rotation      ...    2.9658e-06  Tolerance :   1.0000e-05

             **** THE GBW FILE WAS UPDATED (6_geo_opt.gbw) ****
             **** DENSITY FILE WAS UPDATED (6_geo_opt.scfp.tmp) ****
             **** ENERGY FILE WAS UPDATED (6_geo_opt.en.tmp) ****
----------------
ORBITAL ENERGIES
----------------

  NO   OCC          E(Eh)            E(eV) 
   0   2.0000     -19.228038      -523.2215 
   1   2.0000     -10.315110      -280.6884 
   2   2.0000      -1.136778       -30.9333 
   3   2.0000      -0.795339       -21.6423 
   4   2.0000      -0.611554       -16.6412 
   5   2.0000      -0.541814       -14.7435 
   6   2.0000      -0.526370       -14.3233 
   7   2.0000      -0.433744       -11.8028 
   8   2.0000      -0.373576       -10.1655 
   9   0.0000       0.116638         3.1739 
  10   0.0000       0.156701         4.2641 
  11   0.0000       0.202601         5.5131 
  12   0.0000       0.205096         5.5809 
  13   0.0000       0.226327         6.1587 
  14   0.0000       0.304351         8.2818 
  15   0.0000       0.313321         8.5259 
  16   0.0000       0.404542        11.0081 
  17   0.0000       0.452605        12.3160 
  18   0.0000       0.484925        13.1955 
  19   0.0000       0.535881        14.5821 
  20   0.0000       0.543638        14.7931 
  21   0.0000       0.567700        15.4479 
  22   0.0000       0.598537        16.2870 
  23   0.0000       0.603553        16.4235 
  24   0.0000       0.671311        18.2673 
  25   0.0000       0.779141        21.2015 
  26   0.0000       0.832196        22.6452 
  27   0.0000       0.861402        23.4399 
  28   0.0000       0.989522        26.9263 
  29   0.0000       1.013834        27.5878 
  30   0.0000       1.109815        30.1996 
  31   0.0000       1.382657        37.6240 
  32   0.0000       1.512839        41.1664 
  33   0.0000       1.553516        42.2733 
  34   0.0000       1.602878        43.6165 
  35   0.0000       1.613051        43.8933 
  36   0.0000       1.624061        44.1929 
  37   0.0000       1.660374        45.1811 
  38   0.0000       1.688215        45.9387 
  39   0.0000       1.774449        48.2852 
  40   0.0000       1.952192        53.1219 
  41   0.0000       2.030474        55.2520 
  42   0.0000       2.055128        55.9229 
  43   0.0000       2.094340        56.9899 
  44   0.0000       2.114677        57.5433 
  45   0.0000       2.268669        61.7336 
  46   0.0000       2.333519        63.4983 
  47   0.0000       2.345565        63.8261 
  48   0.0000       2.381050        64.7917 
  49   0.0000       2.429203        66.1020 
  50   0.0000       2.497724        67.9665 
  51   0.0000       2.596198        70.6461 
  52   0.0000       2.639947        71.8366 
  53   0.0000       2.707204        73.6668 
  54   0.0000       2.841975        77.3341 
  55   0.0000       2.871759        78.1445 
  56   0.0000       2.888098        78.5891 
  57   0.0000       2.992838        81.4393 
  58   0.0000       3.096130        84.2500 
  59   0.0000       3.173199        86.3471 
  60   0.0000       3.299248        89.7771 
  61   0.0000       3.408635        92.7537 
  62   0.0000       3.442112        93.6646 
  63   0.0000       3.487983        94.9128 
  64   0.0000       3.612859        98.3109 
  65   0.0000       3.645246        99.1922 
  66   0.0000       3.666917        99.7819 
  67   0.0000       4.005631       108.9987 
  68   0.0000       4.223560       114.9289 
  69   0.0000       4.273355       116.2839 
  70   0.0000       4.455933       121.2521 
  71   0.0000       4.564447       124.2049 
  72   0.0000       5.346050       145.4734 
  73   0.0000       5.425282       147.6294 
  74   0.0000       5.554466       151.1447 
  75   0.0000       5.826205       158.5391 
  76   0.0000       5.834230       158.7575 
  77   0.0000       5.985506       162.8739 
  78   0.0000       6.379698       173.6004 
  79   0.0000       6.530996       177.7174 
  80   0.0000       6.744918       183.5386 
  81   0.0000       6.804226       185.1524 
  82   0.0000       7.039438       191.5528 
  83   0.0000       7.215995       196.3572 
  84   0.0000      22.406233       609.7046 
  85   0.0000      43.664391      1188.1685 

                    ********************************
                    * MULLIKEN POPULATION ANALYSIS *
                    ********************************

-----------------------
MULLIKEN ATOMIC CHARGES
-----------------------
   0 C :   -0.150774
   1 O :   -0.477740
   2 H :    0.313029
   3 H :    0.098628
   4 H :    0.118235
   5 H :    0.098621
Sum of atomic charges:    0.0000000

--------------------------------
MULLIKEN REDUCED ORBITAL CHARGES
--------------------------------
  0 C s       :     3.223141  s :     3.223141
      pz      :     1.047175  p :     2.825964
      px      :     0.702206
      py      :     1.076583
      dz2     :     0.011104  d :     0.094248
      dxz     :     0.032476
      dyz     :     0.002651
      dx2y2   :     0.012760
      dxy     :     0.035258
      f0      :     0.001355  f :     0.007421
      f+1     :     0.000957
      f-1     :     0.000175
      f+2     :     0.001463
      f-2     :     0.000125
      f+3     :     0.001361
      f-3     :     0.001985
  1 O s       :     3.792724  s :     3.792724
      pz      :     1.758853  p :     4.652759
      px      :     1.313838
      py      :     1.580068
      dz2     :     0.003134  d :     0.030572
      dxz     :     0.006486
      dyz     :     0.005843
      dx2y2   :     0.008925
      dxy     :     0.006184
      f0      :     0.000269  f :     0.001686
      f+1     :     0.000233
      f-1     :     0.000087
      f+2     :     0.000287
      f-2     :     0.000236
      f+3     :     0.000367
      f-3     :     0.000207
  2 H s       :     0.639277  s :     0.639277
      pz      :     0.017002  p :     0.047693
      px      :     0.012724
      py      :     0.017968
  3 H s       :     0.882009  s :     0.882009
      pz      :     0.012073  p :     0.019362
      px      :     0.003006
      py      :     0.004284
  4 H s       :     0.861547  s :     0.861547
      pz      :     0.006296  p :     0.020218
      px      :     0.004194
      py      :     0.009727
  5 H s       :     0.882013  s :     0.882013
      pz      :     0.004930  p :     0.019366
      px      :     0.004971
      py      :     0.009465


                     *******************************
                     * LOEWDIN POPULATION ANALYSIS *
                     *******************************

----------------------
LOEWDIN ATOMIC CHARGES
----------------------
   0 C :   -0.385107
   1 O :   -0.076149
   2 H :    0.165773
   3 H :    0.093390
   4 H :    0.108677
   5 H :    0.093417

-------------------------------
LOEWDIN REDUCED ORBITAL CHARGES
-------------------------------
  0 C s       :     2.862968  s :     2.862968
      pz      :     1.096607  p :     3.052179
      px      :     0.846073
      py      :     1.109499
      dz2     :     0.072410  d :     0.412925
      dxz     :     0.114004
      dyz     :     0.020733
      dx2y2   :     0.082168
      dxy     :     0.123610
      f0      :     0.007817  f :     0.057034
      f+1     :     0.007163
      f-1     :     0.000853
      f+2     :     0.012527
      f-2     :     0.004841
      f+3     :     0.011740
      f-3     :     0.012094
  1 O s       :     3.366214  s :     3.366214
      pz      :     1.698663  p :     4.633724
      px      :     1.381329
      py      :     1.553731
      dz2     :     0.006128  d :     0.071566
      dxz     :     0.017877
      dyz     :     0.008102
      dx2y2   :     0.019323
      dxy     :     0.020136
      f0      :     0.000483  f :     0.004644
      f+1     :     0.000623
      f-1     :     0.000073
      f+2     :     0.001050
      f-2     :     0.000562
      f+3     :     0.000889
      f-3     :     0.000966
  2 H s       :     0.675138  s :     0.675138
      pz      :     0.055782  p :     0.159089
      px      :     0.033918
      py      :     0.069388
  3 H s       :     0.846784  s :     0.846784
      pz      :     0.036188  p :     0.059826
      px      :     0.009712
      py      :     0.013926
  4 H s       :     0.831724  s :     0.831724
      pz      :     0.019213  p :     0.059600
      px      :     0.011613
      py      :     0.028773
  5 H s       :     0.846766  s :     0.846766
      pz      :     0.015605  p :     0.059817
      px      :     0.015182
      py      :     0.029030


                      *****************************
                      * MAYER POPULATION ANALYSIS *
                      *****************************

  NA   - Mulliken gross atomic population
  ZA   - Total nuclear charge
  QA   - Mulliken gross atomic charge
  VA   - Mayer's total valence
  BVA  - Mayer's bonded valence
  FA   - Mayer's free valence

  ATOM       NA         ZA         QA         VA         BVA        FA
  0 C      6.1508     6.0000    -0.1508     3.9349     3.9349    -0.0000
  1 O      8.4777     8.0000    -0.4777     1.8879     1.8879    -0.0000
  2 H      0.6870     1.0000     0.3130     0.9136     0.9136     0.0000
  3 H      0.9014     1.0000     0.0986     0.9596     0.9596    -0.0000
  4 H      0.8818     1.0000     0.1182     0.9598     0.9598     0.0000
  5 H      0.9014     1.0000     0.0986     0.9597     0.9597    -0.0000

  Mayer bond orders larger than 0.1
B(  0-C ,  1-O ) :   0.9986 B(  0-C ,  3-H ) :   0.9755 B(  0-C ,  4-H ) :   0.9749 
B(  0-C ,  5-H ) :   0.9757 B(  1-O ,  2-H ) :   0.9002 

-------
TIMINGS
-------

Total SCF time: 0 days 0 hours 0 min 4 sec 

Total time                  ....       4.108 sec
Sum of individual times     ....       3.798 sec  ( 92.4%)

Fock matrix formation       ....       2.481 sec  ( 60.4%)
  XC integration            ....       0.774 sec  ( 31.2% of F)
    Basis function eval.    ....       0.169 sec  ( 21.8% of XC)
    Density eval.           ....       0.107 sec  ( 13.9% of XC)
    XC-Functional eval.     ....       0.272 sec  ( 35.1% of XC)
    XC-Potential eval.      ....       0.107 sec  ( 13.8% of XC)
Diagonalization             ....       0.007 sec  (  0.2%)
Density matrix formation    ....       0.001 sec  (  0.0%)
Population analysis         ....       0.018 sec  (  0.4%)
Initial guess               ....       0.004 sec  (  0.1%)
Orbital Transformation      ....       0.000 sec  (  0.0%)
Orbital Orthonormalization  ....       0.002 sec  (  0.0%)
DIIS solution               ....       0.000 sec  (  0.0%)
SOSCF solution              ....       0.007 sec  (  0.2%)
Grid generation             ....       1.280 sec  ( 31.1%)


-------------------------------------------------------------------------------
                          DFT DISPERSION CORRECTION                            
                                                                               
                              DFTD3 V3.1  Rev 1                                
                              USING zero damping                               
-------------------------------------------------------------------------------
The omegaB97X-D3 functional is recognized. Fit by Chai et al.
Active option DFTDOPT                   ...         3   

molecular C6(AA) [au] = 208.715755 


            DFT-D V3
 parameters
 s6 scaling factor         :     1.0000 
 rs6 scaling factor        :     1.2810 
 s8 scaling factor         :     1.0000 
 rs8 scaling factor        :     1.0940 
 Damping factor alpha6     :    14.0000 
 Damping factor alpha8     :    16.0000 
 ad hoc parameters k1-k3   :    16.0000     1.3333    -4.0000 

 Edisp/kcal,au: -0.150050515153  -0.000239120691 
 E6   /kcal   :  -0.029603091 
 E8   /kcal   :  -0.120447424 
 % E8         :  80.271249828 

-------------------------   ----------------
Dispersion correction           -0.000239121
-------------------------   ----------------


-------------------------   --------------------
FINAL SINGLE POINT ENERGY      -115.738050978319
-------------------------   --------------------

                                *** OPTIMIZATION RUN DONE ***

                            ***************************************
                            *     ORCA property calculations      *
                            ***************************************

                                    ---------------------
                                    Active property flags
                                    ---------------------
   (+) Dipole Moment


------------------------------------------------------------------------------
                       ORCA ELECTRIC PROPERTIES CALCULATION
------------------------------------------------------------------------------

Dipole Moment Calculation                       ... on
Quadrupole Moment Calculation                   ... off
Polarizability Calculation                      ... off
GBWName                                         ... 6_geo_opt.gbw
Electron density file                           ... 6_geo_opt.scfp.tmp
The origin for moment calculation is the CENTER OF MASS  = ( 7.033174, -2.139233  1.369893)

-------------
DIPOLE MOMENT
-------------
                                X             Y             Z
Electronic contribution:      1.75496      -0.02801       0.42004
Nuclear contribution   :     -2.06466       0.47485      -0.81847
                        -----------------------------------------
Total Dipole Moment    :     -0.30969       0.44684      -0.39843
                        -----------------------------------------
Magnitude (a.u.)       :      0.67403
Magnitude (Debye)      :      1.71325



--------------------
Rotational spectrum 
--------------------
 
Rotational constants in cm-1:     4.292339     0.833858     0.804986 
Rotational constants in MHz : 128681.085701 24998.442183 24132.863488 

 Dipole components along the rotational axes: 
x,y,z [a.u.] :    -0.332778     0.586154     0.000186 
x,y,z [Debye]:    -0.845853     1.489884     0.000472 

 
------------------------------------------------------------------------------
                      ORCA CHELPG CHARGES GENERATION
------------------------------------------------------------------------------

GBW file                           ... 6_geo_opt.gbw

Reading the GBW file               ... done

Grid spacing                       ...     0.300000
Point Cut-Off                      ...     2.800000
Van-der-Waals Radii                ...        COSMO
Total charge                       ...            0


Number of points X direction       ...           26
Number of points Y direction       ...           24
Number of points Z direction       ...           24
Maximum number of possible points  ...        14976
Final number of points             ...         5948


CHELPG Charges            
--------------------------------
  0   C   :       0.091856
  1   O   :      -0.606468
  2   H   :       0.403768
  3   H   :       0.014974
  4   H   :       0.081471
  5   H   :       0.014399
--------------------------------
Total charge:     0.000000
--------------------------------

CHELPG charges calculated...

Timings for individual parts in CHELPG calculation:
Grid generation                 ...        0.001 sec (=   0.000 min)
Potential calculation           ...        0.629 sec (=   0.010 min)
Fit to the potential            ...        0.004 sec (=   0.000 min)
------------------------------------------------------------------------------


Timings for individual modules:

Sum of individual times         ...       32.116 sec (=   0.535 min)
GTO integral calculation        ...        5.562 sec (=   0.093 min)  17.3 %
SCF iterations                  ...       18.812 sec (=   0.314 min)  58.6 %
SCF Gradient evaluation         ...        3.760 sec (=   0.063 min)  11.7 %
Geometry relaxation             ...        3.096 sec (=   0.052 min)   9.6 %
CHELPG charge generation        ...        0.886 sec (=   0.015 min)   2.8 %
                             ****ORCA TERMINATED NORMALLY****
TOTAL RUN TIME: 0 days 0 hours 0 minutes 35 seconds 295 msec
