
                                 *****************
                                 * O   R   C   A *
                                 *****************

           --- An Ab Initio, DFT and Semiempirical electronic structure package ---

                  #######################################################
                  #                        -***-                        #
                  #          Department of theory and spectroscopy      #
                  #               Directorship: Frank Neese             #
                  #        Max Planck Institute fuer Kohlenforschung    #
                  #                Kaiser Wilhelm Platz 1               #
                  #                 D-45470 Muelheim/Ruhr               #
                  #                      Germany                        #
                  #                                                     #
                  #                  All rights reserved                #
                  #                        -***-                        #
                  #######################################################


                         Program Version 4.1.2  - RELEASE  -


 With contributions from (in alphabetic order):
   Daniel Aravena         : Magnetic Properties
   Michael Atanasov       : Ab Initio Ligand Field Theory
   Alexander A. Auer      : GIAO ZORA
   Ute Becker             : Parallelization
   Giovanni Bistoni       : ED, Open-shell LED
   Martin Brehm           : Molecular dynamics
   Dmytro Bykov           : SCF Hessian
   Vijay G. Chilkuri      : MRCI spin determinant printing
   Dipayan Datta          : RHF DLPNO-CCSD density
   Achintya Kumar Dutta   : EOM-CC, STEOM-CC
   Dmitry Ganyushin       : Spin-Orbit,Spin-Spin,Magnetic field MRCI
   Miquel Garcia          : C-PCM Hessian
   Yang Guo               : DLPNO-NEVPT2, CIM, IAO-localization
   Andreas Hansen         : Spin unrestricted coupled pair/coupled cluster methods
   Benjamin Helmich-Paris : CASSCF linear response (MC-RPA)
   Lee Huntington         : MR-EOM, pCC
   Robert Izsak           : Overlap fitted RIJCOSX, COSX-SCS-MP3, EOM
   Christian Kollmar      : KDIIS, OOCD, Brueckner-CCSD(T), CCSD density
   Simone Kossmann        : Meta GGA functionals, TD-DFT gradient, OOMP2, MP2 Hessian
   Martin Krupicka        : AUTO-CI
   Lucas Lang             : DCDCAS
   Dagmar Lenk            : GEPOL surface, SMD
   Dimitrios Liakos       : Extrapolation schemes; parallel MDCI
   Dimitrios Manganas     : ROCIS; embedding schemes
   Dimitrios Pantazis     : SARC Basis sets
   Taras Petrenko         : DFT Hessian,TD-DFT gradient, ASA, ECA, R-Raman, ABS, FL, XAS/XES, NRVS
   Peter Pinski           : DLPNO-MP2, DLPNO-MP2 Gradient
   Christoph Reimann      : Effective Core Potentials
   Marius Retegan         : Local ZFS, SOC
   Christoph Riplinger    : Optimizer, TS searches, QM/MM, DLPNO-CCSD(T), (RO)-DLPNO pert. Triples
   Tobias Risthaus        : Range-separated hybrids, TD-DFT gradient, RPA, STAB
   Michael Roemelt        : Restricted open shell CIS
   Masaaki Saitow         : Open-shell DLPNO
   Barbara Sandhoefer     : DKH picture change effects
   Avijit Sen             : IP-ROCIS
   Kantharuban Sivalingam : CASSCF convergence, NEVPT2, FIC-MRCI
   Bernardo de Souza      : ESD, SOC TD-DFT
   Georgi Stoychev        : AutoAux, RI-MP2 NMR
   Willem Van den Heuvel  : Paramagnetic NMR
   Boris Wezisla          : Elementary symmetry handling
   Frank Wennmohs         : Technical directorship


 We gratefully acknowledge several colleagues who have allowed us to
 interface, adapt or use parts of their codes:
   Stefan Grimme, W. Hujo, H. Kruse,             : VdW corrections, initial TS optimization,
                  C. Bannwarth                     DFT functionals, gCP, sTDA/sTD-DF
   Ed Valeev                                     : LibInt (2-el integral package), F12 methods
   Garnet Chan, S. Sharma, J. Yang, R. Olivares  : DMRG
   Ulf Ekstrom                                   : XCFun DFT Library
   Mihaly Kallay                                 : mrcc  (arbitrary order and MRCC methods)
   Andreas Klamt, Michael Diedenhofen            : otool_cosmo (COSMO solvation model)
   Jiri Pittner, Ondrej Demel                    : Mk-CCSD
   Frank Weinhold                                : gennbo (NPA and NBO analysis)
   Christopher J. Cramer and Donald G. Truhlar   : smd solvation model
   Lars Goerigk                                  : TD-DFT with DH, B97 family of functionals
   V. Asgeirsson, H. Jonsson                     : NEB implementation
   FAccTs GmbH                                   : IRC, NEB, NEB-TS, Multilevel


 Your calculation uses the libint2 library for the computation of 2-el integrals
 For citations please refer to: http://libint.valeyev.net

 This ORCA versions uses:
   CBLAS   interface :  Fast vector & matrix operations
   LAPACKE interface :  Fast linear algebra routines
   SCALAPACK package :  Parallel linear algebra routines


Your calculation utilizes the atom-pairwise dispersion correction
with the zero-damping scheme (D30)
Cite in your paper:
S.Grimme, J.Antony, S.Ehrlich and H.Krieg, J.Chem.Phys., 132, (2010), 154104 
   

XCFun DFT library Copyright 2009-2010 Ulf Ekstrom and contributors.
See http://admol.org/xcfun for more information. This is free soft-
ware; see the source code for copying conditions. There is ABSOLUTELY
NO WARRANTY; not even for MERCHANTABILITY or FITNESS FOR A PARTICULAR
PURPOSE. For details see the documentation. Scientific users of this 
library should cite U. Ekstrom, L. Visscher, R. Bast, A. J. Thorvald-
sen and K. Ruud; J.Chem.Theor.Comp. 2010, DOI: 10.1021/ct100117s
XCFun Version 0.99 
----- Orbital basis set information -----
Your calculation utilizes the basis: def2-TZVP
   F. Weigend and R. Ahlrichs, Phys. Chem. Chem. Phys. 7, 3297 (2005).

================================================================================
                                        WARNINGS
                       Please study these warnings very carefully!
================================================================================


INFO   : the flag for use of LIBINT has been found!

Your calculation utilizes the atom-pairwise dispersion correction
with the zero-damping scheme (D30)
Cite in your paper:
S.Grimme, J.Antony, S.Ehrlich and H.Krieg, J.Chem.Phys., 132, (2010), 154104 
   

XCFun DFT library Copyright 2009-2010 Ulf Ekstrom and contributors.
See http://admol.org/xcfun for more information. This is free soft-
ware; see the source code for copying conditions. There is ABSOLUTELY
NO WARRANTY; not even for MERCHANTABILITY or FITNESS FOR A PARTICULAR
PURPOSE. For details see the documentation. Scientific users of this 
library should cite U. Ekstrom, L. Visscher, R. Bast, A. J. Thorvald-
sen and K. Ruud; J.Chem.Theor.Comp. 2010, DOI: 10.1021/ct100117s
XCFun Version 0.99 
----- Orbital basis set information -----
Your calculation utilizes the basis: def2-TZVP
   F. Weigend and R. Ahlrichs, Phys. Chem. Chem. Phys. 7, 3297 (2005).

================================================================================
                                        WARNINGS
                       Please study these warnings very carefully!
================================================================================


WARNING: MOInp is set but Guess=PModel. MOInp will be ignored!
         To read the initial guess from a file you must also specify
         'MORead' in the simple input or 'Guess MORead' in the %scf block


INFO   : the flag for use of LIBINT has been found!

Your calculation utilizes the atom-pairwise dispersion correction
with the zero-damping scheme (D30)
Cite in your paper:
S.Grimme, J.Antony, S.Ehrlich and H.Krieg, J.Chem.Phys., 132, (2010), 154104 
   

XCFun DFT library Copyright 2009-2010 Ulf Ekstrom and contributors.
See http://admol.org/xcfun for more information. This is free soft-
ware; see the source code for copying conditions. There is ABSOLUTELY
NO WARRANTY; not even for MERCHANTABILITY or FITNESS FOR A PARTICULAR
PURPOSE. For details see the documentation. Scientific users of this 
library should cite U. Ekstrom, L. Visscher, R. Bast, A. J. Thorvald-
sen and K. Ruud; J.Chem.Theor.Comp. 2010, DOI: 10.1021/ct100117s
XCFun Version 0.99 
----- Orbital basis set information -----
Your calculation utilizes the basis: def2-TZVP
   F. Weigend and R. Ahlrichs, Phys. Chem. Chem. Phys. 7, 3297 (2005).

================================================================================
                                        WARNINGS
                       Please study these warnings very carefully!
================================================================================


WARNING: MOInp is set but Guess=PModel. MOInp will be ignored!
         To read the initial guess from a file you must also specify
         'MORead' in the simple input or 'Guess MORead' in the %scf block


INFO   : the flag for use of LIBINT has been found!

================================================================================
                                       INPUT FILE
================================================================================
NAME = 9-161.in
|  1> #Run DFT-D3 single point of the dimer
|  2> ! wB97X-D3 def2-TZVP TIGHTSCF CHELPG PMODEL PAL8
|  3> 
|  4> %base "9-161_DFT_AB"
|  5> 
|  6> %scf
|  7> MaxIter 1000
|  8> end
|  9> 
| 10> * xyz 0 1
| 11>   C                      -3.437521            1.743393             9.429279            
| 12>   O                      -2.392920            2.601094             8.968135            
| 13>   H                      -2.789431            3.445956             8.752653            
| 14>   H                      -3.842162            2.153886             10.347907           
| 15>   H                      -4.226505            1.590673             8.576255            
| 16>   H                      -3.060894            0.726974             9.753936            
| 17>   C                      -3.634617            5.482813             6.223014            
| 18>   O                      -3.845451            4.558936             7.253444            
| 19>   H                      -3.837731            5.120619             8.113329            
| 20>   H                      -2.854401            6.247456             6.538076            
| 21>   H                      -3.288832            4.977465             5.315011            
| 22>   H                      -4.539207            5.985702             5.839303            
| 23> *
| 24> 
| 25> #Run DFT-D3 single point of the molecule with dimer basis set
| 26> $new_job
| 27> %base "9-161_DFT_A"
| 28> ! wB97X-D3 def2-TZVP TIGHTSCF CHELPG PMODEL
| 29> 
| 30> %scf
| 31> MaxIter 1000
| 32> end
| 33> 
| 34> * xyz 0 1
| 35>   C                      -3.437521            1.743393             9.429279            
| 36>   O                      -2.392920            2.601094             8.968135            
| 37>   H                      -2.789431            3.445956             8.752653            
| 38>   H                      -3.842162            2.153886             10.347907           
| 39>   H                      -4.226505            1.590673             8.576255            
| 40>   H                      -3.060894            0.726974             9.753936            
| 41>   C                    : -3.634617            5.482813             6.223014            
| 42>   O                    : -3.845451            4.558936             7.253444            
| 43>   H                    : -3.837731            5.120619             8.113329            
| 44>   H                    : -2.854401            6.247456             6.538076            
| 45>   H                    : -3.288832            4.977465             5.315011            
| 46>   H                    : -4.539207            5.985702             5.839303            
| 47> *
| 48> 
| 49> #Run DFT-D3 single point of the particle with dimer basis set
| 50> $new_job
| 51> %base "9-161_DFT_B"
| 52> ! wB97X-D3 def2-TZVP TIGHTSCF CHELPG PMODEL
| 53> 
| 54> %scf
| 55> MaxIter 1000
| 56> end
| 57> 
| 58> * xyz 0 1
| 59>   C                    : -3.437521            1.743393             9.429279            
| 60>   O                    : -2.392920            2.601094             8.968135            
| 61>   H                    : -2.789431            3.445956             8.752653            
| 62>   H                    : -3.842162            2.153886             10.347907           
| 63>   H                    : -4.226505            1.590673             8.576255            
| 64>   H                    : -3.060894            0.726974             9.753936            
| 65>   C                      -3.634617            5.482813             6.223014            
| 66>   O                      -3.845451            4.558936             7.253444            
| 67>   H                      -3.837731            5.120619             8.113329            
| 68>   H                      -2.854401            6.247456             6.538076            
| 69>   H                      -3.288832            4.977465             5.315011            
| 70>   H                      -4.539207            5.985702             5.839303            
| 71> *
| 72> 
| 73>                          ****END OF INPUT****
================================================================================


                 $$$$$$$$$$$$$$$$$$$$$$$$$$$$$$$$$$$$$$$$$$$$$$ 
                 $ THERE ARE  3 JOBS TO BE PROCESSED THIS RUN $
                 $$$$$$$$$$$$$$$$$$$$$$$$$$$$$$$$$$$$$$$$$$$$$$ 




                 $$$$$$$$$$$$$$$$  JOB NUMBER  1 $$$$$$$$$$$$$$


                       ****************************
                       * Single Point Calculation *
                       ****************************

---------------------------------
CARTESIAN COORDINATES (ANGSTROEM)
---------------------------------
  C     -3.437521    1.743393    9.429279
  O     -2.392920    2.601094    8.968135
  H     -2.789431    3.445956    8.752653
  H     -3.842162    2.153886   10.347907
  H     -4.226505    1.590673    8.576255
  H     -3.060894    0.726974    9.753936
  C     -3.634617    5.482813    6.223014
  O     -3.845451    4.558936    7.253444
  H     -3.837731    5.120619    8.113329
  H     -2.854401    6.247456    6.538076
  H     -3.288832    4.977465    5.315011
  H     -4.539207    5.985702    5.839303

----------------------------
CARTESIAN COORDINATES (A.U.)
----------------------------
  NO LB      ZA    FRAG     MASS         X           Y           Z
   0 C     6.0000    0    12.011   -6.495973    3.294535   17.818755
   1 O     8.0000    0    15.999   -4.521963    4.915355   16.947319
   2 H     1.0000    0     1.008   -5.271261    6.511913   16.540117
   3 H     1.0000    0     1.008   -7.260634    4.070255   19.554710
   4 H     1.0000    0     1.008   -7.986937    3.005936   16.206773
   5 H     1.0000    0     1.008   -5.784251    1.373782   18.432268
   6 C     6.0000    0    12.011   -6.868431   10.361015   11.759792
   7 O     8.0000    0    15.999   -7.266849    8.615141   13.707023
   8 H     1.0000    0     1.008   -7.252261    9.676568   15.331970
   9 H     1.0000    0     1.008   -5.394036   11.805981   12.355173
  10 H     1.0000    0     1.008   -6.214992    9.406046   10.043915
  11 H     1.0000    0     1.008   -8.577858   11.311337   11.034683

--------------------------------
INTERNAL COORDINATES (ANGSTROEM)
--------------------------------
 C      0   0   0     0.000000000000     0.00000000     0.00000000
 O      1   0   0     1.428109254692     0.00000000     0.00000000
 H      2   1   0     0.957833630903   107.43319613     0.00000000
 H      1   2   3     1.084488932315   108.60912379   295.78866068
 H      1   2   3     1.171950978169   109.61301318    61.55585297
 H      1   2   3     1.131528898588   112.87185290   182.50315199
 C      3   2   1     3.355920035306   144.01715217   251.13209538
 O      7   3   2     1.399923452045    23.44333824   104.12434985
 H      8   7   3     1.027107396582   104.72580187    79.84650818
 H      7   3   2     1.136960855944    91.51754878   247.43664473
 H      7   3   2     1.095177298586   105.38932595   357.48702482
 H      7   3   2     1.103818167065   138.15417411   123.52910501

---------------------------
INTERNAL COORDINATES (A.U.)
---------------------------
 C      0   0   0     0.000000000000     0.00000000     0.00000000
 O      1   0   0     2.698735380687     0.00000000     0.00000000
 H      2   1   0     1.810043244266   107.43319613     0.00000000
 H      1   2   3     2.049387077344   108.60912379   295.78866068
 H      1   2   3     2.214666391121   109.61301318    61.55585297
 H      1   2   3     2.138279730948   112.87185290   182.50315199
 C      3   2   1     6.341769794067   144.01715217   251.13209538
 O      7   3   2     2.645471932818    23.44333824   104.12434985
 H      8   7   3     1.940951689665   104.72580187    79.84650818
 H      7   3   2     2.148544642723    91.51754878   247.43664473
 H      7   3   2     2.069585162415   105.38932595   357.48702482
 H      7   3   2     2.085914037399   138.15417411   123.52910501

---------------------
BASIS SET INFORMATION
---------------------
There are 3 groups of distinct atoms

 Group   1 Type C   : 11s6p2d1f contracted to 5s3p2d1f pattern {62111/411/11/1}
 Group   2 Type O   : 11s6p2d1f contracted to 5s3p2d1f pattern {62111/411/11/1}
 Group   3 Type H   : 5s1p contracted to 3s1p pattern {311/1}

Atom   0C    basis set group =>   1
Atom   1O    basis set group =>   2
Atom   2H    basis set group =>   3
Atom   3H    basis set group =>   3
Atom   4H    basis set group =>   3
Atom   5H    basis set group =>   3
Atom   6C    basis set group =>   1
Atom   7O    basis set group =>   2
Atom   8H    basis set group =>   3
Atom   9H    basis set group =>   3
Atom  10H    basis set group =>   3
Atom  11H    basis set group =>   3


           ************************************************************
           *        Program running with 8 parallel MPI-processes     *
           *              working on a common directory               *
           ************************************************************
------------------------------------------------------------------------------
                           ORCA GTO INTEGRAL CALCULATION
------------------------------------------------------------------------------

                         BASIS SET STATISTICS AND STARTUP INFO

 # of primitive gaussian shells          ...  128
 # of primitive gaussian functions       ...  248
 # of contracted shells                  ...   76
 # of contracted basis functions         ...  172
 Highest angular momentum                ...    3
 Maximum contraction depth               ...    6
 Integral package used                   ... LIBINT
 Integral threshhold            Thresh   ...  2.500e-11
 Primitive cut-off              TCut     ...  2.500e-12


------------------------------ INTEGRAL EVALUATION ----------------------------


 * One electron integrals 
 Pre-screening matrix                    ... done
 Shell pair data                         ... done (   0.001 sec)



           ************************************************************
           *        Program running with 8 parallel MPI-processes     *
           *              working on a common directory               *
           ************************************************************
-------------------------------------------------------------------------------
                                 ORCA SCF
-------------------------------------------------------------------------------

------------
SCF SETTINGS
------------
Hamiltonian:
 Density Functional     Method          .... DFT(GTOs)
 Exchange Functional    Exchange        .... WB97X-D3
 Correlation Functional Correlation     .... WB97X-D3
 Gradients option       PostSCFGGA      .... off
 Hybrid DFT is turned on
   Fraction HF Exchange ScalHFX         ....  0.195728
   Scaling of DF-GGA-X  ScalDFX         ....  0.000000
   Scaling of DF-GGA-C  ScalDFC         ....  1.000000
   Scaling of DF-LDA-C  ScalLDAC        ....  1.000000
   Perturbative correction              ....  0.000000
   Density functional embedding theory  .... OFF
 Long-range corrected/Screened/Range-Separated Hybrid DFT is turned on
   Amount of maximum screened exact exchange              ....  0.804272
   Range separation parameter mu (erf(mu*r12)/r12)        ....  0.250000


General Settings:
 Integral files         IntName         .... 9-161_DFT_AB
 Hartree-Fock type      HFTyp           .... RHF
 Total Charge           Charge          ....    0
 Multiplicity           Mult            ....    1
 Number of Electrons    NEL             ....   36
 Basis Dimension        Dim             ....  172
 Nuclear Repulsion      ENuc            ....    125.0147662598 Eh

Convergence Acceleration:
 DIIS                   CNVDIIS         .... on
   Start iteration      DIISMaxIt       ....    12
   Startup error        DIISStart       ....  0.200000
   # of expansion vecs  DIISMaxEq       ....     5
   Bias factor          DIISBfac        ....   1.050
   Max. coefficient     DIISMaxC        ....  10.000
 Newton-Raphson         CNVNR           .... off
 SOSCF                  CNVSOSCF        .... on
   Start iteration      SOSCFMaxIt      ....   150
   Startup grad/error   SOSCFStart      ....  0.003300
 Level Shifting         CNVShift        .... on
   Level shift para.    LevelShift      ....    0.2500
   Turn off err/grad.   ShiftErr        ....    0.0010
 Zerner damping         CNVZerner       .... off
 Static damping         CNVDamp         .... on
   Fraction old density DampFac         ....    0.7000
   Max. Damping (<1)    DampMax         ....    0.9800
   Min. Damping (>=0)   DampMin         ....    0.0000
   Turn off err/grad.   DampErr         ....    0.1000
 Fernandez-Rico         CNVRico         .... off

SCF Procedure:
 Maximum # iterations   MaxIter         ....  1000
 SCF integral mode      SCFMode         .... Direct
   Integral package                     .... LIBINT
 Reset frequency        DirectResetFreq ....    20
 Integral Threshold     Thresh          ....  2.500e-11 Eh
 Primitive CutOff       TCut            ....  2.500e-12 Eh

Convergence Tolerance:
 Convergence Check Mode ConvCheckMode   .... Total+1el-Energy
 Convergence forced     ConvForced      .... 0
 Energy Change          TolE            ....  1.000e-08 Eh
 1-El. energy change                    ....  1.000e-05 Eh
 Orbital Gradient       TolG            ....  1.000e-05
 Orbital Rotation angle TolX            ....  1.000e-05
 DIIS Error             TolErr          ....  5.000e-07


Diagonalization of the overlap matrix:
Smallest eigenvalue                        ... 1.783e-03
Time for diagonalization                   ...    0.019 sec
Threshold for overlap eigenvalues          ... 1.000e-08
Number of eigenvalues below threshold      ... 0
Time for construction of square roots      ...    0.019 sec
Total time needed                          ...    0.037 sec

-------------------
DFT GRID GENERATION
-------------------

General Integration Accuracy     IntAcc      ...  4.340
Radial Grid Type                 RadialGrid  ... Gauss-Chebyshev
Angular Grid (max. acc.)         AngularGrid ... Lebedev-110
Angular grid pruning method      GridPruning ... 3 (G Style)
Weight generation scheme         WeightScheme... Becke
Basis function cutoff            BFCut       ...    1.0000e-11
Integration weight cutoff        WCut        ...    1.0000e-14
Grids for H and He will be reduced by one unit

# of grid points (after initial pruning)     ...  13096 (   0.0 sec)
# of grid points (after weights+screening)   ...  12531 (   0.0 sec)
nearest neighbour list constructed           ...    0.0 sec
Grid point re-assignment to atoms done       ...    0.0 sec
Grid point division into batches done        ...    0.0 sec
Reduced shell lists constructed in    0.0 sec

Total number of grid points                  ...    12531
Total number of batches                      ...      203
Average number of points per batch           ...       61
Average number of grid points per atom       ...     1044
Average number of shells per batch           ...    50.22 (66.08%)
Average number of basis functions per batch  ...   111.85 (65.03%)
Average number of large shells per batch     ...    40.56 (80.75%)
Average number of large basis fcns per batch ...    89.00 (79.57%)
Maximum spatial batch extension              ...  13.52, 13.78, 19.20 au
Average spatial batch extension              ...   0.36,  0.37,  0.39 au

Time for grid setup =    0.046 sec

------------------------------
INITIAL GUESS: MODEL POTENTIAL
------------------------------
Loading Hartree-Fock densities                     ... done
Calculating cut-offs                               ... done
Setting up the integral package                    ... done
Initializing the effective Hamiltonian             ... done
Starting the Coulomb interaction                   ... done (   0.0 sec)
Reading the grid                                   ... done
Mapping shells                                     ... done
Starting the XC term evaluation                    ... done (   0.0 sec)
  promolecular density results
     # of electrons  =     35.992828906
     EX              =    -28.827061532
     EC              =     -1.150964436
     EX+EC           =    -29.978025968
Transforming the Hamiltonian                       ... done (   0.0 sec)
Diagonalizing the Hamiltonian                      ... done (   0.0 sec)
Back transforming the eigenvectors                 ... done (   0.0 sec)
Now organizing SCF variables                       ... done
                      ------------------
                      INITIAL GUESS DONE (   0.2 sec)
                      ------------------
--------------
SCF ITERATIONS
--------------
ITER       Energy         Delta-E        Max-DP      RMS-DP      [F,P]     Damp
               ***  Starting incremental Fock matrix formation  ***
  0   -231.2973866587   0.000000000000 0.03678320  0.00105158  0.2378481 0.7000
  1   -231.3676354093  -0.070248750681 0.02272332  0.00074573  0.1159328 0.7000
                               ***Turning on DIIS***
  2   -231.3996149116  -0.031979502272 0.03506431  0.00133048  0.0481677 0.0000
  3   -231.4514059013  -0.051790989700 0.01803387  0.00049673  0.0615741 0.0000
  4   -231.4601551310  -0.008749229673 0.00401515  0.00009966  0.0059791 0.0000
                      *** Initiating the SOSCF procedure ***
                           *** Shutting down DIIS ***
                      *** Re-Reading the Fockian *** 
                      *** Removing any level shift *** 
ITER      Energy       Delta-E        Grad      Rot      Max-DP    RMS-DP
  5   -231.46033705  -0.0001819164  0.000420  0.000420  0.000896  0.000036
               *** Restarting incremental Fock matrix formation ***
  6   -231.46035512  -0.0000180677  0.000160  0.000310  0.000737  0.000022
  7   -231.46035711  -0.0000019984  0.000064  0.000207  0.000396  0.000011
  8   -231.46035729  -0.0000001787  0.000035  0.000026  0.000066  0.000002
  9   -231.46035733  -0.0000000382  0.000015  0.000017  0.000026  0.000001
 10   -231.46035734  -0.0000000062  0.000004  0.000008  0.000007  0.000000
                  ***Gradient check signals convergence***
              ***Rediagonalizing the Fockian in SOSCF/NRSCF***

               *****************************************************
               *                     SUCCESS                       *
               *           SCF CONVERGED AFTER  11 CYCLES          *
               *****************************************************

Setting up the final grid:

General Integration Accuracy     IntAcc      ...  4.670
Radial Grid Type                 RadialGrid  ... Gauss-Chebyshev
Angular Grid (max. acc.)         AngularGrid ... Lebedev-302
Angular grid pruning method      GridPruning ... 3 (G Style)
Weight generation scheme         WeightScheme... Becke
Basis function cutoff            BFCut       ...    1.0000e-11
Integration weight cutoff        WCut        ...    1.0000e-14
Grids for H and He will be reduced by one unit

# of grid points (after initial pruning)     ...  52000 (   0.0 sec)
# of grid points (after weights+screening)   ...  49328 (   0.0 sec)
nearest neighbour list constructed           ...    0.0 sec
Grid point re-assignment to atoms done       ...    0.0 sec
Grid point division into batches done        ...    0.2 sec
Reduced shell lists constructed in    0.2 sec

Total number of grid points                  ...    49328
Total number of batches                      ...      776
Average number of points per batch           ...       63
Average number of grid points per atom       ...     4111
Average number of shells per batch           ...    47.81 (62.90%)
Average number of basis functions per batch  ...   105.77 (61.49%)
Average number of large shells per batch     ...    38.27 (80.04%)
Average number of large basis fcns per batch ...    83.98 (79.40%)
Maximum spatial batch extension              ...  13.93, 13.44, 16.05 au
Average spatial batch extension              ...   0.25,  0.26,  0.28 au

Final grid set up in    0.3 sec
Final integration                            ... done (   0.1 sec)
Change in XC energy                          ...    -0.000027219
Integrated number of electrons               ...    36.000013856
Previous integrated no of electrons          ...    35.997630345

----------------
TOTAL SCF ENERGY
----------------

Total Energy       :         -231.46038456 Eh           -6298.35727 eV

Components:
Nuclear Repulsion  :          125.01476626 Eh            3401.82474 eV
Electronic Energy  :         -356.47515082 Eh           -9700.18200 eV
One Electron Energy:         -562.90684077 Eh          -15317.47386 eV
Two Electron Energy:          206.43168996 Eh            5617.29186 eV

Virial components:
Potential Energy   :         -461.65511089 Eh          -12562.27422 eV
Kinetic Energy     :          230.19472634 Eh            6263.91695 eV
Virial Ratio       :            2.00549821


DFT components:
N(Alpha)           :       18.000006927951 electrons
N(Beta)            :       18.000006927951 electrons
N(Total)           :       36.000013855903 electrons
E(XC)              :      -21.244536036351 Eh       
DFET-embed. en.    :        0.000000000000 Eh       

---------------
SCF CONVERGENCE
---------------

  Last Energy change         ...   -6.3093e-10  Tolerance :   1.0000e-08
  Last MAX-Density change    ...    3.3690e-06  Tolerance :   1.0000e-07
  Last RMS-Density change    ...    1.0420e-07  Tolerance :   5.0000e-09
  Last Orbital Gradient      ...    1.6927e-06  Tolerance :   1.0000e-05
  Last Orbital Rotation      ...    4.4173e-06  Tolerance :   1.0000e-05

             **** THE GBW FILE WAS UPDATED (9-161_DFT_AB.gbw) ****
             **** DENSITY FILE WAS UPDATED (9-161_DFT_AB.scfp.tmp) ****
             **** ENERGY FILE WAS UPDATED (9-161_DFT_AB.en.tmp) ****
----------------
ORBITAL ENERGIES
----------------

  NO   OCC          E(Eh)            E(eV) 
   0   2.0000     -19.259388      -524.0746 
   1   2.0000     -19.213645      -522.8299 
   2   2.0000     -10.328026      -281.0399 
   3   2.0000     -10.314296      -280.6663 
   4   2.0000      -1.152297       -31.3556 
   5   2.0000      -1.116982       -30.3946 
   6   2.0000      -0.799314       -21.7504 
   7   2.0000      -0.775616       -21.1056 
   8   2.0000      -0.621495       -16.9117 
   9   2.0000      -0.589956       -16.0535 
  10   2.0000      -0.556072       -15.1315 
  11   2.0000      -0.540447       -14.7063 
  12   2.0000      -0.527952       -14.3663 
  13   2.0000      -0.511124       -13.9084 
  14   2.0000      -0.446014       -12.1367 
  15   2.0000      -0.413900       -11.2628 
  16   2.0000      -0.388257       -10.5650 
  17   2.0000      -0.358868        -9.7653 
  18   0.0000       0.081413         2.2154 
  19   0.0000       0.136233         3.7071 
  20   0.0000       0.152086         4.1385 
  21   0.0000       0.181489         4.9386 
  22   0.0000       0.187391         5.0992 
  23   0.0000       0.196337         5.3426 
  24   0.0000       0.203533         5.5384 
  25   0.0000       0.208514         5.6740 
  26   0.0000       0.223163         6.0726 
  27   0.0000       0.249794         6.7972 
  28   0.0000       0.287983         7.8364 
  29   0.0000       0.319624         8.6974 
  30   0.0000       0.328208         8.9310 
  31   0.0000       0.336794         9.1646 
  32   0.0000       0.390361        10.6223 
  33   0.0000       0.412941        11.2367 
  34   0.0000       0.437549        11.9063 
  35   0.0000       0.458736        12.4828 
  36   0.0000       0.474339        12.9074 
  37   0.0000       0.477338        12.9890 
  38   0.0000       0.519014        14.1231 
  39   0.0000       0.523771        14.2525 
  40   0.0000       0.539219        14.6729 
  41   0.0000       0.548454        14.9242 
  42   0.0000       0.558222        15.1900 
  43   0.0000       0.562378        15.3031 
  44   0.0000       0.589715        16.0470 
  45   0.0000       0.606292        16.4980 
  46   0.0000       0.631450        17.1826 
  47   0.0000       0.670455        18.2440 
  48   0.0000       0.731974        19.9180 
  49   0.0000       0.769645        20.9431 
  50   0.0000       0.794674        21.6242 
  51   0.0000       0.801059        21.7979 
  52   0.0000       0.825292        22.4573 
  53   0.0000       0.849333        23.1115 
  54   0.0000       0.865196        23.5432 
  55   0.0000       0.905212        24.6321 
  56   0.0000       0.980406        26.6782 
  57   0.0000       1.022067        27.8118 
  58   0.0000       1.025753        27.9122 
  59   0.0000       1.065265        28.9873 
  60   0.0000       1.110072        30.2066 
  61   0.0000       1.129124        30.7250 
  62   0.0000       1.348954        36.7069 
  63   0.0000       1.418588        38.6017 
  64   0.0000       1.492033        40.6003 
  65   0.0000       1.520144        41.3652 
  66   0.0000       1.541919        41.9578 
  67   0.0000       1.567435        42.6521 
  68   0.0000       1.582473        43.0613 
  69   0.0000       1.600546        43.5531 
  70   0.0000       1.604269        43.6544 
  71   0.0000       1.619581        44.0710 
  72   0.0000       1.629413        44.3386 
  73   0.0000       1.653909        45.0052 
  74   0.0000       1.658779        45.1377 
  75   0.0000       1.699671        46.2504 
  76   0.0000       1.718504        46.7629 
  77   0.0000       1.753556        47.7167 
  78   0.0000       1.792759        48.7835 
  79   0.0000       1.827849        49.7383 
  80   0.0000       1.969855        53.6025 
  81   0.0000       1.980972        53.9050 
  82   0.0000       1.997826        54.3636 
  83   0.0000       2.020959        54.9931 
  84   0.0000       2.039974        55.5105 
  85   0.0000       2.052258        55.8448 
  86   0.0000       2.072215        56.3878 
  87   0.0000       2.101134        57.1748 
  88   0.0000       2.132415        58.0260 
  89   0.0000       2.158404        58.7332 
  90   0.0000       2.218437        60.3667 
  91   0.0000       2.300604        62.6026 
  92   0.0000       2.316385        63.0320 
  93   0.0000       2.331900        63.4542 
  94   0.0000       2.351202        63.9794 
  95   0.0000       2.363170        64.3051 
  96   0.0000       2.377003        64.6815 
  97   0.0000       2.397089        65.2281 
  98   0.0000       2.415393        65.7262 
  99   0.0000       2.433708        66.2246 
 100   0.0000       2.508268        68.2534 
 101   0.0000       2.522325        68.6359 
 102   0.0000       2.546013        69.2805 
 103   0.0000       2.565865        69.8207 
 104   0.0000       2.635873        71.7257 
 105   0.0000       2.661862        72.4329 
 106   0.0000       2.670396        72.6652 
 107   0.0000       2.714514        73.8657 
 108   0.0000       2.782632        75.7193 
 109   0.0000       2.837970        77.2251 
 110   0.0000       2.867852        78.0382 
 111   0.0000       2.877152        78.2913 
 112   0.0000       2.912863        79.2630 
 113   0.0000       2.944407        80.1214 
 114   0.0000       3.020260        82.1854 
 115   0.0000       3.034956        82.5853 
 116   0.0000       3.107237        84.5522 
 117   0.0000       3.136385        85.3454 
 118   0.0000       3.153399        85.8083 
 119   0.0000       3.168424        86.2172 
 120   0.0000       3.240066        88.1667 
 121   0.0000       3.261898        88.7608 
 122   0.0000       3.348893        91.1280 
 123   0.0000       3.368799        91.6697 
 124   0.0000       3.422851        93.1405 
 125   0.0000       3.458042        94.0981 
 126   0.0000       3.470202        94.4290 
 127   0.0000       3.514986        95.6476 
 128   0.0000       3.591980        97.7427 
 129   0.0000       3.602365        98.0253 
 130   0.0000       3.620946        98.5309 
 131   0.0000       3.637003        98.9679 
 132   0.0000       3.661631        99.6381 
 133   0.0000       3.676773       100.0501 
 134   0.0000       3.912703       106.4700 
 135   0.0000       4.047312       110.1330 
 136   0.0000       4.095428       111.4423 
 137   0.0000       4.157011       113.1180 
 138   0.0000       4.262342       115.9842 
 139   0.0000       4.300166       117.0135 
 140   0.0000       4.368193       118.8646 
 141   0.0000       4.425191       120.4156 
 142   0.0000       4.564322       124.2015 
 143   0.0000       4.598977       125.1445 
 144   0.0000       5.340487       145.3221 
 145   0.0000       5.354846       145.7128 
 146   0.0000       5.422288       147.5480 
 147   0.0000       5.443972       148.1380 
 148   0.0000       5.481038       149.1466 
 149   0.0000       5.572976       151.6484 
 150   0.0000       5.756957       156.6548 
 151   0.0000       5.806878       158.0132 
 152   0.0000       5.808487       158.0570 
 153   0.0000       5.845003       159.0506 
 154   0.0000       5.969900       162.4492 
 155   0.0000       5.984926       162.8581 
 156   0.0000       6.155524       167.5003 
 157   0.0000       6.379842       173.6043 
 158   0.0000       6.507823       177.0869 
 159   0.0000       6.539357       177.9450 
 160   0.0000       6.739227       183.3837 
 161   0.0000       6.764610       184.0744 
 162   0.0000       6.801459       185.0771 
 163   0.0000       6.830084       185.8560 
 164   0.0000       7.006647       190.6606 
 165   0.0000       7.062089       192.1692 
 166   0.0000       7.177475       195.3090 
 167   0.0000       7.259764       197.5482 
 168   0.0000      22.251230       605.4868 
 169   0.0000      22.355470       608.3233 
 170   0.0000      43.671474      1188.3612 
 171   0.0000      43.727804      1189.8941 

                    ********************************
                    * MULLIKEN POPULATION ANALYSIS *
                    ********************************

-----------------------
MULLIKEN ATOMIC CHARGES
-----------------------
   0 C :   -0.163283
   1 O :   -0.454590
   2 H :    0.278883
   3 H :    0.096357
   4 H :    0.109763
   5 H :    0.111980
   6 C :   -0.172859
   7 O :   -0.464780
   8 H :    0.319483
   9 H :    0.105781
  10 H :    0.127406
  11 H :    0.105859
Sum of atomic charges:    0.0000000

--------------------------------
MULLIKEN REDUCED ORBITAL CHARGES
--------------------------------
  0 C s       :     3.239158  s :     3.239158
      pz      :     0.998861  p :     2.818815
      px      :     0.860671
      py      :     0.959282
      dz2     :     0.012471  d :     0.097874
      dxz     :     0.025620
      dyz     :     0.016231
      dx2y2   :     0.030386
      dxy     :     0.013166
      f0      :     0.000459  f :     0.007437
      f+1     :     0.001497
      f-1     :     0.000744
      f+2     :     0.000653
      f-2     :     0.001559
      f+3     :     0.001460
      f-3     :     0.001065
  1 O s       :     3.788749  s :     3.788749
      pz      :     1.832302  p :     4.635482
      px      :     1.519489
      py      :     1.283692
      dz2     :     0.004141  d :     0.028758
      dxz     :     0.005114
      dyz     :     0.002218
      dx2y2   :     0.006465
      dxy     :     0.010820
      f0      :     0.000284  f :     0.001601
      f+1     :     0.000182
      f-1     :     0.000280
      f+2     :     0.000146
      f-2     :     0.000255
      f+3     :     0.000346
      f-3     :     0.000108
  2 H s       :     0.671293  s :     0.671293
      pz      :     0.017577  p :     0.049824
      px      :     0.012709
      py      :     0.019538
  3 H s       :     0.883359  s :     0.883359
      pz      :     0.010652  p :     0.020284
      px      :     0.004702
      py      :     0.004929
  4 H s       :     0.873023  s :     0.873023
      pz      :     0.007696  p :     0.017214
      px      :     0.006620
      py      :     0.002897
  5 H s       :     0.868847  s :     0.868847
      pz      :     0.004609  p :     0.019173
      px      :     0.003545
      py      :     0.011019
  6 C s       :     3.235812  s :     3.235812
      pz      :     0.883336  p :     2.830323
      px      :     1.040963
      py      :     0.906024
      dz2     :     0.026368  d :     0.098852
      dxz     :     0.026499
      dyz     :     0.016855
      dx2y2   :     0.007253
      dxy     :     0.021877
      f0      :     0.001185  f :     0.007871
      f+1     :     0.000398
      f-1     :     0.001664
      f+2     :     0.001212
      f-2     :     0.002149
      f+3     :     0.000499
      f-3     :     0.000764
  7 O s       :     3.811252  s :     3.811252
      pz      :     1.231640  p :     4.620741
      px      :     1.886580
      py      :     1.502521
      dz2     :     0.004659  d :     0.031241
      dxz     :     0.002531
      dyz     :     0.015061
      dx2y2   :     0.005109
      dxy     :     0.003880
      f0      :     0.000171  f :     0.001545
      f+1     :     0.000139
      f-1     :     0.000516
      f+2     :     0.000350
      f-2     :     0.000143
      f+3     :     0.000104
      f-3     :     0.000122
  8 H s       :     0.639704  s :     0.639704
      pz      :     0.014606  p :     0.040814
      px      :     0.014441
      py      :     0.011767
  9 H s       :     0.876354  s :     0.876354
      pz      :     0.003085  p :     0.017865
      px      :     0.007739
      py      :     0.007040
 10 H s       :     0.852182  s :     0.852182
      pz      :     0.010075  p :     0.020412
      px      :     0.005487
      py      :     0.004850
 11 H s       :     0.874302  s :     0.874302
      pz      :     0.005014  p :     0.019839
      px      :     0.009434
      py      :     0.005391


                     *******************************
                     * LOEWDIN POPULATION ANALYSIS *
                     *******************************

----------------------
LOEWDIN ATOMIC CHARGES
----------------------
   0 C :   -0.392828
   1 O :   -0.087282
   2 H :    0.146195
   3 H :    0.088679
   4 H :    0.109964
   5 H :    0.111199
   6 C :   -0.409139
   7 O :   -0.086204
   8 H :    0.206912
   9 H :    0.105327
  10 H :    0.109614
  11 H :    0.097563

-------------------------------
LOEWDIN REDUCED ORBITAL CHARGES
-------------------------------
  0 C s       :     2.889931  s :     2.889931
      pz      :     1.061226  p :     3.048117
      px      :     0.965056
      py      :     1.021836
      dz2     :     0.057137  d :     0.401144
      dxz     :     0.114332
      dyz     :     0.054859
      dx2y2   :     0.095448
      dxy     :     0.079368
      f0      :     0.005052  f :     0.053635
      f+1     :     0.007748
      f-1     :     0.007980
      f+2     :     0.003822
      f-2     :     0.009053
      f+3     :     0.010481
      f-3     :     0.009499
  1 O s       :     3.371848  s :     3.371848
      pz      :     1.744788  p :     4.643207
      px      :     1.573267
      py      :     1.325153
      dz2     :     0.008588  d :     0.067841
      dxz     :     0.010496
      dyz     :     0.007584
      dx2y2   :     0.018801
      dxy     :     0.022372
      f0      :     0.000483  f :     0.004385
      f+1     :     0.000429
      f-1     :     0.000520
      f+2     :     0.000298
      f-2     :     0.000673
      f+3     :     0.001406
      f-3     :     0.000578
  2 H s       :     0.688620  s :     0.688620
      pz      :     0.049043  p :     0.165185
      px      :     0.046534
      py      :     0.069607
  3 H s       :     0.848759  s :     0.848759
      pz      :     0.031494  p :     0.062563
      px      :     0.014960
      py      :     0.016108
  4 H s       :     0.840491  s :     0.840491
      pz      :     0.021796  p :     0.049545
      px      :     0.018908
      py      :     0.008840
  5 H s       :     0.834297  s :     0.834297
      pz      :     0.012973  p :     0.054504
      px      :     0.011305
      py      :     0.030226
  6 C s       :     2.869492  s :     2.869492
      pz      :     0.961247  p :     3.057303
      px      :     1.093360
      py      :     1.002697
      dz2     :     0.092060  d :     0.424179
      dxz     :     0.084075
      dyz     :     0.110451
      dx2y2   :     0.033632
      dxy     :     0.103961
      f0      :     0.009851  f :     0.058164
      f+1     :     0.005466
      f-1     :     0.011713
      f+2     :     0.011672
      f-2     :     0.010945
      f+3     :     0.003334
      f-3     :     0.005183
  7 O s       :     3.398810  s :     3.398810
      pz      :     1.269751  p :     4.609721
      px      :     1.787635
      py      :     1.552336
      dz2     :     0.018661  d :     0.073018
      dxz     :     0.008974
      dyz     :     0.029739
      dx2y2   :     0.008121
      dxy     :     0.007523
      f0      :     0.000533  f :     0.004654
      f+1     :     0.000255
      f-1     :     0.001646
      f+2     :     0.001105
      f-2     :     0.000662
      f+3     :     0.000255
      f-3     :     0.000199
  8 H s       :     0.663623  s :     0.663623
      pz      :     0.049713  p :     0.129465
      px      :     0.035873
      py      :     0.043880
  9 H s       :     0.840991  s :     0.840991
      pz      :     0.010149  p :     0.053682
      px      :     0.022966
      py      :     0.020568
 10 H s       :     0.830370  s :     0.830370
      pz      :     0.027965  p :     0.060016
      px      :     0.016263
      py      :     0.015788
 11 H s       :     0.842833  s :     0.842833
      pz      :     0.014258  p :     0.059604
      px      :     0.028856
      py      :     0.016490


                      *****************************
                      * MAYER POPULATION ANALYSIS *
                      *****************************

  NA   - Mulliken gross atomic population
  ZA   - Total nuclear charge
  QA   - Mulliken gross atomic charge
  VA   - Mayer's total valence
  BVA  - Mayer's bonded valence
  FA   - Mayer's free valence

  ATOM       NA         ZA         QA         VA         BVA        FA
  0 C      6.1633     6.0000    -0.1633     3.9241     3.9241     0.0000
  1 O      8.4546     8.0000    -0.4546     1.8813     1.8813     0.0000
  2 H      0.7211     1.0000     0.2789     0.9692     0.9692     0.0000
  3 H      0.9036     1.0000     0.0964     0.9610     0.9610     0.0000
  4 H      0.8902     1.0000     0.1098     0.9637     0.9637     0.0000
  5 H      0.8880     1.0000     0.1120     0.9592     0.9592     0.0000
  6 C      6.1729     6.0000    -0.1729     3.9253     3.9253    -0.0000
  7 O      8.4648     8.0000    -0.4648     1.9168     1.9168     0.0000
  8 H      0.6805     1.0000     0.3195     0.8997     0.8997     0.0000
  9 H      0.8942     1.0000     0.1058     0.9674     0.9674     0.0000
 10 H      0.8726     1.0000     0.1274     0.9604     0.9604     0.0000
 11 H      0.8941     1.0000     0.1059     0.9515     0.9515    -0.0000

  Mayer bond orders larger than 0.1
B(  0-C ,  1-O ) :   0.9980 B(  0-C ,  3-H ) :   0.9798 B(  0-C ,  4-H ) :   0.9698 
B(  0-C ,  5-H ) :   0.9703 B(  1-O ,  2-H ) :   0.8958 B(  6-C ,  7-O ) :   0.9876 
B(  6-C ,  9-H ) :   0.9824 B(  6-C , 10-H ) :   0.9766 B(  6-C , 11-H ) :   0.9661 
B(  7-O ,  8-H ) :   0.8870 

-------
TIMINGS
-------

Total SCF time: 0 days 0 hours 0 min 10 sec 

Total time                  ....      10.958 sec
Sum of individual times     ....      10.475 sec  ( 95.6%)

Fock matrix formation       ....       9.905 sec  ( 90.4%)
  XC integration            ....       0.663 sec  (  6.7% of F)
    Basis function eval.    ....       0.076 sec  ( 11.5% of XC)
    Density eval.           ....       0.065 sec  (  9.8% of XC)
    XC-Functional eval.     ....       0.099 sec  ( 14.9% of XC)
    XC-Potential eval.      ....       0.079 sec  ( 11.9% of XC)
Diagonalization             ....       0.057 sec  (  0.5%)
Density matrix formation    ....       0.005 sec  (  0.0%)
Population analysis         ....       0.016 sec  (  0.1%)
Initial guess               ....       0.129 sec  (  1.2%)
Orbital Transformation      ....       0.000 sec  (  0.0%)
Orbital Orthonormalization  ....       0.000 sec  (  0.0%)
DIIS solution               ....       0.022 sec  (  0.2%)
SOSCF solution              ....       0.028 sec  (  0.3%)
Grid generation             ....       0.313 sec  (  2.9%)


-------------------------------------------------------------------------------
                          DFT DISPERSION CORRECTION                            
                                                                               
                              DFTD3 V3.1  Rev 1                                
                              USING zero damping                               
-------------------------------------------------------------------------------
The omegaB97X-D3 functional is recognized. Fit by Chai et al.
Active option DFTDOPT                   ...         3   

molecular C6(AA) [au] = 835.659701 


            DFT-D V3
 parameters
 s6 scaling factor         :     1.0000 
 rs6 scaling factor        :     1.2810 
 s8 scaling factor         :     1.0000 
 rs8 scaling factor        :     1.0940 
 Damping factor alpha6     :    14.0000 
 Damping factor alpha8     :    16.0000 
 ad hoc parameters k1-k3   :    16.0000     1.3333    -4.0000 

 Edisp/kcal,au: -0.992453768781  -0.001581575584 
 E6   /kcal   :  -0.444477877 
 E8   /kcal   :  -0.547975891 
 % E8         :  55.214248624 

-------------------------   ----------------
Dispersion correction           -0.001581576
-------------------------   ----------------


-------------------------   --------------------
FINAL SINGLE POINT ENERGY      -231.461966132083
-------------------------   --------------------


                            ***************************************
                            *     ORCA property calculations      *
                            ***************************************

                                    ---------------------
                                    Active property flags
                                    ---------------------
   (+) Dipole Moment


------------------------------------------------------------------------------
                       ORCA ELECTRIC PROPERTIES CALCULATION
------------------------------------------------------------------------------

Dipole Moment Calculation                       ... on
Quadrupole Moment Calculation                   ... off
Polarizability Calculation                      ... off
GBWName                                         ... 9-161_DFT_AB.gbw
Electron density file                           ... 9-161_DFT_AB.scfp.tmp
The origin for moment calculation is the CENTER OF MASS  = (-6.293322,  6.836501 15.076499)

-------------
DIPOLE MOMENT
-------------
                                X             Y             Z
Electronic contribution:      1.09089      -0.27031       0.55880
Nuclear contribution   :     -1.67957       1.22505      -0.54833
                        -----------------------------------------
Total Dipole Moment    :     -0.58868       0.95474       0.01047
                        -----------------------------------------
Magnitude (a.u.)       :      1.12169
Magnitude (Debye)      :      2.85111



--------------------
Rotational spectrum 
--------------------
 
Rotational constants in cm-1:     0.764068     0.064261     0.061518 
Rotational constants in MHz : 22906.170742  1926.500605  1844.249880 

 Dipole components along the rotational axes: 
x,y,z [a.u.] :     0.801400     0.376463     0.688640 
x,y,z [Debye]:     2.036998     0.956894     1.750383 

 
------------------------------------------------------------------------------
                      ORCA CHELPG CHARGES GENERATION
------------------------------------------------------------------------------

GBW file                           ... 9-161_DFT_AB.gbw

Reading the GBW file               ... done

Grid spacing                       ...     0.300000
Point Cut-Off                      ...     2.800000
Van-der-Waals Radii                ...        COSMO
Total charge                       ...            0


Number of points X direction       ...           25
Number of points Y direction       ...           37
Number of points Z direction       ...           35
Maximum number of possible points  ...        32375
Final number of points             ...        10148


CHELPG Charges            
--------------------------------
  0   C   :      -0.023492
  1   O   :      -0.549377
  2   H   :       0.347112
  3   H   :       0.038901
  4   H   :       0.031733
  5   H   :       0.103902
  6   C   :      -0.130053
  7   O   :      -0.444732
  8   H   :       0.367763
  9   H   :       0.057761
 10   H   :       0.131070
 11   H   :       0.069412
--------------------------------
Total charge:    -0.000000
--------------------------------

CHELPG charges calculated...

Timings for individual parts in CHELPG calculation:
Grid generation                 ...        0.002 sec (=   0.000 min)
Potential calculation           ...        2.165 sec (=   0.036 min)
Fit to the potential            ...        0.004 sec (=   0.000 min)
------------------------------------------------------------------------------


Timings for individual modules:

Sum of individual times         ...       18.724 sec (=   0.312 min)
GTO integral calculation        ...        3.772 sec (=   0.063 min)  20.1 %
SCF iterations                  ...       12.751 sec (=   0.213 min)  68.1 %
CHELPG charge generation        ...        2.202 sec (=   0.037 min)  11.8 %


                 $$$$$$$$$$$$$$$$  JOB NUMBER  2 $$$$$$$$$$$$$$


                       ****************************
                       * Single Point Calculation *
                       ****************************

---------------------------------
CARTESIAN COORDINATES (ANGSTROEM)
---------------------------------
  C     -3.437521    1.743393    9.429279
  O     -2.392920    2.601094    8.968135
  H     -2.789431    3.445956    8.752653
  H     -3.842162    2.153886   10.347907
  H     -4.226505    1.590673    8.576255
  H     -3.060894    0.726974    9.753936
  C     -3.634617    5.482813    6.223014
  O     -3.845451    4.558936    7.253444
  H     -3.837731    5.120619    8.113329
  H     -2.854401    6.247456    6.538076
  H     -3.288832    4.977465    5.315011
  H     -4.539207    5.985702    5.839303

----------------------------
CARTESIAN COORDINATES (A.U.)
----------------------------
  NO LB      ZA    FRAG     MASS         X           Y           Z
   0 C     6.0000    0    12.011   -6.495973    3.294535   17.818755
   1 O     8.0000    0    15.999   -4.521963    4.915355   16.947319
   2 H     1.0000    0     1.008   -5.271261    6.511913   16.540117
   3 H     1.0000    0     1.008   -7.260634    4.070255   19.554710
   4 H     1.0000    0     1.008   -7.986937    3.005936   16.206773
   5 H     1.0000    0     1.008   -5.784251    1.373782   18.432268
   6 C     0.0000    0     0.000   -6.868431   10.361015   11.759792
   7 O     0.0000    0     0.000   -7.266849    8.615141   13.707023
   8 H     0.0000    0     0.000   -7.252261    9.676568   15.331970
   9 H     0.0000    0     0.000   -5.394036   11.805981   12.355173
  10 H     0.0000    0     0.000   -6.214992    9.406046   10.043915
  11 H     0.0000    0     0.000   -8.577858   11.311337   11.034683

--------------------------------
INTERNAL COORDINATES (ANGSTROEM)
--------------------------------
 C      0   0   0     0.000000000000     0.00000000     0.00000000
 O      1   0   0     1.428109254692     0.00000000     0.00000000
 H      2   1   0     0.957833630903   107.43319613     0.00000000
 H      1   2   3     1.084488932315   108.60912379   295.78866068
 H      1   2   3     1.171950978169   109.61301318    61.55585297
 H      1   2   3     1.131528898588   112.87185290   182.50315199
 C      3   2   1     3.355920035306   144.01715217   251.13209538
 O      7   3   2     1.399923452045    23.44333824   104.12434985
 H      8   7   3     1.027107396582   104.72580187    79.84650818
 H      7   3   2     1.136960855944    91.51754878   247.43664473
 H      7   3   2     1.095177298586   105.38932595   357.48702482
 H      7   3   2     1.103818167065   138.15417411   123.52910501

---------------------------
INTERNAL COORDINATES (A.U.)
---------------------------
 C      0   0   0     0.000000000000     0.00000000     0.00000000
 O      1   0   0     2.698735380687     0.00000000     0.00000000
 H      2   1   0     1.810043244266   107.43319613     0.00000000
 H      1   2   3     2.049387077344   108.60912379   295.78866068
 H      1   2   3     2.214666391121   109.61301318    61.55585297
 H      1   2   3     2.138279730948   112.87185290   182.50315199
 C      3   2   1     6.341769794067   144.01715217   251.13209538
 O      7   3   2     2.645471932818    23.44333824   104.12434985
 H      8   7   3     1.940951689665   104.72580187    79.84650818
 H      7   3   2     2.148544642723    91.51754878   247.43664473
 H      7   3   2     2.069585162415   105.38932595   357.48702482
 H      7   3   2     2.085914037399   138.15417411   123.52910501

---------------------
BASIS SET INFORMATION
---------------------
There are 3 groups of distinct atoms

 Group   1 Type C   : 11s6p2d1f contracted to 5s3p2d1f pattern {62111/411/11/1}
 Group   2 Type O   : 11s6p2d1f contracted to 5s3p2d1f pattern {62111/411/11/1}
 Group   3 Type H   : 5s1p contracted to 3s1p pattern {311/1}

Atom   0C    basis set group =>   1
Atom   1O    basis set group =>   2
Atom   2H    basis set group =>   3
Atom   3H    basis set group =>   3
Atom   4H    basis set group =>   3
Atom   5H    basis set group =>   3
Atom   6C    basis set group =>   1
Atom   7O    basis set group =>   2
Atom   8H    basis set group =>   3
Atom   9H    basis set group =>   3
Atom  10H    basis set group =>   3
Atom  11H    basis set group =>   3


           ************************************************************
           *        Program running with 8 parallel MPI-processes     *
           *              working on a common directory               *
           ************************************************************
------------------------------------------------------------------------------
                           ORCA GTO INTEGRAL CALCULATION
------------------------------------------------------------------------------

                         BASIS SET STATISTICS AND STARTUP INFO

 # of primitive gaussian shells          ...  128
 # of primitive gaussian functions       ...  248
 # of contracted shells                  ...   76
 # of contracted basis functions         ...  172
 Highest angular momentum                ...    3
 Maximum contraction depth               ...    6
 Integral package used                   ... LIBINT
 Integral threshhold            Thresh   ...  2.500e-11
 Primitive cut-off              TCut     ...  2.500e-12


------------------------------ INTEGRAL EVALUATION ----------------------------


 * One electron integrals 
 Pre-screening matrix                    ... done
 Shell pair data                         ... done (   0.001 sec)



           ************************************************************
           *        Program running with 8 parallel MPI-processes     *
           *              working on a common directory               *
           ************************************************************
-------------------------------------------------------------------------------
                                 ORCA SCF
-------------------------------------------------------------------------------

------------
SCF SETTINGS
------------
Hamiltonian:
 Density Functional     Method          .... DFT(GTOs)
 Exchange Functional    Exchange        .... WB97X-D3
 Correlation Functional Correlation     .... WB97X-D3
 Gradients option       PostSCFGGA      .... off
 Hybrid DFT is turned on
   Fraction HF Exchange ScalHFX         ....  0.195728
   Scaling of DF-GGA-X  ScalDFX         ....  0.000000
   Scaling of DF-GGA-C  ScalDFC         ....  1.000000
   Scaling of DF-LDA-C  ScalLDAC        ....  1.000000
   Perturbative correction              ....  0.000000
   Density functional embedding theory  .... OFF
 Long-range corrected/Screened/Range-Separated Hybrid DFT is turned on
   Amount of maximum screened exact exchange              ....  0.804272
   Range separation parameter mu (erf(mu*r12)/r12)        ....  0.250000


General Settings:
 Integral files         IntName         .... 9-161_DFT_A
 Hartree-Fock type      HFTyp           .... RHF
 Total Charge           Charge          ....    0
 Multiplicity           Mult            ....    1
 Number of Electrons    NEL             ....   18
 Basis Dimension        Dim             ....  172
 Nuclear Repulsion      ENuc            ....     39.8175092497 Eh

Convergence Acceleration:
 DIIS                   CNVDIIS         .... on
   Start iteration      DIISMaxIt       ....    12
   Startup error        DIISStart       ....  0.200000
   # of expansion vecs  DIISMaxEq       ....     5
   Bias factor          DIISBfac        ....   1.050
   Max. coefficient     DIISMaxC        ....  10.000
 Newton-Raphson         CNVNR           .... off
 SOSCF                  CNVSOSCF        .... on
   Start iteration      SOSCFMaxIt      ....   150
   Startup grad/error   SOSCFStart      ....  0.003300
 Level Shifting         CNVShift        .... on
   Level shift para.    LevelShift      ....    0.2500
   Turn off err/grad.   ShiftErr        ....    0.0010
 Zerner damping         CNVZerner       .... off
 Static damping         CNVDamp         .... on
   Fraction old density DampFac         ....    0.7000
   Max. Damping (<1)    DampMax         ....    0.9800
   Min. Damping (>=0)   DampMin         ....    0.0000
   Turn off err/grad.   DampErr         ....    0.1000
 Fernandez-Rico         CNVRico         .... off

SCF Procedure:
 Maximum # iterations   MaxIter         ....  1000
 SCF integral mode      SCFMode         .... Direct
   Integral package                     .... LIBINT
 Reset frequency        DirectResetFreq ....    20
 Integral Threshold     Thresh          ....  2.500e-11 Eh
 Primitive CutOff       TCut            ....  2.500e-12 Eh

Convergence Tolerance:
 Convergence Check Mode ConvCheckMode   .... Total+1el-Energy
 Convergence forced     ConvForced      .... 0
 Energy Change          TolE            ....  1.000e-08 Eh
 1-El. energy change                    ....  1.000e-05 Eh
 Orbital Gradient       TolG            ....  1.000e-05
 Orbital Rotation angle TolX            ....  1.000e-05
 DIIS Error             TolErr          ....  5.000e-07


Diagonalization of the overlap matrix:
Smallest eigenvalue                        ... 1.783e-03
Time for diagonalization                   ...    0.005 sec
Threshold for overlap eigenvalues          ... 1.000e-08
Number of eigenvalues below threshold      ... 0
Time for construction of square roots      ...    0.007 sec
Total time needed                          ...    0.012 sec

-------------------
DFT GRID GENERATION
-------------------

General Integration Accuracy     IntAcc      ...  4.340
Radial Grid Type                 RadialGrid  ... Gauss-Chebyshev
Angular Grid (max. acc.)         AngularGrid ... Lebedev-110
Angular grid pruning method      GridPruning ... 3 (G Style)
Weight generation scheme         WeightScheme... Becke
Basis function cutoff            BFCut       ...    1.0000e-11
Integration weight cutoff        WCut        ...    1.0000e-14
Grids for H and He will be reduced by one unit

# of grid points (after initial pruning)     ...  13096 (   0.0 sec)
# of grid points (after weights+screening)   ...  12531 (   0.0 sec)
nearest neighbour list constructed           ...    0.0 sec
Grid point re-assignment to atoms done       ...    0.0 sec
Grid point division into batches done        ...    0.0 sec
Reduced shell lists constructed in    0.0 sec

Total number of grid points                  ...    12531
Total number of batches                      ...      203
Average number of points per batch           ...       61
Average number of grid points per atom       ...     1044
Average number of shells per batch           ...    50.22 (66.08%)
Average number of basis functions per batch  ...   111.85 (65.03%)
Average number of large shells per batch     ...    40.56 (80.75%)
Average number of large basis fcns per batch ...    89.00 (79.57%)
Maximum spatial batch extension              ...  13.52, 13.78, 19.20 au
Average spatial batch extension              ...   0.36,  0.37,  0.39 au

Time for grid setup =    0.043 sec

------------------------------
INITIAL GUESS: MODEL POTENTIAL
------------------------------
Loading Hartree-Fock densities                     ... done
Calculating cut-offs                               ... done
Setting up the integral package                    ... done
Initializing the effective Hamiltonian             ... done
Starting the Coulomb interaction                   ... done (   0.0 sec)
Reading the grid                                   ... done
Mapping shells                                     ... done
Starting the XC term evaluation                    ... done (   0.0 sec)
  promolecular density results
     # of electrons  =     17.996731931
     EX              =    -14.408949482
     EC              =     -0.572555192
     EX+EC           =    -14.981504673
Transforming the Hamiltonian                       ... done (   0.0 sec)
Diagonalizing the Hamiltonian                      ... done (   0.0 sec)
Back transforming the eigenvectors                 ... done (   0.0 sec)
Now organizing SCF variables                       ... done
                      ------------------
                      INITIAL GUESS DONE (   0.1 sec)
                      ------------------
--------------
SCF ITERATIONS
--------------
ITER       Energy         Delta-E        Max-DP      RMS-DP      [F,P]     Damp
               ***  Starting incremental Fock matrix formation  ***
  0   -115.6480027498   0.000000000000 0.03677395  0.00073637  0.2383882 0.7000
  1   -115.6838810544  -0.035878304527 0.02201684  0.00051656  0.1160421 0.7000
                               ***Turning on DIIS***
  2   -115.7000707762  -0.016189721842 0.03361652  0.00091513  0.0456175 0.0000
  3   -115.7262964385  -0.026225662337 0.01781606  0.00034428  0.0614368 0.0000
  4   -115.7307506458  -0.004454207264 0.00400619  0.00007057  0.0060004 0.0000
                      *** Initiating the SOSCF procedure ***
                           *** Shutting down DIIS ***
                      *** Re-Reading the Fockian *** 
                      *** Removing any level shift *** 
ITER      Energy       Delta-E        Grad      Rot      Max-DP    RMS-DP
  5   -115.73084209  -0.0000914412  0.000424  0.000424  0.000689  0.000024
               *** Restarting incremental Fock matrix formation ***
  6   -115.73085032  -0.0000082325  0.000125  0.000146  0.000419  0.000015
  7   -115.73085118  -0.0000008638  0.000041  0.000088  0.000201  0.000006
  8   -115.73085125  -0.0000000711  0.000020  0.000015  0.000039  0.000001
  9   -115.73085126  -0.0000000100  0.000010  0.000008  0.000020  0.000001
                  ***Gradient check signals convergence***
              ***Rediagonalizing the Fockian in SOSCF/NRSCF***

               *****************************************************
               *                     SUCCESS                       *
               *           SCF CONVERGED AFTER  10 CYCLES          *
               *****************************************************

Setting up the final grid:

General Integration Accuracy     IntAcc      ...  4.670
Radial Grid Type                 RadialGrid  ... Gauss-Chebyshev
Angular Grid (max. acc.)         AngularGrid ... Lebedev-302
Angular grid pruning method      GridPruning ... 3 (G Style)
Weight generation scheme         WeightScheme... Becke
Basis function cutoff            BFCut       ...    1.0000e-11
Integration weight cutoff        WCut        ...    1.0000e-14
Grids for H and He will be reduced by one unit

# of grid points (after initial pruning)     ...  52000 (   0.0 sec)
# of grid points (after weights+screening)   ...  49328 (   0.0 sec)
nearest neighbour list constructed           ...    0.0 sec
Grid point re-assignment to atoms done       ...    0.0 sec
Grid point division into batches done        ...    0.2 sec
Reduced shell lists constructed in    0.2 sec

Total number of grid points                  ...    49328
Total number of batches                      ...      776
Average number of points per batch           ...       63
Average number of grid points per atom       ...     4111
Average number of shells per batch           ...    47.81 (62.90%)
Average number of basis functions per batch  ...   105.77 (61.49%)
Average number of large shells per batch     ...    38.27 (80.04%)
Average number of large basis fcns per batch ...    83.98 (79.40%)
Maximum spatial batch extension              ...  13.93, 13.44, 16.05 au
Average spatial batch extension              ...   0.25,  0.26,  0.28 au

Final grid set up in    0.3 sec
Final integration                            ... done (   0.1 sec)
Change in XC energy                          ...     0.000131639
Integrated number of electrons               ...    18.000009722
Previous integrated no of electrons          ...    17.998575976

----------------
TOTAL SCF ENERGY
----------------

Total Energy       :         -115.73071963 Eh           -3149.19298 eV

Components:
Nuclear Repulsion  :           39.81750925 Eh            1083.48951 eV
Electronic Energy  :         -155.54822888 Eh           -4232.68249 eV
One Electron Energy:         -236.08371196 Eh           -6424.16440 eV
Two Electron Energy:           80.53548308 Eh            2191.48191 eV

Virial components:
Potential Energy   :         -230.81756876 Eh           -6280.86536 eV
Kinetic Energy     :          115.08684913 Eh            3131.67238 eV
Virial Ratio       :            2.00559465


DFT components:
N(Alpha)           :        9.000004860844 electrons
N(Beta)            :        9.000004860844 electrons
N(Total)           :       18.000009721687 electrons
E(XC)              :      -10.620065296318 Eh       
DFET-embed. en.    :        0.000000000000 Eh       

---------------
SCF CONVERGENCE
---------------

  Last Energy change         ...   -2.6542e-09  Tolerance :   1.0000e-08
  Last MAX-Density change    ...    4.1096e-06  Tolerance :   1.0000e-07
  Last RMS-Density change    ...    1.0082e-07  Tolerance :   5.0000e-09
  Last Orbital Gradient      ...    1.9824e-06  Tolerance :   1.0000e-05
  Last Orbital Rotation      ...    1.7297e-06  Tolerance :   1.0000e-05

             **** THE GBW FILE WAS UPDATED (9-161_DFT_A.gbw) ****
             **** DENSITY FILE WAS UPDATED (9-161_DFT_A.scfp.tmp) ****
             **** ENERGY FILE WAS UPDATED (9-161_DFT_A.en.tmp) ****
----------------
ORBITAL ENERGIES
----------------

  NO   OCC          E(Eh)            E(eV) 
   0   2.0000     -19.231159      -523.3064 
   1   2.0000     -10.326732      -281.0047 
   2   2.0000      -1.133680       -30.8490 
   3   2.0000      -0.788891       -21.4668 
   4   2.0000      -0.602653       -16.3990 
   5   2.0000      -0.543190       -14.7810 
   6   2.0000      -0.524495       -14.2722 
   7   2.0000      -0.427006       -11.6194 
   8   2.0000      -0.375029       -10.2050 
   9   0.0000       0.073540         2.0011 
  10   0.0000       0.123949         3.3728 
  11   0.0000       0.148451         4.0395 
  12   0.0000       0.177596         4.8326 
  13   0.0000       0.187289         5.0964 
  14   0.0000       0.197070         5.3625 
  15   0.0000       0.201127         5.4729 
  16   0.0000       0.212507         5.7826 
  17   0.0000       0.260647         7.0926 
  18   0.0000       0.268691         7.3115 
  19   0.0000       0.299562         8.1515 
  20   0.0000       0.315940         8.5972 
  21   0.0000       0.326193         8.8762 
  22   0.0000       0.354461         9.6454 
  23   0.0000       0.381366        10.3775 
  24   0.0000       0.386829        10.5262 
  25   0.0000       0.432406        11.7664 
  26   0.0000       0.450721        12.2647 
  27   0.0000       0.475042        12.9266 
  28   0.0000       0.510395        13.8886 
  29   0.0000       0.531167        14.4538 
  30   0.0000       0.538207        14.6453 
  31   0.0000       0.547790        14.9061 
  32   0.0000       0.578523        15.7424 
  33   0.0000       0.600995        16.3539 
  34   0.0000       0.629824        17.1384 
  35   0.0000       0.687005        18.6944 
  36   0.0000       0.714855        19.4522 
  37   0.0000       0.768055        20.8998 
  38   0.0000       0.780731        21.2448 
  39   0.0000       0.793801        21.6004 
  40   0.0000       0.813453        22.1352 
  41   0.0000       0.826463        22.4892 
  42   0.0000       0.886101        24.1120 
  43   0.0000       0.926502        25.2114 
  44   0.0000       0.998037        27.1580 
  45   0.0000       1.024780        27.8857 
  46   0.0000       1.062274        28.9059 
  47   0.0000       1.109116        30.1806 
  48   0.0000       1.153714        31.3941 
  49   0.0000       1.165289        31.7091 
  50   0.0000       1.178907        32.0797 
  51   0.0000       1.209225        32.9047 
  52   0.0000       1.235330        33.6150 
  53   0.0000       1.341563        36.5058 
  54   0.0000       1.393357        37.9152 
  55   0.0000       1.396145        37.9910 
  56   0.0000       1.456680        39.6383 
  57   0.0000       1.505793        40.9747 
  58   0.0000       1.555213        42.3195 
  59   0.0000       1.568180        42.6724 
  60   0.0000       1.593522        43.3619 
  61   0.0000       1.616137        43.9773 
  62   0.0000       1.652174        44.9579 
  63   0.0000       1.685416        45.8625 
  64   0.0000       1.709007        46.5045 
  65   0.0000       1.799323        48.9621 
  66   0.0000       1.845789        50.2265 
  67   0.0000       1.893511        51.5250 
  68   0.0000       1.955288        53.2061 
  69   0.0000       1.969070        53.5811 
  70   0.0000       2.004364        54.5415 
  71   0.0000       2.038516        55.4708 
  72   0.0000       2.069929        56.3256 
  73   0.0000       2.086978        56.7895 
  74   0.0000       2.134150        58.0732 
  75   0.0000       2.168613        59.0109 
  76   0.0000       2.190954        59.6189 
  77   0.0000       2.227614        60.6165 
  78   0.0000       2.264927        61.6318 
  79   0.0000       2.309817        62.8533 
  80   0.0000       2.339940        63.6730 
  81   0.0000       2.361611        64.2627 
  82   0.0000       2.387350        64.9631 
  83   0.0000       2.427428        66.0537 
  84   0.0000       2.466853        67.1265 
  85   0.0000       2.507211        68.2247 
  86   0.0000       2.550182        69.3940 
  87   0.0000       2.553732        69.4906 
  88   0.0000       2.647810        72.0506 
  89   0.0000       2.648414        72.0670 
  90   0.0000       2.670722        72.6740 
  91   0.0000       2.715360        73.8887 
  92   0.0000       2.770502        75.3892 
  93   0.0000       2.817846        76.6775 
  94   0.0000       2.836611        77.1881 
  95   0.0000       2.913295        79.2748 
  96   0.0000       2.990703        81.3812 
  97   0.0000       3.016058        82.0711 
  98   0.0000       3.066685        83.4487 
  99   0.0000       3.089005        84.0561 
 100   0.0000       3.130913        85.1965 
 101   0.0000       3.150939        85.7414 
 102   0.0000       3.168666        86.2238 
 103   0.0000       3.249013        88.4101 
 104   0.0000       3.273876        89.0867 
 105   0.0000       3.345969        91.0484 
 106   0.0000       3.356531        91.3358 
 107   0.0000       3.381339        92.0109 
 108   0.0000       3.423878        93.1685 
 109   0.0000       3.447265        93.8048 
 110   0.0000       3.458259        94.1040 
 111   0.0000       3.561055        96.9012 
 112   0.0000       3.588996        97.6615 
 113   0.0000       3.622943        98.5853 
 114   0.0000       3.632412        98.8429 
 115   0.0000       3.664717        99.7220 
 116   0.0000       3.735330       101.6435 
 117   0.0000       4.013750       109.2197 
 118   0.0000       4.047264       110.1317 
 119   0.0000       4.083187       111.1092 
 120   0.0000       4.111786       111.8874 
 121   0.0000       4.250869       115.6720 
 122   0.0000       4.264084       116.0316 
 123   0.0000       4.286122       116.6313 
 124   0.0000       4.324523       117.6762 
 125   0.0000       4.415708       120.1575 
 126   0.0000       4.519701       122.9873 
 127   0.0000       4.549724       123.8043 
 128   0.0000       4.581230       124.6616 
 129   0.0000       4.588899       124.8703 
 130   0.0000       4.608514       125.4040 
 131   0.0000       4.882396       132.8568 
 132   0.0000       5.022943       136.6812 
 133   0.0000       5.091441       138.5451 
 134   0.0000       5.226869       142.2303 
 135   0.0000       5.338842       145.2773 
 136   0.0000       5.427149       147.6802 
 137   0.0000       5.488609       149.3526 
 138   0.0000       5.559442       151.2801 
 139   0.0000       5.721082       155.6785 
 140   0.0000       5.752777       156.5410 
 141   0.0000       5.792062       157.6100 
 142   0.0000       5.795112       157.6930 
 143   0.0000       5.966668       162.3613 
 144   0.0000       6.000216       163.2742 
 145   0.0000       6.367297       173.2630 
 146   0.0000       6.526076       177.5836 
 147   0.0000       6.602169       179.6541 
 148   0.0000       6.701957       182.3695 
 149   0.0000       6.752267       183.7385 
 150   0.0000       6.763279       184.0382 
 151   0.0000       6.811136       185.3404 
 152   0.0000       7.024761       191.1535 
 153   0.0000       7.044562       191.6923 
 154   0.0000       7.212889       196.2727 
 155   0.0000       7.285473       198.2478 
 156   0.0000       7.410218       201.6423 
 157   0.0000       7.808747       212.4868 
 158   0.0000       8.911537       242.4952 
 159   0.0000       9.295365       252.9397 
 160   0.0000       9.498675       258.4721 
 161   0.0000       9.540636       259.6139 
 162   0.0000       9.789077       266.3743 
 163   0.0000       9.875856       268.7357 
 164   0.0000       9.917746       269.8756 
[...]
  82   0.0000       2.389524        65.0223 
  83   0.0000       2.420220        65.8575 
  84   0.0000       2.518579        68.5340 
  85   0.0000       2.527567        68.7786 
  86   0.0000       2.547051        69.3088 
  87   0.0000       2.597142        70.6718 
  88   0.0000       2.612192        71.0814 
  89   0.0000       2.635366        71.7120 
  90   0.0000       2.651078        72.1395 
  91   0.0000       2.686573        73.1054 
  92   0.0000       2.790471        75.9326 
  93   0.0000       2.865108        77.9636 
  94   0.0000       2.879741        78.3617 
  95   0.0000       2.919284        79.4377 
  96   0.0000       2.932424        79.7953 
  97   0.0000       3.016414        82.0808 
  98   0.0000       3.038379        82.6785 
  99   0.0000       3.114555        84.7514 
 100   0.0000       3.141689        85.4897 
 101   0.0000       3.174031        86.3698 
 102   0.0000       3.177254        86.4575 
 103   0.0000       3.226871        87.8076 
 104   0.0000       3.253059        88.5202 
 105   0.0000       3.330777        90.6351 
 106   0.0000       3.359478        91.4160 
 107   0.0000       3.437853        93.5487 
 108   0.0000       3.451846        93.9295 
 109   0.0000       3.496235        95.1374 
 110   0.0000       3.526275        95.9548 
 111   0.0000       3.553072        96.6840 
 112   0.0000       3.605457        98.1095 
 113   0.0000       3.632911        98.8565 
 114   0.0000       3.666100        99.7596 
 115   0.0000       3.673637        99.9647 
 116   0.0000       3.707686       100.8913 
 117   0.0000       3.930345       106.9501 
 118   0.0000       4.096937       111.4833 
 119   0.0000       4.130232       112.3893 
 120   0.0000       4.169260       113.4513 
 121   0.0000       4.253926       115.7552 
 122   0.0000       4.286908       116.6527 
 123   0.0000       4.309576       117.2695 
 124   0.0000       4.326695       117.7354 
 125   0.0000       4.378858       119.1548 
 126   0.0000       4.520819       123.0177 
 127   0.0000       4.570283       124.3637 
 128   0.0000       4.582681       124.7011 
 129   0.0000       4.600022       125.1730 
 130   0.0000       4.632174       126.0479 
 131   0.0000       5.000155       136.0611 
 132   0.0000       5.038299       137.0991 
 133   0.0000       5.120009       139.3225 
 134   0.0000       5.358555       145.8137 
 135   0.0000       5.364573       145.9775 
 136   0.0000       5.442457       148.0968 
 137   0.0000       5.465219       148.7162 
 138   0.0000       5.501476       149.7028 
 139   0.0000       5.613969       152.7639 
 140   0.0000       5.713790       155.4801 
 141   0.0000       5.776177       157.1778 
 142   0.0000       5.860038       159.4597 
 143   0.0000       5.989779       162.9902 
 144   0.0000       6.026489       163.9891 
 145   0.0000       6.175531       168.0447 
 146   0.0000       6.523414       177.5111 
 147   0.0000       6.605222       179.7372 
 148   0.0000       6.711680       182.6341 
 149   0.0000       6.757635       183.8846 
 150   0.0000       6.802626       185.1089 
 151   0.0000       6.883203       187.3015 
 152   0.0000       7.027573       191.2300 
 153   0.0000       7.091965       192.9822 
 154   0.0000       7.204042       196.0319 
 155   0.0000       7.226747       196.6498 
 156   0.0000       7.411505       201.6773 
 157   0.0000       8.123041       221.0392 
 158   0.0000       8.925811       242.8837 
 159   0.0000       9.336791       254.0670 
 160   0.0000       9.568393       260.3692 
 161   0.0000       9.602839       261.3065 
 162   0.0000       9.813062       267.0270 
 163   0.0000       9.863360       268.3957 
 164   0.0000       9.932932       270.2888 
 165   0.0000      10.088749       274.5288 
 166   0.0000      11.143690       303.2352 
 167   0.0000      19.147836       521.0391 
 168   0.0000      22.366058       608.6114 
 169   0.0000      43.691105      1188.8954 
 170   0.0000      65.759017      1789.3938 
 171   0.0000     126.475995      3441.5868 

                    ********************************
                    * MULLIKEN POPULATION ANALYSIS *
                    ********************************

-----------------------
MULLIKEN ATOMIC CHARGES
-----------------------
   0 C :    0.003464
   1 O :    0.005732
   2 H :   -0.023894
   3 H :   -0.000273
   4 H :   -0.002389
   5 H :   -0.000046
   6 C :   -0.174172
   7 O :   -0.445506
   8 H :    0.322146
   9 H :    0.098554
  10 H :    0.117911
  11 H :    0.098473
Sum of atomic charges:    0.0000000

--------------------------------
MULLIKEN REDUCED ORBITAL CHARGES
--------------------------------
  0 C s       :    -0.002645  s :    -0.002645
      pz      :    -0.000341  p :    -0.000799
      px      :    -0.000103
      py      :    -0.000355
      dz2     :     0.000003  d :    -0.000020
      dxz     :    -0.000005
      dyz     :    -0.000017
      dx2y2   :     0.000001
      dxy     :    -0.000002
      f0      :     0.000000  f :     0.000000
      f+1     :     0.000000
      f-1     :     0.000000
      f+2     :    -0.000000
      f-2     :    -0.000000
      f+3     :     0.000000
      f-3     :     0.000000
  1 O s       :    -0.002760  s :    -0.002760
      pz      :    -0.000127  p :    -0.002982
      px      :    -0.000480
      py      :    -0.002375
      dz2     :     0.000001  d :     0.000011
      dxz     :     0.000005
      dyz     :    -0.000001
      dx2y2   :     0.000002
      dxy     :     0.000003
      f0      :     0.000000  f :     0.000000
      f+1     :     0.000000
      f-1     :     0.000000
      f+2     :     0.000000
      f-2     :    -0.000000
      f+3     :     0.000000
      f-3     :     0.000000
  2 H s       :     0.023924  s :     0.023924
      pz      :    -0.000072  p :    -0.000030
      px      :     0.000003
      py      :     0.000038
  3 H s       :     0.000274  s :     0.000274
      pz      :    -0.000002  p :    -0.000002
      px      :    -0.000000
      py      :     0.000000
  4 H s       :     0.002384  s :     0.002384
      pz      :     0.000002  p :     0.000005
      px      :    -0.000001
      py      :     0.000004
  5 H s       :     0.000046  s :     0.000046
      pz      :     0.000000  p :     0.000000
      px      :     0.000000
      py      :     0.000000
  6 C s       :     3.231704  s :     3.231704
      pz      :     0.885951  p :     2.831834
      px      :     1.038500
      py      :     0.907383
      dz2     :     0.027740  d :     0.102782
      dxz     :     0.027883
      dyz     :     0.017053
      dx2y2   :     0.007400
      dxy     :     0.022706
      f0      :     0.001191  f :     0.007852
      f+1     :     0.000393
      f-1     :     0.001690
      f+2     :     0.001225
      f-2     :     0.002097
      f+3     :     0.000484
      f-3     :     0.000773
  7 O s       :     3.816784  s :     3.816784
      pz      :     1.221813  p :     4.595999
      px      :     1.881312
      py      :     1.492874
      dz2     :     0.004448  d :     0.031178
      dxz     :     0.002292
      dyz     :     0.015385
      dx2y2   :     0.005188
      dxy     :     0.003865
      f0      :     0.000168  f :     0.001545
      f+1     :     0.000137
      f-1     :     0.000514
      f+2     :     0.000353
      f-2     :     0.000145
      f+3     :     0.000105
      f-3     :     0.000123
  8 H s       :     0.637403  s :     0.637403
      pz      :     0.014624  p :     0.040451
      px      :     0.014309
      py      :     0.011517
  9 H s       :     0.883609  s :     0.883609
      pz      :     0.003139  p :     0.017837
      px      :     0.007688
      py      :     0.007010
 10 H s       :     0.861774  s :     0.861774
      pz      :     0.009995  p :     0.020316
      px      :     0.005448
      py      :     0.004873
 11 H s       :     0.881766  s :     0.881766
      pz      :     0.004972  p :     0.019761
      px      :     0.009421
      py      :     0.005368


                     *******************************
                     * LOEWDIN POPULATION ANALYSIS *
                     *******************************

----------------------
LOEWDIN ATOMIC CHARGES
----------------------
   0 C :   -0.003101
   1 O :   -0.004551
   2 H :   -0.026589
   3 H :   -0.000046
   4 H :   -0.001433
   5 H :   -0.000028
   6 C :   -0.415569
   7 O :   -0.065938
   8 H :    0.214605
   9 H :    0.102200
  10 H :    0.105936
  11 H :    0.094515

-------------------------------
LOEWDIN REDUCED ORBITAL CHARGES
-------------------------------
  0 C s       :     0.000260  s :     0.000260
      pz      :     0.001197  p :     0.002780
      px      :     0.000226
      py      :     0.001357
      dz2     :     0.000003  d :     0.000060
      dxz     :     0.000011
      dyz     :     0.000035
      dx2y2   :     0.000004
      dxy     :     0.000007
      f0      :     0.000000  f :     0.000001
      f+1     :     0.000000
      f-1     :     0.000000
      f+2     :     0.000000
      f-2     :     0.000000
      f+3     :     0.000000
      f-3     :     0.000000
  1 O s       :     0.000182  s :     0.000182
      pz      :     0.002041  p :     0.004322
      px      :     0.000707
      py      :     0.001574
      dz2     :     0.000002  d :     0.000046
      dxz     :     0.000009
      dyz     :     0.000019
      dx2y2   :     0.000003
      dxy     :     0.000013
      f0      :     0.000000  f :     0.000001
      f+1     :     0.000000
      f-1     :     0.000000
      f+2     :     0.000000
      f-2     :     0.000000
      f+3     :     0.000001
      f-3     :     0.000000
  2 H s       :     0.025076  s :     0.025076
      pz      :     0.000827  p :     0.001513
      px      :     0.000220
      py      :     0.000466
  3 H s       :     0.000044  s :     0.000044
      pz      :     0.000001  p :     0.000002
      px      :     0.000000
      py      :     0.000001
  4 H s       :     0.001428  s :     0.001428
      pz      :     0.000001  p :     0.000005
      px      :     0.000000
      py      :     0.000003
  5 H s       :     0.000026  s :     0.000026
      pz      :     0.000000  p :     0.000001
      px      :     0.000000
      py      :     0.000001
  6 C s       :     2.869481  s :     2.869481
      pz      :     0.963296  p :     3.058459
      px      :     1.091256
      py      :     1.003907
      dz2     :     0.093532  d :     0.429488
      dxz     :     0.085325
      dyz     :     0.110770
      dx2y2   :     0.033761
      dxy     :     0.106100
      f0      :     0.009902  f :     0.058142
      f+1     :     0.005467
      f-1     :     0.011632
      f+2     :     0.011647
      f-2     :     0.010942
      f+3     :     0.003326
      f-3     :     0.005226
  7 O s       :     3.397122  s :     3.397122
      pz      :     1.263285  p :     4.591868
      px      :     1.783518
      py      :     1.545065
      dz2     :     0.018066  d :     0.072316
      dxz     :     0.008428
      dyz     :     0.030291
      dx2y2   :     0.008221
      dxy     :     0.007310
      f0      :     0.000528  f :     0.004632
      f+1     :     0.000253
      f-1     :     0.001624
      f+2     :     0.001114
      f-2     :     0.000662
      f+3     :     0.000252
      f-3     :     0.000199
  8 H s       :     0.657144  s :     0.657144
      pz      :     0.049953  p :     0.128252
      px      :     0.035394
      py      :     0.042905
  9 H s       :     0.844365  s :     0.844365
      pz      :     0.010220  p :     0.053436
      px      :     0.022768
      py      :     0.020448
 10 H s       :     0.834406  s :     0.834406
      pz      :     0.027663  p :     0.059658
      px      :     0.016184
      py      :     0.015811
 11 H s       :     0.846080  s :     0.846080
      pz      :     0.014234  p :     0.059406
      px      :     0.028723
      py      :     0.016449


                      *****************************
                      * MAYER POPULATION ANALYSIS *
                      *****************************

  NA   - Mulliken gross atomic population
  ZA   - Total nuclear charge
  QA   - Mulliken gross atomic charge
  VA   - Mayer's total valence
  BVA  - Mayer's bonded valence
  FA   - Mayer's free valence

  ATOM       NA         ZA         QA         VA         BVA        FA
  0 C     -0.0035     0.0000     0.0035    -0.0069    -0.0069     0.0000
  1 O     -0.0057     0.0000     0.0057    -0.0115    -0.0115     0.0000
  2 H      0.0239     0.0000    -0.0239     0.0472     0.0472    -0.0000
  3 H      0.0003     0.0000    -0.0003     0.0005     0.0005    -0.0000
  4 H      0.0024     0.0000    -0.0024     0.0048     0.0048    -0.0000
  5 H      0.0000     0.0000    -0.0000     0.0001     0.0001    -0.0000
  6 C      6.1742     6.0000    -0.1742     3.9461     3.9461    -0.0000
  7 O      8.4455     8.0000    -0.4455     1.9237     1.9237     0.0000
  8 H      0.6779     1.0000     0.3221     0.8979     0.8979    -0.0000
  9 H      0.9014     1.0000     0.0986     0.9655     0.9655    -0.0000
 10 H      0.8821     1.0000     0.1179     0.9597     0.9597     0.0000
 11 H      0.9015     1.0000     0.0985     0.9498     0.9498    -0.0000

  Mayer bond orders larger than 0.1
B(  6-C ,  7-O ) :   1.0113 B(  6-C ,  9-H ) :   0.9821 B(  6-C , 10-H ) :   0.9775 
B(  6-C , 11-H ) :   0.9642 B(  7-O ,  8-H ) :   0.8872 

-------
TIMINGS
-------

Total SCF time: 0 days 0 hours 0 min 9 sec 

Total time                  ....       9.756 sec
Sum of individual times     ....       9.487 sec  ( 97.2%)

Fock matrix formation       ....       8.968 sec  ( 91.9%)
  XC integration            ....       0.799 sec  (  8.9% of F)
    Basis function eval.    ....       0.070 sec  (  8.7% of XC)
    Density eval.           ....       0.064 sec  (  8.1% of XC)
    XC-Functional eval.     ....       0.094 sec  ( 11.8% of XC)
    XC-Potential eval.      ....       0.073 sec  (  9.1% of XC)
Diagonalization             ....       0.049 sec  (  0.5%)
Density matrix formation    ....       0.005 sec  (  0.0%)
Population analysis         ....       0.018 sec  (  0.2%)
Initial guess               ....       0.092 sec  (  0.9%)
Orbital Transformation      ....       0.000 sec  (  0.0%)
Orbital Orthonormalization  ....       0.000 sec  (  0.0%)
DIIS solution               ....       0.025 sec  (  0.3%)
SOSCF solution              ....       0.030 sec  (  0.3%)
Grid generation             ....       0.301 sec  (  3.1%)


-------------------------------------------------------------------------------
                          DFT DISPERSION CORRECTION                            
                                                                               
                              DFTD3 V3.1  Rev 1                                
                              USING zero damping                               
-------------------------------------------------------------------------------
The omegaB97X-D3 functional is recognized. Fit by Chai et al.
Active option DFTDOPT                   ...         3   

molecular C6(AA) [au] = 208.882757 


            DFT-D V3
 parameters
 s6 scaling factor         :     1.0000 
 rs6 scaling factor        :     1.2810 
 s8 scaling factor         :     1.0000 
 rs8 scaling factor        :     1.0940 
 Damping factor alpha6     :    14.0000 
 Damping factor alpha8     :    16.0000 
 ad hoc parameters k1-k3   :    16.0000     1.3333    -4.0000 

 Edisp/kcal,au: -0.157242145303  -0.000250581282 
 E6   /kcal   :  -0.032487783 
 E8   /kcal   :  -0.124754363 
 % E8         :  79.339010805 

-------------------------   ----------------
Dispersion correction           -0.000250581
-------------------------   ----------------


-------------------------   --------------------
FINAL SINGLE POINT ENERGY      -115.729960282155
-------------------------   --------------------


                            ***************************************
                            *     ORCA property calculations      *
                            ***************************************

                                    ---------------------
                                    Active property flags
                                    ---------------------
   (+) Dipole Moment


------------------------------------------------------------------------------
                       ORCA ELECTRIC PROPERTIES CALCULATION
------------------------------------------------------------------------------

Dipole Moment Calculation                       ... on
Quadrupole Moment Calculation                   ... off
Polarizability Calculation                      ... off
GBWName                                         ... 9-161_DFT_B.gbw
Electron density file                           ... 9-161_DFT_B.scfp.tmp
The origin for moment calculation is the CENTER OF MASS  = (-7.066279,  9.513055 12.786386)

-------------
DIPOLE MOMENT
-------------
                                X             Y             Z
Electronic contribution:     -0.32840      -1.37577       1.28248
Nuclear contribution   :      0.40849       2.05215      -1.17428
                        -----------------------------------------
Total Dipole Moment    :      0.08009       0.67638       0.10820
                        -----------------------------------------
Magnitude (a.u.)       :      0.68964
Magnitude (Debye)      :      1.75294



--------------------
Rotational spectrum 
--------------------
 
Rotational constants in cm-1:     4.105093     0.840087     0.800853 
Rotational constants in MHz : 123067.577509 25185.174065 24008.963662 

 Dipole components along the rotational axes: 
x,y,z [a.u.] :    -0.340675     0.590579     0.103757 
x,y,z [Debye]:    -0.865928     1.501133     0.263729 

 
------------------------------------------------------------------------------
                      ORCA CHELPG CHARGES GENERATION
------------------------------------------------------------------------------

GBW file                           ... 9-161_DFT_B.gbw

Reading the GBW file               ... done

Grid spacing                       ...     0.300000
Point Cut-Off                      ...     2.800000
Van-der-Waals Radii                ...        COSMO
Total charge                       ...            0


Number of points X direction       ...           25
Number of points Y direction       ...           37
Number of points Z direction       ...           35
Maximum number of possible points  ...        32375
Final number of points             ...         6053


CHELPG Charges            
--------------------------------
  0   C   :       0.012160
  1   O   :      -0.006235
  2   H   :      -0.004674
  3   H   :      -0.012305
  4   H   :      -0.015071
  5   H   :       0.003784
  6   C   :      -0.050535
  7   O   :      -0.505198
  8   H   :       0.381590
  9   H   :       0.034438
 10   H   :       0.110060
 11   H   :       0.051985
--------------------------------
Total charge:     0.000000
--------------------------------

CHELPG charges calculated...

Timings for individual parts in CHELPG calculation:
Grid generation                 ...        0.001 sec (=   0.000 min)
Potential calculation           ...        1.246 sec (=   0.021 min)
Fit to the potential            ...        0.002 sec (=   0.000 min)
------------------------------------------------------------------------------


Timings for individual modules:

Sum of individual times         ...       12.009 sec (=   0.200 min)
GTO integral calculation        ...        0.602 sec (=   0.010 min)   5.0 %
SCF iterations                  ...       10.129 sec (=   0.169 min)  84.3 %
CHELPG charge generation        ...        1.278 sec (=   0.021 min)  10.6 %



                             ****ORCA TERMINATED NORMALLY****
TOTAL RUN TIME: 0 days 0 hours 0 minutes 45 seconds 361 msec
