LAMMPS data file via vdw_self_gen.py, on 2021-08-05 13:24:02.410944

7500 atoms
6 atom types
7000 bonds
5 bond types
12000 angles
8 angle types
12000 dihedrals
6 dihedral types

-47.2413124613466238  47.2413124613466238 xlo xhi
-47.2413124613466238  47.2413124613466238 ylo yhi
-47.2413124613466238  47.2413124613466238 zlo zhi

Masses

1  1.007940
2  1.007940
3  12.011000
4  12.011000
5  12.011000
6  15.999400

Atoms

1         0    4   -0.0003600000000000   17.1775502028553326 -25.7406475963325789 -38.4317135409425248 0 0 0
2         0    3    0.1779090000000000   15.7937810702085937 -25.6525349282741750 -37.8440797765435377 0 0 0
3         0    6   -0.3681440000000000   15.1326488109579014 -24.6162637027923026 -37.9011559258212571 0 0 0
4         0    5    0.1816880000000000   15.2579949755655093 -26.8734531586805083 -37.1524957946233485 0 0 0
5         0    3    0.1779090000000000   15.6435867929516821 -26.9063458430934830 -35.7012284511690368 0 0 0
6         0    4   -0.0003600000000000   14.7069875465162454 -26.2519109437284861 -34.7209275868066243 0 0 0
7         0    6   -0.3681440000000000   16.7065593230660276 -27.4122688451531822 -35.3397743979213104 0 0 0
8         0    1    0.0285690000000000   17.4817895204862204 -24.7582650571317124 -38.8035472017113534 0 0 0
9         0    1    0.0285690000000000   17.1758710697044812 -26.4495280241924142 -39.2632808874690156 0 0 0
10        0    1    0.0285690000000000   17.8885371453975637 -26.0594929431635940 -37.6658641339187525 0 0 0
11        0    2    0.0140440000000000   15.6299973878117164 -27.7757367056512585 -37.6487759705813332 0 0 0
12        0    2    0.0140440000000000   14.1674542252584583 -26.8961466380185428 -37.2476950425997231 0 0 0
13        0    1    0.0285690000000000   14.5904024306538602 -25.1943208799022074 -34.9689281953850823 0 0 0
14        0    1    0.0285690000000000   15.1157965743296074 -26.3349252610126854 -33.7099509886085542 0 0 0
15        0    1    0.0285690000000000   13.7376052309698515 -26.7557633174281051 -34.7492274882758636 0 0 0
16        1    4   -0.0003600000000000   24.0229433940749146  37.2049881278198455 -36.7314329796303909 0 0 0
17        1    3    0.1779090000000000   25.4122118846931428  37.5634618205797963 -37.1889523435642033 0 0 0
18        1    6   -0.3681440000000000   25.6342400965416140  37.9541747796915345 -38.3344908459837015 0 0 0
19        1    5    0.1816880000000000   26.5300674894925663  37.3952633808268331 -36.1999606346590213 0 0 0
20        1    3    0.1779090000000000   27.1034723893899283  36.0075547697475145 -36.2375307292820992 0 0 0
21        1    4   -0.0003600000000000   28.2452206539556272  35.7555615565665335 -37.1858994821793800 0 0 0
22        1    6   -0.3681440000000000   26.6250388485519736  35.1058535713792068 -35.5486519211725636 0 0 0
23        1    1    0.0285690000000000   23.3304239258438635  37.2692974870832288 -37.5753395973506841 0 0 0
24        1    1    0.0285690000000000   23.7027034892697728  37.9049856755770236 -35.9558890615933038 0 0 0
25        1    1    0.0285690000000000   24.0092342867009023  36.1828425788575530 -36.3457898297993793 0 0 0
26        1    2    0.0140440000000000   26.1689880553119316  37.6129660947936131 -35.1895040163703854 0 0 0
27        1    2    0.0140440000000000   27.3159426109402155  38.1277555358086389 -36.4114140699107267 0 0 0
28        1    1    0.0285690000000000   27.9308833378974199  35.9702233523716970 -38.2099627123341534 0 0 0
29        1    1    0.0285690000000000   28.5516593199100512  34.7076261745320807 -37.1225223625826288 0 0 0
30        1    1    0.0285690000000000   29.0945740619812590  36.3860904767422184 -36.9113047959647105 0 0 0
31        2    4   -0.0003600000000000   14.9777628382473385 -17.5140783468790104  6.4480222908055023  0 0 0
32        2    3    0.1779090000000000   14.6861691361482887 -16.3313757252643832  5.5625382889612798  0 0 0
33        2    6   -0.3681440000000000   13.8432570149224379 -16.3867445940428951  4.6677505777913550  0 0 0
34        2    5    0.1816880000000000   15.4892463606985835 -15.0828231053549224  5.7909672611294987  0 0 0
35        2    3    0.1779090000000000   16.7677052894578829 -15.0903450689672027  5.0026614397384472  0 0 0
36        2    4   -0.0003600000000000   16.7292256384042943 -14.5068213626405402  3.6153934875354157  0 0 0
37        2    6   -0.3681440000000000   17.7924589753071274 -15.5948898795669439  5.4629136899613675  0 0 0
38        2    1    0.0285690000000000   14.4051619438797545 -18.3800632039892591  6.1043716978696327  0 0 0
39        2    1    0.0285690000000000   14.6861401406729417 -17.2810974987455523  7.4750055715664070  0 0 0
40        2    1    0.0285690000000000   16.0415267294130182 -17.7594494276408810  6.4045536989510925  0 0 0
41        2    2    0.0140440000000000   15.7188316647534592 -14.9776256827631613  6.8563401992793729  0 0 0
42        2    2    0.0140440000000000   14.8889558056238194 -14.2091192886708839  5.5168324236867408  0 0 0
43        2    1    0.0285690000000000   16.0052921580724217 -15.0508925498813433  3.0042470292547740  0 0 0
44        2    1    0.0285690000000000   17.7167256613725890 -14.5916701164466449  3.1530794451192583  0 0 0
45        2    1    0.0285690000000000   16.4581029497590876 -13.4495664558795394  3.6708436672608635  0 0 0
46        3    4   -0.0003600000000000  -38.0367826845175117  13.8820571444379866  36.7401026052939486 0 0 0
47        3    3    0.1779090000000000  -37.5363340415680895  15.1032199351837786  37.4655037977854022 0 0 0
48        3    6   -0.3681440000000000  -38.2830851715627531  15.7950512818373756  38.1568385513159569 0 0 0
49        3    5    0.1816880000000000  -36.0900938458180960  15.4677713154580836  37.2880550560679040 0 0 0
50        3    3    0.1779090000000000  -35.8807479921909405  16.3516141863251363  36.0918376955156575 0 0 0
51        3    4   -0.0003600000000000  -35.9660977363897132  17.8392512505402827  36.3066500716455067 0 0 0
52        3    6   -0.3681440000000000  -35.6903701165076583  15.8702744361697707  34.9744362341909039 0 0 0
53        3    1    0.0285690000000000  -39.1195328257756287  13.7970798385420661  36.8678847483663574 0 0 0
54        3    1    0.0285690000000000  -37.5598051091442358  12.9907559536404449  37.1549436738658727 0 0 0
55        3    1    0.0285690000000000  -37.8167300146343450  13.9655162430678779  35.6731904705643927 0 0 0
56        3    2    0.0140440000000000  -35.4879066348053414  14.5597664420124708  37.1799203271797509 0 0 0
57        3    2    0.0140440000000000  -35.7288698229302355  15.9720894462911431  38.1902952940875551 0 0 0
58        3    1    0.0285690000000000  -36.9527762145905214  18.1017283214820992  36.6954488654774167 0 0 0
59        3    1    0.0285690000000000  -35.8113202353497257  18.3576734671410797  35.3561911242382365 0 0 0
60        3    1    0.0285690000000000  -35.1881929365925288  18.1527130446034555  37.0073468667824557 0 0 0
61        4    4   -0.0003600000000000  -3.8518375940027152   26.5601732019180652 -38.5040015268015523 0 0 0
62        4    3    0.1779090000000000  -4.7512955948566917   27.1497373423634372 -37.4498270987296706 0 0 0
63        4    6   -0.3681440000000000  -4.4456424732924624   28.1731526843833393 -36.8387552446925852 0 0 0
64        4    5    0.1816880000000000  -6.0290601410359574   26.4211200234160692 -37.1458023700360229 0 0 0
65        4    3    0.1779090000000000  -5.8338109741987614   25.3697212229773150 -36.0911089521247774 0 0 0
66        4    4   -0.0003600000000000  -6.0265892194516528   25.7837831605637575 -34.6565768923229101 0 0 0
67        4    6   -0.3681440000000000  -5.4873077781275779   24.2270980720239244 -36.3925481440322116 0 0 0
68        4    1    0.0285690000000000  -2.9160637884199296   27.1245180972821487 -38.5457089705207707 0 0 0
69        4    1    0.0285690000000000  -4.3446049891611747   26.6183225245591153 -39.4775607098228605 0 0 0
70        4    1    0.0285690000000000  -3.6218149408994740   25.5205072181888966 -38.2593092236209884 0 0 0
71        4    2    0.0140440000000000  -6.4177135683132684   25.9551021054876720 -38.0571591720270419 0 0 0
72        4    2    0.0140440000000000  -6.7880695492621408   27.1391790795950314 -36.8184601500833963 0 0 0
73        4    1    0.0285690000000000  -5.3273707857994124   26.5845368049106128 -34.4046238861766369 0 0 0
74        4    1    0.0285690000000000  -5.8385848754007519   24.9304194504685022 -33.9989184512530400 0 0 0
75        4    1    0.0285690000000000  -7.0557544966890973   26.1202328564172923 -34.5082845901328454 0 0 0
76        5    4   -0.0003600000000000  -35.0261971704063697  27.5273147088959433 -37.4912555525356197 0 0 0
77        5    3    0.1779090000000000  -35.6600606544178333  26.1671580725867763 -37.3644277001490579 0 0 0
78        5    6   -0.3681440000000000  -35.6557152205807171  25.3631869684691047 -38.2959979791664651 0 0 0
79        5    5    0.1816880000000000  -36.3308241401146859  25.8364245604046516 -36.0618578713968816 0 0 0
80        5    3    0.1779090000000000  -37.7673828512944638  26.2746430906192714 -36.0475935939877843 0 0 0
81        5    4   -0.0003600000000000  -38.7965435333942281  25.2900061961967495 -36.5352527445857618 0 0 0
82        5    6   -0.3681440000000000  -38.0791704441389030  27.4112646661788233 -35.6906655797877264 0 0 0
83        5    1    0.0285690000000000  -34.6749810771280735  27.6745791011329239 -38.5163690787371777 0 0 0
84        5    1    0.0285690000000000  -34.1738777132601328  27.5970218416758186 -36.8110269211847054 0 0 0
85        5    1    0.0285690000000000  -35.7589122308223395  28.3035974686904837 -37.2584384161701934 0 0 0
86        5    2    0.0140440000000000  -35.7956550818566654  26.3154045578842890 -35.2354393043271159 0 0 0
87        5    2    0.0140440000000000  -36.2697924408491517  24.7575951358624593 -35.8850550905173975 0 0 0
88        5    1    0.0285690000000000  -38.5847492037649218  25.0147418900272704 -37.5710933973340104 0 0 0
89        5    1    0.0285690000000000  -39.7909716542147436  25.7425306535203262 -36.4860164952832235 0 0 0
90        5    1    0.0285690000000000  -38.7838119661341025  24.4021349324102950 -35.8981556572141898 0 0 0
91        6    4   -0.0003600000000000   27.2799036198037008 -5.5606961632134153   3.2530748067647046  0 0 0
92        6    3    0.1779090000000000   25.9998782964319517 -5.4439195525736146   4.0377994021066224  0 0 0
93        6    6   -0.3681440000000000   25.0289773115785650 -4.8264030945512273   3.6016385310026262  0 0 0
94        6    5    0.1816880000000000   25.9610128542457623 -6.0852589550873750   5.3954332690924725  0 0 0
95        6    3    0.1779090000000000   26.4550152635082227 -5.1546451090427441   6.4658814788125296  0 0 0
96        6    4   -0.0003600000000000   25.4390199140362014 -4.2684545385206487   7.1358909512597251  0 0 0
97        6    6   -0.3681440000000000   27.6520020423844812 -5.0933673474636931   6.7486983869550690  0 0 0
98        6    1    0.0285690000000000   27.2074032673627926 -4.9616645195577549   2.3410429675205195  0 0 0
99        6    1    0.0285690000000000   27.4452028629807074 -6.6054376310321539   2.9788304669415377  0 0 0
100       6    1    0.0285690000000000   28.1176751867817849 -5.1900429149579006   3.8484277046502582  0 0 0
101       6    2    0.0140440000000000   26.5696314678648520 -6.9954118364907334   5.3947104070320790  0 0 0
102       6    2    0.0140440000000000   24.9364142626453855 -6.3992609405204011   5.6200607343202069  0 0 0
103       6    1    0.0285690000000000   24.9565463679963528 -3.6296241717210798   6.3924474940778939  0 0 0
104       6    1    0.0285690000000000   25.9348458830578146 -3.6356155946532489   7.8773498913019733  0 0 0
105       6    1    0.0285690000000000   24.6940752438766111 -4.8857183995250857   7.6442342770728118  0 0 0
106       7    4   -0.0003600000000000  -25.8678516552688080 -3.2649322288110652  -6.2847086672483758  0 0 0
107       7    3    0.1779090000000000  -26.0214729053994240 -4.0426724973478665  -5.0043122903382340  0 0 0
108       7    6   -0.3681440000000000  -25.2931055279004511 -3.8390681767885853  -4.0336229230096068  0 0 0
109       7    5    0.1816880000000000  -27.0818955677672797 -5.1056583322817568  -4.9647982362997398  0 0 0
110       7    3    0.1779090000000000  -26.5654007915449242 -6.4268808465897278  -5.4583001049088820  0 0 0
111       7    4   -0.0003600000000000  -25.9558698673158332 -7.3553671198630663  -4.4419939190812858  0 0 0
112       7    6   -0.3681440000000000  -26.6029684077607342 -6.7143686964289442  -6.6551531146000009  0 0 0
113       7    1    0.0285690000000000  -24.9970612527509140 -2.6073394693213210  -6.2126453301803553  0 0 0
114       7    1    0.0285690000000000  -26.7596144155238669 -2.6554951926283397  -6.4501299798144389  0 0 0
115       7    1    0.0285690000000000  -25.7190615688404520 -3.9506134689102552  -7.1222006666469877  0 0 0
116       7    2    0.0140440000000000  -27.9389316142116719 -4.7992662640289243  -5.5734102001212964  0 0 0
117       7    2    0.0140440000000000  -27.4529672958408923 -5.2111931016250823  -3.9400908614926156  0 0 0
118       7    1    0.0285690000000000  -25.1042061303878867 -6.8697478653137871  -3.9598777992377983  0 0 0
119       7    1    0.0285690000000000  -25.6092165096334199 -8.2666419055761438  -4.9374730757882999  0 0 0
120       7    1    0.0285690000000000  -26.7079803344086990 -7.6262756033962136  -3.6968036001431521  0 0 0
121       8    4   -0.0003600000000000  -28.4017012231510186  36.2371462641241777 -4.7541512035537812  0 0 0
122       8    3    0.1779090000000000  -26.9836620944142318  35.7748826551141761 -4.9624098911432046  0 0 0
123       8    6   -0.3681440000000000  -26.4664837320832582  34.9289824574821779 -4.2335813784032137  0 0 0
124       8    5    0.1816880000000000  -26.2067803492614892  36.4110114895210017 -6.0794556953449073  0 0 0
125       8    3    0.1779090000000000  -25.5095370823811898  37.6634210740280224 -5.6308334266989952  0 0 0
126       8    4   -0.0003600000000000  -24.1146304863225396  37.5209161167924421 -5.0827267801096951  0 0 0
127       8    6   -0.3681440000000000  -26.0788423003945731  38.7546095394558279 -5.6722703433320794  0 0 0
128       8    1    0.0285690000000000  -28.8088559831303925  35.7767982567107481 -3.8496060136950208  0 0 0
129       8    1    0.0285690000000000  -29.0119332209459060  35.9378567446363562 -5.6097569683146302  0 0 0
130       8    1    0.0285690000000000  -28.4264739614088491  37.3228764211987496 -4.6347090026445832  0 0 0
131       8    2    0.0140440000000000  -26.8773037312840657  36.6458736289632299 -6.9125424714478774  0 0 0
132       8    2    0.0140440000000000  -25.4733967869516569  35.6956161206264539 -6.4657393160149681  0 0 0
133       8    1    0.0285690000000000  -24.1243494306382082  36.8628961105192730 -4.2106554827574314  0 0 0
134       8    1    0.0285690000000000  -23.7358148927253119  38.5016109667278172 -4.7813528635909988  0 0 0
135       8    1    0.0285690000000000  -23.4578385694625453  37.1141475364768922 -5.8557299318597007  0 0 0
136       9    4   -0.0003600000000000   3.1170185770851200  -37.0136842472803096 -36.0131582499207639 0 0 0
137       9    3    0.1779090000000000   4.3369425888584470  -36.1392955307458692 -36.1361382226647976 0 0 0
138       9    6   -0.3681440000000000   4.2483684151056504  -34.9401810408604092 -36.3978454248789021 0 0 0
139       9    5    0.1816880000000000   5.6769353840046790  -36.7941810365495030 -35.9585410609631140 0 0 0
140       9    3    0.1779090000000000   6.2026329086021015  -37.3477563123097056 -37.2520388024374185 0 0 0
141       9    4   -0.0003600000000000   7.0452136805418624  -36.4361167691231245 -38.1037805218899592 0 0 0
142       9    6   -0.3681440000000000   5.9156611755911435  -38.4887974425539028 -37.6156183397380488 0 0 0
143       9    1    0.0285690000000000   2.2244141956667969  -36.4370172621988218 -36.2712471756611592 0 0 0
144       9    1    0.0285690000000000   3.0248308795736971  -37.3678903053415752 -34.9835670547562785 0 0 0
145       9    1    0.0285690000000000   3.1949812228294112  -37.8613929096201645 -36.6979954214896864 0 0 0
146       9    2    0.0140440000000000   5.6026200769499157  -37.5999208647511907 -35.2209395619903418 0 0 0
147       9    2    0.0140440000000000   6.3860485332826746  -36.0665410184128916 -35.5504288650816420 0 0 0
148       9    1    0.0285690000000000   6.4704140484157104  -35.5482570931211157 -38.3774659486800331 0 0 0
149       9    1    0.0285690000000000   7.3448679189763304  -36.9584868190943965 -39.0167026152151664 0 0 0
150       9    1    0.0285690000000000   7.9445711634274918  -36.1491267304143591 -37.5531781170100274 0 0 0
151       10   4   -0.0003600000000000   14.5548108521340289  6.3381648161599315  -14.1521472983331353 0 0 0
152       10   3    0.1779090000000000   14.6409573252968528  5.2252669257587003  -15.1630535088700444 0 0 0
153       10   6   -0.3681440000000000   14.2083743155920157  4.0987946459599778  -14.9219233648403833 0 0 0
154       10   5    0.1816880000000000   15.3074060681120390  5.5325572183235963  -16.4735554042885255 0 0 0
155       10   3    0.1779090000000000   16.7909344352340995  5.3063413114121136  -16.4110267876051061 0 0 0
156       10   4   -0.0003600000000000   17.2976262143162991  3.9337771843788225  -16.7657437575852128 0 0 0
157       10   6   -0.3681440000000000   17.5527933042378415  6.2004809012792990  -16.0414281215462431 0 0 0
158       10   1    0.0285690000000000   14.1497034139262077  5.9507279454908861  -13.2131702369760085 0 0 0
159       10   1    0.0285690000000000   13.8918636576296350  7.1213075181084440  -14.5279225742408631 0 0 0
160       10   1    0.0285690000000000   15.5500475176773936  6.7463282253281651  -13.9608446248696261 0 0 0
161       10   2    0.0140440000000000   15.1089587557297182  6.5711918042572481  -16.7575488338087766 0 0 0
162       10   2    0.0140440000000000   14.8693081025946015  4.9085822757081363  -17.2594195544426832 0 0 0
163       10   1    0.0285690000000000   16.8598129954857257  3.1918317990735634  -16.0938585256880842 0 0 0
164       10   1    0.0285690000000000   18.3860415388808249  3.9054092197574852  -16.6626068580955078 0 0 0
165       10   1    0.0285690000000000   17.0379238098857897  3.7047589779146484  -17.8023128555429615 0 0 0
166       11   4   -0.0003600000000000  -4.6404055654320100  -38.5959662373144425 -37.9045536273040682 0 0 0
167       11   3    0.1779090000000000  -4.2976061971039208  -37.2182252481806870 -37.4023458458683393 0 0 0
168       11   6   -0.3681440000000000  -3.1800567870755514  -36.9507889550378010 -36.9621495838950764 0 0 0
169       11   5    0.1816880000000000  -5.3856523965972851  -36.1830977874648099 -37.4280961165453832 0 0 0
170       11   3    0.1779090000000000  -6.2077010081488950  -36.2070808981636105 -36.1712744222914822 0 0 0
171       11   4   -0.0003600000000000  -5.7547780799701904  -35.3347903949356734 -35.0308959457722224 0 0 0
172       11   6   -0.3681440000000000  -7.1873644522540818  -36.9462706101022604 -36.0694126411956049 0 0 0
173       11   1    0.0285690000000000  -3.7983095125393236  -39.2710465319919777 -37.7283772371701005 0 0 0
174       11   1    0.0285690000000000  -4.8418504431040148  -38.5530038966207087 -38.9776765144152435 0 0 0
175       11   1    0.0285690000000000  -5.5134526660161534  -38.9806617052402871 -37.3721174724282648 0 0 0
176       11   2    0.0140440000000000  -6.0368549353867831  -36.3489865855870846 -38.2925101186483516 0 0 0
177       11   2    0.0140440000000000  -4.9410994379726132  -35.1915260709001743 -37.5623168928325200 0 0 0
178       11   1    0.0285690000000000  -4.7448629582376824  -35.6184105462845437 -34.7255695780198224 0 0 0
179       11   1    0.0285690000000000  -6.4300403935570705  -35.4616454517790558 -34.1800031895434699 0 0 0
180       11   1    0.0285690000000000  -5.7754859355155128  -34.2871444627742079 -35.3413461964473612 0 0 0
181       12   4   -0.0003600000000000  -14.7981052316677655 -25.0917846204386805  17.4561243380785527 0 0 0
182       12   3    0.1779090000000000  -16.0388834872423729 -25.4912708866626652  16.7019530449417459 0 0 0
183       12   6   -0.3681440000000000  -17.0848193800213011 -25.7764069467915000  17.2841275370065830 0 0 0
184       12   5    0.1816880000000000  -15.9446294931333554 -25.5610257120533326  15.2045396359162996 0 0 0
185       12   3    0.1779090000000000  -15.4810107506268402 -26.9111609928235680  14.7374933151769891 0 0 0
186       12   4   -0.0003600000000000  -16.5364008743975646 -27.9496587160722783  14.4651568760902016 0 0 0
187       12   6   -0.3681440000000000  -14.2811638823005147 -27.1649230650921290  14.6257345587170065 0 0 0
188       12   1    0.0285690000000000  -14.9749632105408619 -25.1876244682036834  18.5310351557231101 0 0 0
189       12   1    0.0285690000000000  -14.5524058583959768 -24.0516463040075799  17.2286103100149468 0 0 0
190       12   1    0.0285690000000000  -13.9669259291512997 -25.7447409411862616  17.1795757670028451 0 0 0
191       12   2    0.0140440000000000  -15.2556854847429317 -24.7926845434538521  14.8387481531858683 0 0 0
192       12   2    0.0140440000000000  -16.9222059222612522 -25.3323388065601769  14.7676144210688154 0 0 0
193       12   1    0.0285690000000000  -17.1153810991463686 -28.1367280181307251  15.3725598239458954 0 0 0
194       12   1    0.0285690000000000  -16.0614185608566480 -28.8830859254155143  14.1502039798008958 0 0 0
195       12   1    0.0285690000000000  -17.1925631422480869 -27.6025238976633105  13.6630853900632765 0 0 0
196       13   4   -0.0003600000000000   16.2702319453848538 -3.2202027144049770   35.8704125299709489 0 0 0
197       13   3    0.1779090000000000   16.7290199652385070 -4.5502807094486011   36.4073486302095972 0 0 0
198       13   6   -0.3681440000000000   17.6521693550274499 -5.1740173231126967   35.8848934218834188 0 0 0
199       13   5    0.1816880000000000   15.9933776535911480 -5.1077681072024568   37.5922683149392256 0 0 0
200       13   3    0.1779090000000000   14.8033618073377280 -5.9241484522092822   37.1759447647378636 0 0 0
201       13   4   -0.0003600000000000   15.0209438268539106 -7.3950774540364907   36.9403202605646257 0 0 0
202       13   6   -0.3681440000000000   13.7056284859472477 -5.3963988065652195   36.9943419480427522 0 0 0
203       13   1    0.0285690000000000   16.8146211262151759 -2.9879190211994984   34.9508572066403218 0 0 0
204       13   1    0.0285690000000000   16.4719127962746903 -2.4400812312056690   36.6084869423002672 0 0 0
205       13   1    0.0285690000000000   15.2021149097746306 -3.2577081715866658   35.6436760291140828 0 0 0
206       13   2    0.0140440000000000   15.6651872413448370 -4.2917081754252626   38.2442902838615950 0 0 0
207       13   2    0.0140440000000000   16.6760139891900536 -5.7229966694459788   38.1875484745446627 0 0 0
208       13   1    0.0285690000000000   15.7643107652558179 -7.5384295910192129   36.1526344768199479 0 0 0
209       13   1    0.0285690000000000   14.0816270372235497 -7.8606561820137504   36.6288555001605118 0 0 0
210       13   1    0.0285690000000000   15.3560414020734246 -7.8681281600353170   37.8667665985875175 0 0 0
211       14   4   -0.0003600000000000  -26.0827054419083524  26.2078369134886771 -23.9815779693101589 0 0 0
212       14   3    0.1779090000000000  -25.6212917191175187  25.6852618151022334 -25.3164588399374608 0 0 0
213       14   6   -0.3681440000000000  -24.4325174365681015  25.4692159505638500 -25.5495929072999566 0 0 0
214       14   5    0.1816880000000000  -26.6675729546444025  25.4660350267763214 -26.3715567785500973 0 0 0
215       14   3    0.1779090000000000  -26.9131221588007179  26.7080660836019668 -27.1796436072502949 0 0 0
216       14   4   -0.0003600000000000  -26.0744667403679102  26.9082679725461276 -28.4137705307863193 0 0 0
217       14   6   -0.3681440000000000  -27.7392371843537511  27.5463188292337087 -26.8171742769665222 0 0 0
218       14   1    0.0285690000000000  -25.2150480871297447  26.4231287279888640 -23.3517228777948276 0 0 0
219       14   1    0.0285690000000000  -26.7002361141756239  25.4531668173090608 -23.4884781345491049 0 0 0
220       14   1    0.0285690000000000  -26.6520588471311157  27.1302088861563391 -24.1185332390094480 0 0 0
221       14   2    0.0140440000000000  -27.6043659401010935  25.1435705264094835 -25.9054763613447498 0 0 0
222       14   2    0.0140440000000000  -26.3538640568216920  24.6499879131580570 -27.0307311520524109 0 0 0
223       14   1    0.0285690000000000  -25.0167400404138469  26.9401362668705424 -28.1421241168192964 0 0 0
224       14   1    0.0285690000000000  -26.3449579491023478  27.8533733731845885 -28.8930409845818765 0 0 0
225       14   1    0.0285690000000000  -26.2594191739190386  26.0930287421653730 -29.1177220683027329 0 0 0
226       15   4   -0.0003600000000000  -6.1314353565235642   3.1790576717492280  -4.9520175465791958  0 0 0
227       15   3    0.1779090000000000  -5.1089028925655455   4.2133225833210872  -4.5613543301853339  0 0 0
228       15   6   -0.3681440000000000  -4.8075808943578640   4.4114277788208689  -3.3848463664587278  0 0 0
229       15   5    0.1816880000000000  -4.4889062777912212   5.0227230599201516  -5.6642920141682405  0 0 0
230       15   3    0.1779090000000000  -5.2984949699323023   6.2479843682735927  -5.9793170231901893  0 0 0
231       15   4   -0.0003600000000000  -4.9745341056450840   7.5063327109676887  -5.2189869781115323  0 0 0
232       15   6   -0.3681440000000000  -6.2181624787055174   6.2062500263575844  -6.7972336658939039  0 0 0
233       15   1    0.0285690000000000  -6.5768145230292987   2.7449991067367852  -4.0525022064198541  0 0 0
234       15   1    0.0285690000000000  -5.6463783686295841   2.3855964671777401  -5.5257400994173960  0 0 0
235       15   1    0.0285690000000000  -6.9234854234183132   3.6427345567250660  -5.5447658403524658  0 0 0
236       15   2    0.0140440000000000  -4.3904646299936241   4.4094181796439598  -6.5659359420623424  0 0 0
237       15   2    0.0140440000000000  -3.4732477268151878   5.3126500498330387  -5.3757836655033815  0 0 0
238       15   1    0.0285690000000000  -5.1055209141750124   7.3363812719791639  -4.1477483965729114  0 0 0
239       15   1    0.0285690000000000  -5.6462274052064592   8.3098215679881413  -5.5341435236065024  0 0 0
240       15   1    0.0285690000000000  -3.9453648021224899   7.8068213694169390  -5.4308531703891108  0 0 0
241       16   4   -0.0003600000000000  -15.4290556885725128  34.8246073358678672  37.9134299007617841 0 0 0
242       16   3    0.1779090000000000  -15.1002918264318282  35.6727412920943010  36.7132309959772343 0 0 0
243       16   6   -0.3681440000000000  -13.9488930270195866  35.7766958632012759  36.2917029949405148 0 0 0
244       16   5    0.1816880000000000  -16.2308813455774086  36.4182875347561321  36.0636737561199752 0 0 0
245       16   3    0.1779090000000000  -16.4449669500740896  37.7650745606194604  36.6931750995764290 0 0 0
246       16   4   -0.0003600000000000  -15.6831095594541399  38.9282003925651949  36.1159363396007009 0 0 0
247       16   6   -0.3681440000000000  -17.1828207989899617  37.8972922132774315  37.6702154807100129 0 0 0
248       16   1    0.0285690000000000  -14.5063540907627573  34.4304326333745934  38.3483383420613819 0 0 0
249       16   1    0.0285690000000000  -16.0617742166061603  33.9883017621209405  37.6063813966085050 0 0 0
250       16   1    0.0285690000000000  -15.9406015285264466  35.4274497380929887  38.6674802927153038 0 0 0
251       16   2    0.0140440000000000  -17.1529060038095231  35.8321347686079719  36.1350240977366539 0 0 0
252       16   2    0.0140440000000000  -16.0221911138303987  36.5365491982148001  34.9953481573302696 0 0 0
253       16   1    0.0285690000000000  -14.6092873588257515  38.7396141984141806  36.1861806490730160 0 0 0
254       16   1    0.0285690000000000  -15.9197194754082645  39.8372930746744700  36.6759864473656663 0 0 0
255       16   1    0.0285690000000000  -15.9737093228443445  39.0739708164957307  35.0725414317998840 0 0 0
256       17   4   -0.0003600000000000  -17.1874250484247106 -36.8512778056296710  3.4981894176475903  0 0 0
257       17   3    0.1779090000000000  -15.8621658595958692 -37.2325403351973989  4.1033515957224713  0 0 0
258       17   6   -0.3681440000000000  -15.3954844750930828 -38.3639715242100792  3.9757445673583662  0 0 0
259       17   5    0.1816880000000000  -15.1401081415920959 -36.1846557038113801  4.9012030353878790  0 0 0
260       17   3    0.1779090000000000  -15.5619266274853469 -36.1925711225565152  6.3427114091425354  0 0 0
261       17   4   -0.0003600000000000  -14.7907889756921218 -37.0779983195865057  7.2849737777779726  0 0 0
262       17   6   -0.3681440000000000  -16.5287696839223841 -35.5315426030961987  6.7232025615752704  0 0 0
263       17   1    0.0285690000000000  -17.6498367934308718 -37.7313712833640480  3.0426588088738709  0 0 0
264       17   1    0.0285690000000000  -17.0311827137639114 -36.0934807356526264  2.7265998467655339  0 0 0
265       17   1    0.0285690000000000  -17.8551410495191156 -36.4680059573151780  4.2733978632105085  0 0 0
266       17   2    0.0140440000000000  -15.3279378194082518 -35.1950032885923889  4.4721301790071637  0 0 0
267       17   2    0.0140440000000000  -14.0605260604997166 -36.3524909312350530  4.8291552351445413  0 0 0
268       17   1    0.0285690000000000  -14.8569922478827703 -38.1173535372556032  6.9548965255243980  0 0 0
269       17   1    0.0285690000000000  -15.2117457660967990 -36.9992142662448060  8.2912929785046838  0 0 0
270       17   1    0.0285690000000000  -13.7465310443261064 -36.7571679686298580  7.3160129672682492  0 0 0
271       18   4   -0.0003600000000000  -4.8044947216932936  -17.8155547922272604  25.4232543680345735 0 0 0