LAMMPS data file via vdw_self_gen.py, on 2021-08-05 13:21:18.960609

5000 atoms
3 atom types
4500 bonds
3 bond types
7000 angles
3 angle types
3500 dihedrals
2 dihedral types

-40.9048015351680760  40.9048015351680689 xlo xhi
-40.9048015351680760  40.9048015351680689 ylo yhi
-40.9048015351680760  40.9048015351680689 zlo zhi

Masses

1  32.066000
2  1.007940
3  12.011000

Atoms

1         0    3   -0.2077270000000000   24.3723725308839931 -13.1191770118816127 -31.3539647905442749 0 0 0
2         0    1   -0.1257920000000000   23.1401977370269236 -12.2462344935826994 -32.3657198055203494 0 0 0
3         0    2    0.1111730000000000   24.3346608876334400 -12.7583408567684700 -30.3050761522101055 0 0 0
4         0    2    0.1111730000000000   25.3807040320187447 -12.8888780777455576 -31.7547271482515967 0 0 0
5         0    2    0.1111730000000000   24.2209115033401474 -14.2164216403205685 -31.4169923551269399 0 0 0
6         0    1   -0.1257920000000000   21.5000073545955175 -12.9258267238178366 -31.1813922586890051 0 0 0
7         0    3   -0.2077270000000000   21.1457635095584919 -14.3278129021559160 -32.2826921290251292 0 0 0
8         0    2    0.1111730000000000   20.2544359753637764 -14.8615169883841229 -31.8940023809873345 0 0 0
9         0    2    0.1111730000000000   21.9957161934234868 -15.0408231229923057 -32.2907701902735766 0 0 0
10        0    2    0.1111730000000000   20.9041276937558536 -13.9643066329111640 -33.3031191740122594 0 0 0
11        1    3   -0.2077270000000000   23.7180322009796676  30.5188494694522952  23.4506154427015332 0 0 0
12        1    1   -0.1257920000000000   23.8303571705735422  32.3172891872389343  23.6892139672008213 0 0 0
13        1    2    0.1111730000000000   23.1288770635050938  30.0577867563362844  24.2704383949670941 0 0 0
14        1    2    0.1111730000000000   24.7426325647998056  30.0958595726653044  23.4912863693662857 0 0 0
15        1    2    0.1111730000000000   23.2897604271872360  30.2844065607413171  22.4543832901749134 0 0 0
16        1    1   -0.1257920000000000   21.7147255574883360  32.5872515925113646  23.6122399088823265 0 0 0
17        1    3   -0.2077270000000000   21.7236979544384319  33.0031978368999361  21.8428265687404561 0 0 0
18        1    2    0.1111730000000000   20.6853406021333086  33.2419441643645186  21.5342836298550147 0 0 0
19        1    2    0.1111730000000000   22.0695528946250228  32.1375299443248252  21.2412687119942518 0 0 0
20        1    2    0.1111730000000000   22.3459209818699343  33.9043413001057843  21.6623411337176783 0 0 0
21        2    3   -0.2077270000000000  -30.1377900755490202 -13.0190861140603182  22.7537344731364257 0 0 0
22        2    1   -0.1257920000000000  -31.0070231288903209 -13.9123997949401872  21.4307242162858529 0 0 0
23        2    2    0.1111730000000000  -30.1740182074193761 -11.9254711467244370  22.5680301377532011 0 0 0
24        2    2    0.1111730000000000  -29.0726907512016695 -13.3286702416613494  22.7436557920559856 0 0 0
25        2    2    0.1111730000000000  -30.5617930382741427 -13.2821297784555998  23.7446371977374966 0 0 0
26        2    1   -0.1257920000000000  -32.8658477561609814 -12.9393938548570873  21.8215339830715571 0 0 0
27        2    3   -0.2077270000000000  -33.4713672408138621 -14.2860737593618303  22.8815881038167213 0 0 0
28        2    2    0.1111730000000000  -34.5013653912736373 -14.0370862507782643  23.2094502329484449 0 0 0
29        2    2    0.1111730000000000  -32.8376396813557392 -14.3836508758588817  23.7869811022540603 0 0 0
30        2    2    0.1111730000000000  -33.5189211137018148 -15.2353766338622982  22.3085621785406296 0 0 0
31        3    3   -0.2077270000000000  -22.4872646967831074  14.9136268291902390  30.5896540625337323 0 0 0
32        3    1   -0.1257920000000000  -22.4825349695307963  13.1084905001718148  30.3765999930161570 0 0 0
33        3    2    0.1111730000000000  -23.4842450910657021  15.3288510043903141  30.3338978265480890 0 0 0
34        3    2    0.1111730000000000  -21.7485554450980132  15.3507722782348974  29.8870923353848710 0 0 0
35        3    2    0.1111730000000000  -22.1812961120631265  15.1845961086895311  31.6210693843765327 0 0 0
36        3    1   -0.1257920000000000  -24.0368050271173175  12.8083359217705066  31.8079817189560714 0 0 0
37        3    3   -0.2077270000000000  -22.8722139396169304  12.4704865334824380  33.1620499373808428 0 0 0
38        3    2    0.1111730000000000  -23.4561651849621668  12.2288969247442498  34.0736528932281075 0 0 0
39        3    2    0.1111730000000000  -22.2554104233777892  13.3670959390927102  33.3777195713727650 0 0 0
40        3    2    0.1111730000000000  -22.2444065279854613  11.5881864107934831  32.9187386618433919 0 0 0
41        4    3   -0.2077270000000000  -31.7487154211750244  5.7375659364949385   30.4859451559961272 0 0 0
42        4    1   -0.1257920000000000  -32.2119844090405749  5.9864209183632564   32.2258832629646861 0 0 0
43        4    2    0.1111730000000000  -30.6849232338837723  6.0116657644685265   30.3278067954919415 0 0 0
44        4    2    0.1111730000000000  -32.3682269419191471  6.4111630219505393   29.8591653503777401 0 0 0
45        4    2    0.1111730000000000  -31.9549507692805577  4.6930991804774260   30.1738316058800748 0 0 0
46        4    1   -0.1257920000000000  -30.7535803018565765  4.6035822957806483   32.9438781321961329 0 0 0
47        4    3   -0.2077270000000000  -31.9370438265220606  3.2257387339294326   33.0137104689141125 0 0 0
48        4    2    0.1111730000000000  -31.4136833278825947  2.3351556662905413   33.4178640699109906 0 0 0
49        4    2    0.1111730000000000  -32.3037245373092006  2.9757180908862710   31.9969000985456198 0 0 0
50        4    2    0.1111730000000000  -32.7716236157710554  3.4696698748784884   33.7034714443631458 0 0 0
51        5    3   -0.2077270000000000   14.2765155231091629  21.1572286616067942 -31.2461387758676281 0 0 0
52        5    1   -0.1257920000000000   15.0565711549116976  22.7983625010947613 -31.2000464187938853 0 0 0
53        5    2    0.1111730000000000   13.8009679384650994  20.9294456919743688 -30.2695315426440388 0 0 0
54        5    2    0.1111730000000000   15.0667641115117590  20.3990690552250022 -31.4224386975315788 0 0 0
55        5    2    0.1111730000000000   13.5494953387924824  21.0951987427939827 -32.0818735616509088 0 0 0
56        5    1   -0.1257920000000000   13.2198503002231522  23.7993409161445584 -30.7767255679530862 0 0 0
57        5    3   -0.2077270000000000   12.9083631923687534  24.1956247416710397 -32.5231076171240545 0 0 0
58        5    2    0.1111730000000000   11.9725913061358771  24.7878800440419411 -32.5859501095134405 0 0 0
59        5    2    0.1111730000000000   12.7666563883728550  23.2671341274626222 -33.1136097389899575 0 0 0
60        5    2    0.1111730000000000   13.7315631966693470  24.8196129355853046 -32.9290343545719892 0 0 0
61        6    3   -0.2077270000000000   2.8656016762684589   22.2457089244413559  4.9227303652622947  0 0 0
62        6    1   -0.1257920000000000   3.6378878535625239   23.8880971384987788  5.0230627522854592  0 0 0
63        6    2    0.1111730000000000   2.3195903945225202   22.1350314244077424  3.9628270129957914  0 0 0
64        6    2    0.1111730000000000   2.1261486291774760   22.1560073124684322  5.7446447735538904  0 0 0
65        6    2    0.1111730000000000   3.6260315625134751   21.4491745832154024  5.0574082133039759  0 0 0
66        6    1   -0.1257920000000000   4.8277518180718229   23.5748644283116953  3.2792706650711976  0 0 0
67        6    3   -0.2077270000000000   6.2770623611352008   23.0340896044729000  4.2337217586676408  0 0 0
68        6    2    0.1111730000000000   7.1069182255995287   22.8327133942579366  3.5257871492059927  0 0 0
69        6    2    0.1111730000000000   6.0554013707937759   22.0933807909103166  4.7785168837803091  0 0 0
70        6    2    0.1111730000000000   6.6073855918752757   23.8398298166158078  4.9218099093935122  0 0 0
71        7    3   -0.2077270000000000  -13.8404264972046942  4.1172656949081237   11.9123048061820480 0 0 0
72        7    1   -0.1257920000000000  -13.5840909919673276  5.7524956157299520   12.6634684288394013 0 0 0
73        7    2    0.1111730000000000  -12.8764922600386473  3.7061294946534695   11.5468050308616252 0 0 0
74        7    2    0.1111730000000000  -14.5111968627059529  4.2356741225372145   11.0368466155003233 0 0 0
75        7    2    0.1111730000000000  -14.3335583358374041  3.4315155797796479   12.6316284195356037 0 0 0
76        7    1   -0.1257920000000000  -12.2438442671706866  5.0021231430917359   14.1451504788010958 0 0 0
77        7    3   -0.2077270000000000  -13.5511828327596469  4.8321341465262240   15.3965037328306842 0 0 0
78        7    2    0.1111730000000000  -13.0890136731612827  4.4730746175527125   16.3387672138536182 0 0 0
79        7    2    0.1111730000000000  -14.3021662523028503  4.0813351309615049   15.0752668471867111 0 0 0
80        7    2    0.1111730000000000  -14.0173664774117643  5.8180319377794714   15.6025968769690699 0 0 0
81        8    3   -0.2077270000000000   23.2328420046550832 -11.9899010119565368 -23.2028722561363239 0 0 0
82        8    1   -0.1257920000000000   21.6943937108548646 -12.5240614756792734 -22.3955426954867107 0 0 0
83        8    2    0.1111730000000000   23.9579898684974353 -11.6247192114539164 -22.4461721156271921 0 0 0
84        8    2    0.1111730000000000   22.9968414938755181 -11.1442416859814664 -23.8807694060810469 0 0 0
85        8    2    0.1111730000000000   23.6567494540268548 -12.8121136937248998 -23.8153487632012109 0 0 0
86        8    1   -0.1257920000000000   22.6775385738116952 -14.0102914771995799 -21.2211286334019000 0 0 0
87        8    3   -0.2077270000000000   22.3079486721314701 -15.3420648136596753 -22.4016786896341351 0 0 0
88        8    2    0.1111730000000000   22.6997088630685333 -16.2941855324588296 -21.9889140657498494 0 0 0
89        8    2    0.1111730000000000   22.8142536969556815 -15.1546087464395747 -23.3708968485643709 0 0 0
90        8    2    0.1111730000000000   21.2106310797232425 -15.4531508020065029 -22.5255739437176778 0 0 0
91        9    3   -0.2077270000000000  -23.4378867641217568  12.6806334011873680 -3.2132265765335206  0 0 0
92        9    1   -0.1257920000000000  -23.1524253638257349  12.1983614795395638 -4.9423469181324382  0 0 0
93        9    2    0.1111730000000000  -22.6076313852622945  12.3201803580028280 -2.5709323417517211  0 0 0
94        9    2    0.1111730000000000  -24.3714390814738167  12.1940174016211440 -2.8638479533569385  0 0 0
95        9    2    0.1111730000000000  -23.5729951597490377  13.7788691462840731 -3.1327116026285471  0 0 0
96        9    1   -0.1257920000000000  -21.3120710911179891  13.2713792755984450 -5.0705295552846552  0 0 0
97        9    3   -0.2077270000000000  -22.0950792206650348  14.7412219764582861 -5.7987987734947017  0 0 0
98        9    2    0.1111730000000000  -21.3040613360490880  15.4882156991248987 -6.0148442076385056  0 0 0
99        9    2    0.1111730000000000  -22.8100127062053204  15.1963922950090673 -5.0828668722194568  0 0 0
100       9    2    0.1111730000000000  -22.5852953091303448  14.4800674177345172 -6.7596746824796092  0 0 0
101       10   3   -0.2077270000000000   5.8435906915614826  -23.8119340413957410 -32.3845433137344543 0 0 0
102       10   1   -0.1257920000000000   5.9116483903192911  -22.0282439542073085 -32.0413969955179923 0 0 0
103       10   2    0.1111730000000000   6.2138579866687911  -24.3865793775589381 -31.5101994784500725 0 0 0
104       10   2    0.1111730000000000   6.5144454511354635  -24.0293409372085520 -33.2407375766269197 0 0 0
105       10   2    0.1111730000000000   4.8149767111069801  -24.1144480865970721 -32.6696699927202729 0 0 0
106       10   1   -0.1257920000000000   4.5958152061074946  -22.1714409160957899 -30.3672466170773490 0 0 0
107       10   3   -0.2077270000000000   3.1266837672562873  -21.7433997474769569 -31.3482404619848403 0 0 0
108       10   2    0.1111730000000000   2.2507637642523650  -21.7066529021793500 -30.6686829862712145 0 0 0
109       10   2    0.1111730000000000   2.9320468983508867  -22.5196696177560476 -32.1166088454179288 0 0 0
110       10   2    0.1111730000000000   3.2459506167610113  -20.7371878371246581 -31.8011301168395342 0 0 0
111       11   3   -0.2077270000000000  -21.0409805799499416  32.2731154538820988  4.1615010671013621  0 0 0
112       11   1   -0.1257920000000000  -21.7628235048379075  31.7991899413647410  5.7609600298679400  0 0 0
113       11   2    0.1111730000000000  -20.5504567319282927  31.3983326422808808  3.6861762712521471  0 0 0
114       11   2    0.1111730000000000  -20.2610908541003454  33.0406450007828596  4.3433001120618835  0 0 0
115       11   2    0.1111730000000000  -21.8139858659827759  32.7193460064814090  3.5025626685448477  0 0 0
116       11   1   -0.1257920000000000  -23.0525476493155956  30.3389646401722679  4.8897221007643905  0 0 0
117       11   3   -0.2077270000000000  -24.4623594853860951  31.4825065138657969  4.7966741540648865  0 0 0
118       11   2    0.1111730000000000  -25.3341055541097191  30.9307313232768983  4.3892585483064872  0 0 0
119       11   2    0.1111730000000000  -24.2368422473687204  32.3231948744866031  4.1087399634814314  0 0 0
120       11   2    0.1111730000000000  -24.7337049446210173  31.8424299880470230  5.8108845680746803  0 0 0
121       12   3   -0.2077270000000000   21.4339052503010414 -5.6827146180372203   14.1161096140541726 0 0 0
122       12   1   -0.1257920000000000   21.4872082720916247 -3.8736403321692188   14.2844562483512760 0 0 0
123       12   2    0.1111730000000000   20.8738066973371872 -5.9678952855629799   13.2013670970925112 0 0 0
124       12   2    0.1111730000000000   20.8907523301480893 -6.0994487304855376   14.9888627678446564 0 0 0
125       12   2    0.1111730000000000   22.4601733887902917 -6.1041750913805943   14.1179720670083810 0 0 0
126       12   1   -0.1257920000000000   22.4974803280285727 -3.6034214500372652   12.4240708159926267 0 0 0
127       12   3   -0.2077270000000000   24.1395721423260632 -3.5434262815082835   13.2011489353412088 0 0 0
128       12   2    0.1111730000000000   24.8946910777425288 -3.3598427329735969   12.4096459225971572 0 0 0
129       12   2    0.1111730000000000   24.3775817772555961 -4.5137688104930884   13.6834923659216212 0 0 0
130       12   2    0.1111730000000000   24.1937261535793837 -2.7014461508723189   13.9222126163565765 0 0 0
131       13   3   -0.2077270000000000   13.0719922299616123  5.1543836862268746   12.0524240687686515 0 0 0
132       13   1   -0.1257920000000000   13.2545105379118748  6.0481746794739966   13.6246060877643167 0 0 0
133       13   2    0.1111730000000000   13.9646940173550895  5.3144578383613137   11.4126959553462939 0 0 0
134       13   2    0.1111730000000000   12.1930808191615796  5.5664735663662102   11.5156958831362548 0 0 0
135       13   2    0.1111730000000000   12.8863612302242352  4.0762556610878038   12.2369228079140626 0 0 0
136       13   1   -0.1257920000000000   15.0223585825467936  4.9843192568453185   14.1701578809279312 0 0 0
137       13   3   -0.2077270000000000   14.1128557295747985  3.7715587102637529   15.1731193794367023 0 0 0
138       13   2    0.1111730000000000   14.8460794790310562  3.0785336342855065   15.6340789464256584 0 0 0
139       13   2    0.1111730000000000   13.4297037323752857  3.1733767791558529   14.5356634037659589 0 0 0
140       13   2    0.1111730000000000   13.5677020924178482  4.2822456714534258   15.9939740370743486 0 0 0
141       14   3   -0.2077270000000000  -12.4796908294834203 -14.0661452337043293  3.2518862576062499  0 0 0
142       14   1   -0.1257920000000000  -12.1443850619844405 -13.5650927372142522  4.9666597153093281  0 0 0
143       14   2    0.1111730000000000  -12.4650199468670415 -15.1724396828237413  3.1641957133564107  0 0 0
144       14   2    0.1111730000000000  -11.6721124226247426 -13.6650090137828712  2.6059084464991487  0 0 0
145       14   2    0.1111730000000000  -13.4420896799622440 -13.6387459565978837  2.9026341968736862  0 0 0
146       14   1   -0.1257920000000000  -13.8412394402267349 -14.6057303132968066  5.7363742614138964  0 0 0
147       14   3   -0.2077270000000000  -14.8986086157257027 -13.1276588527060873  5.7018701385902730  0 0 0
148       14   2    0.1111730000000000  -15.8919379538923380 -13.3983791496733140  6.1146556662525260  0 0 0
149       14   2    0.1111730000000000  -15.0445147938125601 -12.7777546222967970  4.6592068124692441  0 0 0
150       14   2    0.1111730000000000  -14.4697397059810289 -12.3323828884641635  6.3463882751492875  0 0 0
151       15   3   -0.2077270000000000  -31.9079942766326283  33.2397573611778512  30.7408038696835533 0 0 0
152       15   1   -0.1257920000000000  -31.0340662503132201  31.6668967289160470  30.4833338529933613 0 0 0
153       15   2    0.1111730000000000  -32.8950113518882858  33.2192518477952135  30.2336854500075560 0 0 0
154       15   2    0.1111730000000000  -31.3086550621362996  34.0522734044209727  30.2814666645287147 0 0 0
155       15   2    0.1111730000000000  -32.0068326423272751  33.4572675128526384  31.8242146887107751 0 0 0
156       15   1   -0.1257920000000000  -32.5658986999106830  30.5159768301306862  31.4233203215875143 0 0 0
157       15   3   -0.2077270000000000  -31.7242129495961933  30.5120949694010157  33.0343651314158393 0 0 0
158       15   2    0.1111730000000000  -32.3277404192265081  29.9087361565350989  33.7429533626465386 0 0 0
159       15   2    0.1111730000000000  -31.6511969115961520  31.5429986309643802  33.4378185905285648 0 0 0
160       15   2    0.1111730000000000  -30.7268478210133118  30.0332029424466711  32.9464944525381540 0 0 0
161       16   3   -0.2077270000000000  -12.4071597359216970 -3.3746643540173711   13.0731931261652203 0 0 0
162       16   1   -0.1257920000000000  -12.9865811825973072 -4.8997665673281432   12.2717783775569149 0 0 0
163       16   2    0.1111730000000000  -12.9411543575607819 -2.4947625824713175   12.6579644048673732 0 0 0
164       16   2    0.1111730000000000  -11.3275390875137614 -3.2509546565111362   12.8507169501954372 0 0 0
165       16   2    0.1111730000000000  -12.5243598307181241 -3.4448316039701430   14.1741923932920368 0 0 0
166       16   1   -0.1257920000000000  -15.0036731098890392 -4.6193125520310963   12.9100475451956669 0 0 0
167       16   3   -0.2077270000000000  -14.8018852473305298 -5.6790527124712646   14.3729719455917664 0 0 0
168       16   2    0.1111730000000000  -15.7773283281087959 -5.7408521926281910   14.8974489856174763 0 0 0
169       16   2    0.1111730000000000  -14.0632165424927802 -5.2385025447819942   15.0737946686410940 0 0 0
170       16   2    0.1111730000000000  -14.5164410284274279 -6.7070797173094441   14.0672300534371999 0 0 0
171       17   3   -0.2077270000000000  -24.4495585378855225 -32.2262502726989126  13.8560211083847094 0 0 0
172       17   1   -0.1257920000000000  -23.1659658685479002 -33.1275873331829729  12.9373737680953802 0 0 0
173       17   2    0.1111730000000000  -24.5689732645379877 -32.6558308392340919  14.8723837082543771 0 0 0
174       17   2    0.1111730000000000  -25.4137454447671161 -32.3490966043452701  13.3215747874139971 0 0 0
175       17   2    0.1111730000000000  -24.2136512520630625 -31.1428014883819309  13.8926977447892028 0 0 0
176       17   1   -0.1257920000000000  -21.6423775139203585 -32.6587243835051027  14.3563691480253794 0 0 0
177       17   3   -0.2077270000000000  -21.0543820426258428 -31.2213532267089136  13.4118370767077870 0 0 0
178       17   2    0.1111730000000000  -20.1828660474794646 -30.7865939047517081  13.9427125303457586 0 0 0
179       17   2    0.1111730000000000  -21.8437102706163913 -30.4438138766323156  13.3547240092034123 0 0 0
180       17   2    0.1111730000000000  -20.7136671751567611 -31.5364044551993494  12.4036445693401660 0 0 0
181       18   3   -0.2077270000000000   33.0905238154623618 -21.5009564335619139  13.3756111634053951 0 0 0
182       18   1   -0.1257920000000000   31.7193649194916958 -21.4907232820833229  14.5688211775317065 0 0 0
183       18   2    0.1111730000000000   34.0188999066161415 -21.8698729130830607  13.8591509642612820 0 0 0
184       18   2    0.1111730000000000   33.2733741310411588 -20.4584261298678491  13.0438329082826581 0 0 0
185       18   2    0.1111730000000000   32.8248157012250843 -22.1032117239562851  12.4825565992154601 0 0 0
186       18   1   -0.1257920000000000   31.8419078473352783 -23.5922355728263256  14.9200065287233379 0 0 0
187       18   3   -0.2077270000000000   30.5449511671819174 -23.9797959492119048  13.7069048533220474 0 0 0
188       18   2    0.1111730000000000   30.3718432484406549 -25.0753779853174237  13.7177766393731844 0 0 0
189       18   2    0.1111730000000000   30.8697765806091340 -23.6942378060290366  12.6852329918353046 0 0 0
190       18   2    0.1111730000000000   29.5929990672371304 -23.4840596216632882  13.9894446246098063 0 0 0
191       19   3   -0.2077270000000000  -4.5119407093703412   24.4447076914253323  14.1184114228758535 0 0 0
192       19   1   -0.1257920000000000  -5.9113366334624011   23.2847421707907785  14.1082816759127603 0 0 0
193       19   2    0.1111730000000000  -4.0682672596615701   24.5038466620668380  15.1340140649928294 0 0 0
194       19   2    0.1111730000000000  -4.8916744998169230   25.4533455632952155  13.8560521759969699 0 0 0
195       19   2    0.1111730000000000  -3.7592612332393296   24.1531906171658441  13.3572609167166938 0 0 0
196       19   1   -0.1257920000000000  -4.7093850730048565   21.6314770532930325  14.7220639873056580 0 0 0
197       19   3   -0.2077270000000000  -4.4487647183389942   21.0501241964969381  13.0197064346661318 0 0 0
198       19   2    0.1111730000000000  -3.8477293036477640   20.1185649403780431  13.0562895964505365 0 0 0
199       19   2    0.1111730000000000  -3.8804065807701331   21.8019612780757583  12.4344044398614919 0 0 0
200       19   2    0.1111730000000000  -5.4210134722077896   20.8069372446125875  12.5428537357812537 0 0 0
201       20   3   -0.2077270000000000  -21.2792439087214191 -31.5371789641391302  32.8275771679388768 0 0 0
202       20   1   -0.1257920000000000  -21.4112706909764619 -31.6121393516575147  31.0162568091203497 0 0 0
203       20   2    0.1111730000000000  -21.3029601469907810 -30.4823726558028483  33.1719802260500600 0 0 0
204       20   2    0.1111730000000000  -20.3014726878620699 -31.9681625147837742  33.1252298200905884 0 0 0
205       20   2    0.1111730000000000  -22.0791359331316848 -32.1425150550864558  33.3014966312250635 0 0 0
206       20   1   -0.1257920000000000  -23.3118758348190305 -30.6417789420638407  30.9879267739573834 0 0 0
207       20   3   -0.2077270000000000  -24.2318863419004948 -32.2086668475163975  30.9393643501485052 0 0 0
208       20   2    0.1111730000000000  -25.3147847296078048 -31.9767468175767782  30.8766847943611182 0 0 0
209       20   2    0.1111730000000000  -24.0591420676177847 -32.7903721913682631  31.8681521103697030 0 0 0
210       20   2    0.1111730000000000  -23.9571250759728827 -32.7885230446455722  30.0337877013789125 0 0 0
211       21   3   -0.2077270000000000   31.3217710345785676  13.4404396403455522 -24.4312499753397567 0 0 0
212       21   1   -0.1257920000000000   30.3097526583279340  13.8956587539024969 -22.9916229618451275 0 0 0
213       21   2    0.1111730000000000   31.6384264330271741  14.3502454839495375 -24.9824078112428651 0 0 0
214       21   2    0.1111730000000000   30.6999525883088609  12.8290804460896908 -25.1167878941141609 0 0 0
215       21   2    0.1111730000000000   32.1909231729842844  12.8264356912690367 -24.1175105895061925 0 0 0
216       21   1   -0.1257920000000000   31.8664776975295538  15.0550994089183661 -22.1044891793641227 0 0 0
217       21   3   -0.2077270000000000   32.4306422969999630  13.6875100551452107 -21.0483959000792353 0 0 0
218       21   2    0.1111730000000000   33.2626186484139552  14.0557197885279130 -20.4138712842997663 0 0 0
219       21   2    0.1111730000000000   32.8158326516408536  12.8511815981275603 -21.6673074426877790 0 0 0
220       21   2    0.1111730000000000   31.6120592028294176  13.3579675842848129 -20.3752543791214045 0 0 0
221       22   3   -0.2077270000000000  -13.7621006388380334 -30.0742099082058161  4.9279030957536554  0 0 0
222       22   1   -0.1257920000000000  -13.2360481179926435 -31.4465349832141463  5.9974470205251436  0 0 0
223       22   2    0.1111730000000000  -12.8775382137896308 -29.5647902755246683  4.4922045433903293  0 0 0
224       22   2    0.1111730000000000  -14.3059590963404961 -29.3343363460040578  5.5501454703617430  0 0 0
225       22   2    0.1111730000000000  -14.4560214982927135 -30.4371839679493306  4.1420390081615341  0 0 0
226       22   1   -0.1257920000000000  -12.2333476432388366 -32.4647706207730664  4.4123634982672675  0 0 0
227       22   3   -0.2077270000000000  -13.6597817986048682 -33.5316988749338591  4.0506107494475962  0 0 0
228       22   2    0.1111730000000000  -13.3763644022765984 -34.2309749603511833  3.2375473565181703  0 0 0
229       22   2    0.1111730000000000  -14.5193943590487571 -32.9257400548518291  3.6974131430119299  0 0 0
230       22   2    0.1111730000000000  -13.9227826821376830 -34.1382163928326108  4.9421055980826960  0 0 0
231       23   3   -0.2077270000000000  -13.8599451601901063  31.2456846653173166 -33.4935479652966919 0 0 0
232       23   1   -0.1257920000000000  -15.0051902407143363  32.1844792975458418 -32.4395034134707387 0 0 0
233       23   2    0.1111730000000000  -13.3019457869564253  31.9327816737151160 -34.1631199741363787 0 0 0
234       23   2    0.1111730000000000  -14.4540787163800211  30.5600688106670617 -34.1317616441389049 0 0 0
235       23   2    0.1111730000000000  -13.1760090289976564  30.6303287697577673 -32.8735260449990108 0 0 0
236       23   1   -0.1257920000000000  -13.4426616185996721  33.3294428286936437 -31.5438111417535083 0 0 0
237       23   3   -0.2077270000000000  -13.3104581840852916  32.2249181739351727 -30.1062914412508427 0 0 0
238       23   2    0.1111730000000000  -12.5460377593481756  32.6380202354947144 -29.4168042070833309 0 0 0
239       23   2    0.1111730000000000  -12.9777476894728707  31.2144575124340342 -30.4211586723712522 0 0 0
240       23   2    0.1111730000000000  -14.2752642658157036  32.1882744170798887 -29.5589318801399017 0 0 0
241       24   3   -0.2077270000000000  -30.4727134475914774 -12.4738573307544982 -13.4270917954943467 0 0 0
242       24   1   -0.1257920000000000  -31.2318646764493657 -13.5783387544108933 -12.1991904274189160 0 0 0
243       24   2    0.1111730000000000  -29.5549591664218951 -12.9366405419320127 -13.8458411875501817 0 0 0
244       24   2    0.1111730000000000  -30.1753187853092726 -11.5350287931894790 -12.9166626872926606 0 0 0
245       24   2    0.1111730000000000  -31.2023290002207503 -12.2155161894570146 -14.2219374984295808 0 0 0
246       24   1   -0.1257920000000000  -31.5164543741556322 -15.1563309410414568 -13.6076119520670993 0 0 0
247       24   3   -0.2077270000000000  -33.2313881781454086 -14.6723337692763529 -13.9663097859837855 0 0 0
248       24   2    0.1111730000000000  -33.6563829753864212 -15.3993462873012614 -14.6882632235773283 0 0 0
249       24   2    0.1111730000000000  -33.2622752174669714 -13.6668023149562146 -14.4340927271806319 0 0 0
250       24   2    0.1111730000000000  -33.8447705634933911 -14.7151435282410610 -13.0423371655657192 0 0 0
251       25   3   -0.2077270000000000   12.1535189274998796 -22.8218953246911944  14.6292253346742971 0 0 0
252       25   1   -0.1257920000000000   13.0441009944636459 -21.3502162121423495  14.0418960021103612 0 0 0
253       25   2    0.1111730000000000   11.3046867205034438 -23.0536675418068029  13.9527951474126137 0 0 0
254       25   2    0.1111730000000000   11.7356263554910090 -22.6006763347954625  15.6326237796448453 0 0 0
255       25   2    0.1111730000000000   12.8467311578270280 -23.6823641007206724  14.7287691973841941 0 0 0
256       25   1   -0.1257920000000000   13.5351034931407170 -22.2402972238915346  12.1653635171753454 0 0 0
257       25   3   -0.2077270000000000   15.1746571759029898 -22.7848698038226161  12.7303588949687025 0 0 0
258       25   2    0.1111730000000000   15.6925712133787005 -23.2749123130661140  11.8806483948453216 0 0 0
259       25   2    0.1111730000000000   15.0773991119457165 -23.5288724493001169  13.5475916203399755 0 0 0
260       25   2    0.1111730000000000   15.7849433004070683 -21.9111261133635473  13.0400665620045384 0 0 0
261       26   3   -0.2077270000000000  -31.3094378253399306  12.8179674819320919  21.2183225473202519 0 0 0
262       26   1   -0.1257920000000000  -32.9825945247728214  13.0483789920092637  21.8901772699849140 0 0 0
263       26   2    0.1111730000000000  -31.0856977255682132  13.6018433896526911  20.4651484615012116 0 0 0
264       26   2    0.1111730000000000  -31.2706804646453769  11.8352570845617819  20.7053326600005612 0 0 0
265       26   2    0.1111730000000000  -30.5597083482119842  12.8075238242329377  22.0360360255871406 0 0 0
266       26   1   -0.1257920000000000  -32.5492858727834218  14.9980906232821702  22.6422211484855218 0 0 0
267       26   3   -0.2077270000000000  -32.1596433004807949  14.3863329758273508  24.3089084607999588 0 0 0
268       26   2    0.1111730000000000  -31.9233858167813267  15.2566936591333953  24.9546942050302043 0 0 0
269       26   2    0.1111730000000000  -31.2678915879359245  13.7268132546948838  24.2828121869158515 0 0 0
270       26   2    0.1111730000000000  -33.0401309181207736  13.8704371652336036  24.7452444519747772 0 0 0
271       27   3   -0.2077270000000000  -22.5690059532039591  2.7860605560381688  -4.2719840676764420  0 0 0