
                                 *****************
                                 * O   R   C   A *
                                 *****************

           --- An Ab Initio, DFT and Semiempirical electronic structure package ---

                  #######################################################
                  #                        -***-                        #
                  #          Department of theory and spectroscopy      #
                  #               Directorship: Frank Neese             #
                  #        Max Planck Institute fuer Kohlenforschung    #
                  #                Kaiser Wilhelm Platz 1               #
                  #                 D-45470 Muelheim/Ruhr               #
                  #                      Germany                        #
                  #                                                     #
                  #                  All rights reserved                #
                  #                        -***-                        #
                  #######################################################


                         Program Version 4.1.2  - RELEASE  -


 With contributions from (in alphabetic order):
   Daniel Aravena         : Magnetic Properties
   Michael Atanasov       : Ab Initio Ligand Field Theory
   Alexander A. Auer      : GIAO ZORA
   Ute Becker             : Parallelization
   Giovanni Bistoni       : ED, Open-shell LED
   Martin Brehm           : Molecular dynamics
   Dmytro Bykov           : SCF Hessian
   Vijay G. Chilkuri      : MRCI spin determinant printing
   Dipayan Datta          : RHF DLPNO-CCSD density
   Achintya Kumar Dutta   : EOM-CC, STEOM-CC
   Dmitry Ganyushin       : Spin-Orbit,Spin-Spin,Magnetic field MRCI
   Miquel Garcia          : C-PCM Hessian
   Yang Guo               : DLPNO-NEVPT2, CIM, IAO-localization
   Andreas Hansen         : Spin unrestricted coupled pair/coupled cluster methods
   Benjamin Helmich-Paris : CASSCF linear response (MC-RPA)
   Lee Huntington         : MR-EOM, pCC
   Robert Izsak           : Overlap fitted RIJCOSX, COSX-SCS-MP3, EOM
   Christian Kollmar      : KDIIS, OOCD, Brueckner-CCSD(T), CCSD density
   Simone Kossmann        : Meta GGA functionals, TD-DFT gradient, OOMP2, MP2 Hessian
   Martin Krupicka        : AUTO-CI
   Lucas Lang             : DCDCAS
   Dagmar Lenk            : GEPOL surface, SMD
   Dimitrios Liakos       : Extrapolation schemes; parallel MDCI
   Dimitrios Manganas     : ROCIS; embedding schemes
   Dimitrios Pantazis     : SARC Basis sets
   Taras Petrenko         : DFT Hessian,TD-DFT gradient, ASA, ECA, R-Raman, ABS, FL, XAS/XES, NRVS
   Peter Pinski           : DLPNO-MP2, DLPNO-MP2 Gradient
   Christoph Reimann      : Effective Core Potentials
   Marius Retegan         : Local ZFS, SOC
   Christoph Riplinger    : Optimizer, TS searches, QM/MM, DLPNO-CCSD(T), (RO)-DLPNO pert. Triples
   Tobias Risthaus        : Range-separated hybrids, TD-DFT gradient, RPA, STAB
   Michael Roemelt        : Restricted open shell CIS
   Masaaki Saitow         : Open-shell DLPNO
   Barbara Sandhoefer     : DKH picture change effects
   Avijit Sen             : IP-ROCIS
   Kantharuban Sivalingam : CASSCF convergence, NEVPT2, FIC-MRCI
   Bernardo de Souza      : ESD, SOC TD-DFT
   Georgi Stoychev        : AutoAux, RI-MP2 NMR
   Willem Van den Heuvel  : Paramagnetic NMR
   Boris Wezisla          : Elementary symmetry handling
   Frank Wennmohs         : Technical directorship


 We gratefully acknowledge several colleagues who have allowed us to
 interface, adapt or use parts of their codes:
   Stefan Grimme, W. Hujo, H. Kruse,             : VdW corrections, initial TS optimization,
                  C. Bannwarth                     DFT functionals, gCP, sTDA/sTD-DF
   Ed Valeev                                     : LibInt (2-el integral package), F12 methods
   Garnet Chan, S. Sharma, J. Yang, R. Olivares  : DMRG
   Ulf Ekstrom                                   : XCFun DFT Library
   Mihaly Kallay                                 : mrcc  (arbitrary order and MRCC methods)
   Andreas Klamt, Michael Diedenhofen            : otool_cosmo (COSMO solvation model)
   Jiri Pittner, Ondrej Demel                    : Mk-CCSD
   Frank Weinhold                                : gennbo (NPA and NBO analysis)
   Christopher J. Cramer and Donald G. Truhlar   : smd solvation model
   Lars Goerigk                                  : TD-DFT with DH, B97 family of functionals
   V. Asgeirsson, H. Jonsson                     : NEB implementation
   FAccTs GmbH                                   : IRC, NEB, NEB-TS, Multilevel


 Your calculation uses the libint2 library for the computation of 2-el integrals
 For citations please refer to: http://libint.valeyev.net

 This ORCA versions uses:
   CBLAS   interface :  Fast vector & matrix operations
   LAPACKE interface :  Fast linear algebra routines
   SCALAPACK package :  Parallel linear algebra routines


Your calculation utilizes the atom-pairwise dispersion correction
with the zero-damping scheme (D30)
Cite in your paper:
S.Grimme, J.Antony, S.Ehrlich and H.Krieg, J.Chem.Phys., 132, (2010), 154104 
   

XCFun DFT library Copyright 2009-2010 Ulf Ekstrom and contributors.
See http://admol.org/xcfun for more information. This is free soft-
ware; see the source code for copying conditions. There is ABSOLUTELY
NO WARRANTY; not even for MERCHANTABILITY or FITNESS FOR A PARTICULAR
PURPOSE. For details see the documentation. Scientific users of this 
library should cite U. Ekstrom, L. Visscher, R. Bast, A. J. Thorvald-
sen and K. Ruud; J.Chem.Theor.Comp. 2010, DOI: 10.1021/ct100117s
XCFun Version 0.99 
----- Orbital basis set information -----
Your calculation utilizes the basis: def2-TZVP
   F. Weigend and R. Ahlrichs, Phys. Chem. Chem. Phys. 7, 3297 (2005).

================================================================================
                                        WARNINGS
                       Please study these warnings very carefully!
================================================================================


INFO   : the flag for use of LIBINT has been found!

================================================================================
                                       INPUT FILE
================================================================================
NAME = 96.in
|  1> #Run DFT-D3 single point of the dimer
|  2> ! wB97X-D3 def2-TZVP TIGHTSCF  CHELPG PAL8
|  3> 
|  4> %base "96_charges"
|  5> 
|  6> %scf
|  7> MaxIter 1000
|  8> end
|  9> %output
| 10>   Print[ P_Mayer ] 1
| 11>   Print[ P_NatPop ] 1
| 12>   Print[ P_Hirshfeld ] 1
| 13>   Print[ P_Mulliken ] 1
| 14>   Print [ P_Loewdin ] 1
| 15> end
| 16> 
| 17> * xyz 0 1
| 18>   C                      -7.308510            7.454032             -4.615022           
| 19>   O                      -8.033384            7.339524             -5.821730           
| 20>   H                      -7.957203            6.461520             -6.219535           
| 21>   H                      -7.846512            6.916053             -3.835317           
| 22>   H                      -6.307834            6.995753             -4.789746           
| 23>   H                      -7.130098            8.532339             -4.357535           
| 24> *
| 25> 
| 26>                          ****END OF INPUT****
================================================================================

                       ****************************
                       * Single Point Calculation *
                       ****************************

---------------------------------
CARTESIAN COORDINATES (ANGSTROEM)
---------------------------------
  C     -7.308510    7.454032   -4.615022
  O     -8.033384    7.339524   -5.821730
  H     -7.957203    6.461520   -6.219535
  H     -7.846512    6.916053   -3.835317
  H     -6.307834    6.995753   -4.789746
  H     -7.130098    8.532339   -4.357535

----------------------------
CARTESIAN COORDINATES (A.U.)
----------------------------
  NO LB      ZA    FRAG     MASS         X           Y           Z
   0 C     6.0000    0    12.011  -13.811082   14.086079   -8.721128
   1 O     8.0000    0    15.999  -15.180896   13.869690  -11.001475
   2 H     1.0000    0     1.008  -15.036934   12.210503  -11.753218
   3 H     1.0000    0     1.008  -14.827759   13.069446   -7.247699
   4 H     1.0000    0     1.008  -11.920079   13.220057   -9.051308
   5 H     1.0000    0     1.008  -13.473933   16.123784   -8.234548

--------------------------------
INTERNAL COORDINATES (ANGSTROEM)
--------------------------------
 C      0   0   0     0.000000000000     0.00000000     0.00000000
 O      1   0   0     1.412337989011     0.00000000     0.00000000
 H      2   1   0     0.966924705860   112.62491665     0.00000000
 H      1   2   3     1.089406922812   108.54246696   285.73929650
 H      1   2   3     1.114405929181   107.07148432    45.21397090
 H      1   2   3     1.122887520263   110.81351396   161.27019951

---------------------------
INTERNAL COORDINATES (A.U.)
---------------------------
 C      0   0   0     0.000000000000     0.00000000     0.00000000
 O      1   0   0     2.668932007764     0.00000000     0.00000000
 H      2   1   0     1.827222886197   112.62491665     0.00000000
 H      1   2   3     2.058680732512   108.54246696   285.73929650
 H      1   2   3     2.105922008169   107.07148432    45.21397090
 H      1   2   3     2.121949892495   110.81351396   161.27019951

---------------------
BASIS SET INFORMATION
---------------------
There are 3 groups of distinct atoms

 Group   1 Type C   : 11s6p2d1f contracted to 5s3p2d1f pattern {62111/411/11/1}
 Group   2 Type O   : 11s6p2d1f contracted to 5s3p2d1f pattern {62111/411/11/1}
 Group   3 Type H   : 5s1p contracted to 3s1p pattern {311/1}

Atom   0C    basis set group =>   1
Atom   1O    basis set group =>   2
Atom   2H    basis set group =>   3
Atom   3H    basis set group =>   3
Atom   4H    basis set group =>   3
Atom   5H    basis set group =>   3


           ************************************************************
           *        Program running with 8 parallel MPI-processes     *
           *              working on a common directory               *
           ************************************************************
------------------------------------------------------------------------------
                           ORCA GTO INTEGRAL CALCULATION
------------------------------------------------------------------------------

                         BASIS SET STATISTICS AND STARTUP INFO

 # of primitive gaussian shells          ...   64
 # of primitive gaussian functions       ...  124
 # of contracted shells                  ...   38
 # of contracted basis functions         ...   86
 Highest angular momentum                ...    3
 Maximum contraction depth               ...    6
 Integral package used                   ... LIBINT
 Integral threshhold            Thresh   ...  2.500e-11
 Primitive cut-off              TCut     ...  2.500e-12


------------------------------ INTEGRAL EVALUATION ----------------------------


 * One electron integrals 
 Pre-screening matrix                    ... done
 Shell pair data                         ... done (   0.000 sec)



           ************************************************************
           *        Program running with 8 parallel MPI-processes     *
           *              working on a common directory               *
           ************************************************************
-------------------------------------------------------------------------------
                                 ORCA SCF
-------------------------------------------------------------------------------

------------
SCF SETTINGS
------------
Hamiltonian:
 Density Functional     Method          .... DFT(GTOs)
 Exchange Functional    Exchange        .... WB97X-D3
 Correlation Functional Correlation     .... WB97X-D3
 Gradients option       PostSCFGGA      .... off
 Hybrid DFT is turned on
   Fraction HF Exchange ScalHFX         ....  0.195728
   Scaling of DF-GGA-X  ScalDFX         ....  0.000000
   Scaling of DF-GGA-C  ScalDFC         ....  1.000000
   Scaling of DF-LDA-C  ScalLDAC        ....  1.000000
   Perturbative correction              ....  0.000000
   Density functional embedding theory  .... OFF
 Long-range corrected/Screened/Range-Separated Hybrid DFT is turned on
   Amount of maximum screened exact exchange              ....  0.804272
   Range separation parameter mu (erf(mu*r12)/r12)        ....  0.250000


General Settings:
 Integral files         IntName         .... 96_charges
 Hartree-Fock type      HFTyp           .... RHF
 Total Charge           Charge          ....    0
 Multiplicity           Mult            ....    1
 Number of Electrons    NEL             ....   18
 Basis Dimension        Dim             ....   86
 Nuclear Repulsion      ENuc            ....     40.2279780362 Eh

Convergence Acceleration:
 DIIS                   CNVDIIS         .... on
   Start iteration      DIISMaxIt       ....    12
   Startup error        DIISStart       ....  0.200000
   # of expansion vecs  DIISMaxEq       ....     5
   Bias factor          DIISBfac        ....   1.050
   Max. coefficient     DIISMaxC        ....  10.000
 Newton-Raphson         CNVNR           .... off
 SOSCF                  CNVSOSCF        .... on
   Start iteration      SOSCFMaxIt      ....   150
   Startup grad/error   SOSCFStart      ....  0.003300
 Level Shifting         CNVShift        .... on
   Level shift para.    LevelShift      ....    0.2500
   Turn off err/grad.   ShiftErr        ....    0.0010
 Zerner damping         CNVZerner       .... off
 Static damping         CNVDamp         .... on
   Fraction old density DampFac         ....    0.7000
   Max. Damping (<1)    DampMax         ....    0.9800
   Min. Damping (>=0)   DampMin         ....    0.0000
   Turn off err/grad.   DampErr         ....    0.1000
 Fernandez-Rico         CNVRico         .... off

SCF Procedure:
 Maximum # iterations   MaxIter         ....  1000
 SCF integral mode      SCFMode         .... Direct
   Integral package                     .... LIBINT
 Reset frequency        DirectResetFreq ....    20
 Integral Threshold     Thresh          ....  2.500e-11 Eh
 Primitive CutOff       TCut            ....  2.500e-12 Eh

Convergence Tolerance:
 Convergence Check Mode ConvCheckMode   .... Total+1el-Energy
 Convergence forced     ConvForced      .... 0
 Energy Change          TolE            ....  1.000e-08 Eh
 1-El. energy change                    ....  1.000e-05 Eh
 Orbital Gradient       TolG            ....  1.000e-05
 Orbital Rotation angle TolX            ....  1.000e-05
 DIIS Error             TolErr          ....  5.000e-07


Diagonalization of the overlap matrix:
Smallest eigenvalue                        ... 1.762e-03
Time for diagonalization                   ...    0.002 sec
Threshold for overlap eigenvalues          ... 1.000e-08
Number of eigenvalues below threshold      ... 0
Time for construction of square roots      ...    0.004 sec
Total time needed                          ...    0.006 sec

-------------------
DFT GRID GENERATION
-------------------

General Integration Accuracy     IntAcc      ...  4.340
Radial Grid Type                 RadialGrid  ... Gauss-Chebyshev
Angular Grid (max. acc.)         AngularGrid ... Lebedev-110
Angular grid pruning method      GridPruning ... 3 (G Style)
Weight generation scheme         WeightScheme... Becke
Basis function cutoff            BFCut       ...    1.0000e-11
Integration weight cutoff        WCut        ...    1.0000e-14
Grids for H and He will be reduced by one unit

# of grid points (after initial pruning)     ...   6548 (   0.0 sec)
# of grid points (after weights+screening)   ...   6397 (   0.0 sec)
nearest neighbour list constructed           ...    0.0 sec
Grid point re-assignment to atoms done       ...    0.0 sec
Grid point division into batches done        ...    0.0 sec
Reduced shell lists constructed in    0.0 sec

Total number of grid points                  ...     6397
Total number of batches                      ...      102
Average number of points per batch           ...       62
Average number of grid points per atom       ...     1066
Average number of shells per batch           ...    31.79 (83.65%)
Average number of basis functions per batch  ...    72.93 (84.80%)
Average number of large shells per batch     ...    30.43 (95.73%)
Average number of large basis fcns per batch ...    69.71 (95.59%)
Maximum spatial batch extension              ...  20.39, 14.84, 16.30 au
Average spatial batch extension              ...   0.52,  0.43,  0.42 au

Time for grid setup =    0.048 sec

------------------------------
INITIAL GUESS: MODEL POTENTIAL
------------------------------
Loading Hartree-Fock densities                     ... done
Calculating cut-offs                               ... done
Setting up the integral package                    ... done
Initializing the effective Hamiltonian             ... done
Starting the Coulomb interaction                   ... done (   0.0 sec)
Reading the grid                                   ... done
Mapping shells                                     ... done
Starting the XC term evaluation                    ... done (   0.0 sec)
  promolecular density results
     # of electrons  =     17.999024467
     EX              =    -14.420549860
     EC              =     -0.573996576
     EX+EC           =    -14.994546436
Transforming the Hamiltonian                       ... done (   0.0 sec)
Diagonalizing the Hamiltonian                      ... done (   0.0 sec)
Back transforming the eigenvectors                 ... done (   0.0 sec)
Now organizing SCF variables                       ... done
                      ------------------
                      INITIAL GUESS DONE (   0.2 sec)
                      ------------------
--------------
SCF ITERATIONS
--------------
ITER       Energy         Delta-E        Max-DP      RMS-DP      [F,P]     Damp
               ***  Starting incremental Fock matrix formation  ***
  0   -115.6463321040   0.000000000000 0.03750193  0.00149811  0.2621092 0.7000
  1   -115.6839169509  -0.037584846854 0.02266217  0.00105406  0.1312893 0.7000
                               ***Turning on DIIS***
  2   -115.7009759871  -0.017059036240 0.03321451  0.00188247  0.0514629 0.0000
  3   -115.7286144083  -0.027638421126 0.01718118  0.00069036  0.0619599 0.0000
  4   -115.7332652519  -0.004650843635 0.00408783  0.00013408  0.0062048 0.0000
                      *** Initiating the SOSCF procedure ***
                           *** Shutting down DIIS ***
                      *** Re-Reading the Fockian *** 
                      *** Removing any level shift *** 
ITER      Energy       Delta-E        Grad      Rot      Max-DP    RMS-DP
  5   -115.73335776  -0.0000925052  0.000475  0.000475  0.000729  0.000045
               *** Restarting incremental Fock matrix formation ***
  6   -115.73336614  -0.0000083819  0.000147  0.000178  0.000477  0.000027
  7   -115.73336693  -0.0000007903  0.000043  0.000099  0.000216  0.000012
  8   -115.73336699  -0.0000000656  0.000022  0.000017  0.000035  0.000001
  9   -115.73336700  -0.0000000062  0.000012  0.000009  0.000018  0.000001
                  ***Gradient check signals convergence***
              ***Rediagonalizing the Fockian in SOSCF/NRSCF***

               *****************************************************
               *                     SUCCESS                       *
               *           SCF CONVERGED AFTER  10 CYCLES          *
               *****************************************************

Setting up the final grid:

General Integration Accuracy     IntAcc      ...  4.670
Radial Grid Type                 RadialGrid  ... Gauss-Chebyshev
Angular Grid (max. acc.)         AngularGrid ... Lebedev-302
Angular grid pruning method      GridPruning ... 3 (G Style)
Weight generation scheme         WeightScheme... Becke
Basis function cutoff            BFCut       ...    1.0000e-11
Integration weight cutoff        WCut        ...    1.0000e-14
Grids for H and He will be reduced by one unit

# of grid points (after initial pruning)     ...  26000 (   0.0 sec)
# of grid points (after weights+screening)   ...  25187 (   0.3 sec)
nearest neighbour list constructed           ...    0.0 sec
Grid point re-assignment to atoms done       ...    0.0 sec
Grid point division into batches done        ...    0.2 sec
Reduced shell lists constructed in    0.2 sec

Total number of grid points                  ...    25187
Total number of batches                      ...      396
Average number of points per batch           ...       63
Average number of grid points per atom       ...     4198
Average number of shells per batch           ...    31.35 (82.51%)
Average number of basis functions per batch  ...    71.86 (83.56%)
Average number of large shells per batch     ...    29.69 (94.68%)
Average number of large basis fcns per batch ...    68.51 (95.33%)
Maximum spatial batch extension              ...  17.69, 15.95, 15.76 au
Average spatial batch extension              ...   0.31,  0.30,  0.30 au

Final grid set up in    1.4 sec
Final integration                            ... done (   0.3 sec)
Change in XC energy                          ...    -0.000129984
Integrated number of electrons               ...    17.999995065
Previous integrated no of electrons          ...    18.000002237

----------------
TOTAL SCF ENERGY
----------------

Total Energy       :         -115.73349699 Eh           -3149.26856 eV

Components:
Nuclear Repulsion  :           40.22797804 Eh            1094.65893 eV
Electronic Energy  :         -155.96147502 Eh           -4243.92749 eV
One Electron Energy:         -236.93101223 Eh           -6447.22061 eV
Two Electron Energy:           80.96953721 Eh            2203.29312 eV

Virial components:
Potential Energy   :         -230.91112646 Eh           -6283.41119 eV
Kinetic Energy     :          115.17762947 Eh            3134.14263 eV
Virial Ratio       :            2.00482618


DFT components:
N(Alpha)           :        8.999997532701 electrons
N(Beta)            :        8.999997532701 electrons
N(Total)           :       17.999995065402 electrons
E(XC)              :      -10.640139357888 Eh       
DFET-embed. en.    :        0.000000000000 Eh       

---------------
SCF CONVERGENCE
---------------

  Last Energy change         ...   -2.4082e-09  Tolerance :   1.0000e-08
  Last MAX-Density change    ...    3.6303e-06  Tolerance :   1.0000e-07
  Last RMS-Density change    ...    1.7849e-07  Tolerance :   5.0000e-09
  Last Orbital Gradient      ...    1.6664e-06  Tolerance :   1.0000e-05
  Last Orbital Rotation      ...    2.3098e-06  Tolerance :   1.0000e-05

             **** THE GBW FILE WAS UPDATED (96_charges.gbw) ****
             **** DENSITY FILE WAS UPDATED (96_charges.scfp.tmp) ****
             **** ENERGY FILE WAS UPDATED (96_charges.en.tmp) ****
----------------
ORBITAL ENERGIES
----------------

  NO   OCC          E(Eh)            E(eV) 
   0   2.0000     -19.224737      -523.1317 
   1   2.0000     -10.317904      -280.7644 
   2   2.0000      -1.130835       -30.7716 
   3   2.0000      -0.791200       -21.5296 
   4   2.0000      -0.605959       -16.4890 
   5   2.0000      -0.546284       -14.8652 
   6   2.0000      -0.526379       -14.3235 
   7   2.0000      -0.422038       -11.4842 
   8   2.0000      -0.370295       -10.0762 
   9   0.0000       0.113771         3.0959 
  10   0.0000       0.155135         4.2214 
  11   0.0000       0.198406         5.3989 
  12   0.0000       0.205693         5.5972 
  13   0.0000       0.221880         6.0377 
  14   0.0000       0.305639         8.3169 
  15   0.0000       0.310263         8.4427 
  16   0.0000       0.406330        11.0568 
  17   0.0000       0.446970        12.1627 
  18   0.0000       0.473514        12.8850 
  19   0.0000       0.538206        14.6453 
  20   0.0000       0.541189        14.7265 
  21   0.0000       0.560889        15.2626 
  22   0.0000       0.597227        16.2514 
  23   0.0000       0.600792        16.3484 
  24   0.0000       0.671701        18.2779 
  25   0.0000       0.790683        21.5156 
  26   0.0000       0.826840        22.4995 
  27   0.0000       0.875249        23.8167 
  28   0.0000       0.984384        26.7865 
  29   0.0000       1.012701        27.5570 
  30   0.0000       1.113026        30.2870 
  31   0.0000       1.383699        37.6524 
  32   0.0000       1.503155        40.9029 
  33   0.0000       1.545652        42.0593 
  34   0.0000       1.589277        43.2464 
  35   0.0000       1.607153        43.7328 
  36   0.0000       1.629537        44.3420 
  37   0.0000       1.672616        45.5142 
  38   0.0000       1.712391        46.5965 
  39   0.0000       1.745715        47.5033 
  40   0.0000       1.953770        53.1648 
  41   0.0000       1.989044        54.1246 
  42   0.0000       2.049148        55.7601 
  43   0.0000       2.105769        57.3009 
  44   0.0000       2.131340        57.9967 
  45   0.0000       2.273194        61.8568 
  46   0.0000       2.308089        62.8063 
  47   0.0000       2.349394        63.9303 
  48   0.0000       2.390738        65.0553 
  49   0.0000       2.397616        65.2425 
  50   0.0000       2.497803        67.9687 
  51   0.0000       2.574292        70.0501 
  52   0.0000       2.624462        71.4152 
  53   0.0000       2.677322        72.8536 
  54   0.0000       2.815758        76.6207 
  55   0.0000       2.850364        77.5623 
  56   0.0000       2.951971        80.3272 
  57   0.0000       2.985438        81.2379 
  58   0.0000       3.098088        84.3033 
  59   0.0000       3.158717        85.9531 
  60   0.0000       3.286072        89.4186 
  61   0.0000       3.424355        93.1814 
  62   0.0000       3.434290        93.4518 
  63   0.0000       3.497907        95.1829 
  64   0.0000       3.623730        98.6067 
  65   0.0000       3.637478        98.9808 
  66   0.0000       3.656455        99.4972 
  67   0.0000       3.980437       108.3132 
  68   0.0000       4.180159       113.7479 
  69   0.0000       4.222784       114.9078 
  70   0.0000       4.447602       121.0254 
  71   0.0000       4.574425       124.4764 
  72   0.0000       5.339560       145.2968 
  73   0.0000       5.394570       146.7937 
  74   0.0000       5.566954       151.4845 
  75   0.0000       5.830206       158.6480 
  76   0.0000       5.850607       159.2031 
  77   0.0000       5.955518       162.0579 
  78   0.0000       6.355206       172.9339 
  79   0.0000       6.534096       177.8018 
  80   0.0000       6.729582       183.1212 
  81   0.0000       6.829376       185.8368 
  82   0.0000       7.043670       191.6680 
  83   0.0000       7.210865       196.2176 
  84   0.0000      22.341752       607.9500 
  85   0.0000      43.680952      1188.6191 

                    ********************************
                    * MULLIKEN POPULATION ANALYSIS *
                    ********************************

-----------------------
MULLIKEN ATOMIC CHARGES
-----------------------
   0 C :   -0.144564
   1 O :   -0.491472
   2 H :    0.317982
   3 H :    0.102248
   4 H :    0.097357
   5 H :    0.118449
Sum of atomic charges:   -0.0000000

--------------------------------
MULLIKEN REDUCED ORBITAL CHARGES
--------------------------------
  0 C s       :     3.234127  s :     3.234127
      pz      :     0.788337  p :     2.806840
      px      :     0.939279
      py      :     1.079224
      dz2     :     0.029385  d :     0.095959
      dxz     :     0.017339
      dyz     :     0.025424
      dx2y2   :     0.012683
      dxy     :     0.011128
      f0      :     0.002048  f :     0.007639
      f+1     :     0.001545
      f-1     :     0.001049
      f+2     :     0.001156
      f-2     :     0.001166
      f+3     :     0.000126
      f-3     :     0.000549
  1 O s       :     3.785791  s :     3.785791
      pz      :     1.448092  p :     4.674663
      px      :     1.767098
      py      :     1.459474
      dz2     :     0.006477  d :     0.029291
      dxz     :     0.007009
      dyz     :     0.005511
      dx2y2   :     0.007796
      dxy     :     0.002498
      f0      :     0.000296  f :     0.001726
      f+1     :     0.000408
      f-1     :     0.000148
      f+2     :     0.000410
      f-2     :     0.000165
      f+3     :     0.000061
      f-3     :     0.000239
  2 H s       :     0.635137  s :     0.635137
      pz      :     0.014328  p :     0.046882
      px      :     0.015018
      py      :     0.017536
  3 H s       :     0.877971  s :     0.877971
      pz      :     0.007979  p :     0.019780
      px      :     0.005789
      py      :     0.006012
  4 H s       :     0.883939  s :     0.883939
      pz      :     0.003135  p :     0.018704
      px      :     0.010586
      py      :     0.004983
  5 H s       :     0.862472  s :     0.862472
      pz      :     0.003159  p :     0.019078
      px      :     0.003818
      py      :     0.012101


                     *******************************
                     * LOEWDIN POPULATION ANALYSIS *
                     *******************************

----------------------
LOEWDIN ATOMIC CHARGES
----------------------
   0 C :   -0.385793
   1 O :   -0.089636
   2 H :    0.170494
   3 H :    0.093078
   4 H :    0.098025
   5 H :    0.113832

-------------------------------
LOEWDIN REDUCED ORBITAL CHARGES
-------------------------------
  0 C s       :     2.877741  s :     2.877741
      pz      :     0.912625  p :     3.042686
      px      :     1.024151
      py      :     1.105910
      dz2     :     0.123526  d :     0.407800
      dxz     :     0.099212
      dyz     :     0.080918
      dx2y2   :     0.064282
      dxy     :     0.039862
      f0      :     0.014692  f :     0.057566
      f+1     :     0.012672
      f-1     :     0.007898
      f+2     :     0.008070
      f-2     :     0.009047
      f+3     :     0.001714
      f-3     :     0.003472
  1 O s       :     3.363372  s :     3.363372
      pz      :     1.471857  p :     4.651202
      px      :     1.715429
      py      :     1.463916
      dz2     :     0.017516  d :     0.070585
      dxz     :     0.016138
      dyz     :     0.018019
      dx2y2   :     0.014695
      dxy     :     0.004218
      f0      :     0.001066  f :     0.004477
      f+1     :     0.000898
      f-1     :     0.000476
      f+2     :     0.000811
      f-2     :     0.000548
      f+3     :     0.000125
      f-3     :     0.000553
  2 H s       :     0.673573  s :     0.673573
      pz      :     0.038282  p :     0.155934
      px      :     0.041471
      py      :     0.076181
  3 H s       :     0.845909  s :     0.845909
      pz      :     0.023674  p :     0.061013
      px      :     0.018046
      py      :     0.019294
  4 H s       :     0.845085  s :     0.845085
      pz      :     0.009869  p :     0.056890
      px      :     0.031069
      py      :     0.015952
  5 H s       :     0.831083  s :     0.831083
      pz      :     0.009135  p :     0.055085
      px      :     0.011032
      py      :     0.034918


                      *****************************
                      * MAYER POPULATION ANALYSIS *
                      *****************************

  NA   - Mulliken gross atomic population
  ZA   - Total nuclear charge
  QA   - Mulliken gross atomic charge
  VA   - Mayer's total valence
  BVA  - Mayer's bonded valence
  FA   - Mayer's free valence

  ATOM       NA         ZA         QA         VA         BVA        FA
  0 C      6.1446     6.0000    -0.1446     3.9319     3.9319     0.0000
  1 O      8.4915     8.0000    -0.4915     1.8647     1.8647    -0.0000
  2 H      0.6820     1.0000     0.3180     0.9103     0.9103    -0.0000
  3 H      0.8978     1.0000     0.1022     0.9604     0.9604     0.0000
  4 H      0.9026     1.0000     0.0974     0.9652     0.9652     0.0000
  5 H      0.8816     1.0000     0.1184     0.9580     0.9580     0.0000

  Mayer bond orders larger than 0.1
B(  0-C ,  1-O ) :   0.9894 B(  0-C ,  3-H ) :   0.9760 B(  0-C ,  4-H ) :   0.9849 
B(  0-C ,  5-H ) :   0.9681 B(  1-O ,  2-H ) :   0.8933 


------------------
HIRSHFELD ANALYSIS
------------------

Total integrated alpha density =      9.000001119
Total integrated beta density  =      9.000001119

  ATOM     CHARGE      SPIN    
   0 C    0.010489    0.000000
   1 O   -0.264711    0.000000
   2 H    0.162600    0.000000
   3 H    0.025801    0.000000
   4 H    0.022656    0.000000
   5 H    0.043163    0.000000

  TOTAL  -0.000002    0.000000

-------
TIMINGS
-------

Total SCF time: 0 days 0 hours 0 min 25 sec 

Total time                  ....      25.137 sec
Sum of individual times     ....      22.039 sec  ( 87.7%)

Fock matrix formation       ....      16.658 sec  ( 66.3%)
  XC integration            ....       4.285 sec  ( 25.7% of F)
    Basis function eval.    ....       0.038 sec  (  0.9% of XC)
    Density eval.           ....       0.058 sec  (  1.4% of XC)
    XC-Functional eval.     ....       0.071 sec  (  1.7% of XC)
    XC-Potential eval.      ....       0.032 sec  (  0.7% of XC)
Diagonalization             ....       0.699 sec  (  2.8%)
Density matrix formation    ....       1.864 sec  (  7.4%)
Population analysis         ....       0.321 sec  (  1.3%)
Initial guess               ....       0.137 sec  (  0.5%)
Orbital Transformation      ....       0.000 sec  (  0.0%)
Orbital Orthonormalization  ....       0.000 sec  (  0.0%)
DIIS solution               ....       0.297 sec  (  1.2%)
SOSCF solution              ....       0.598 sec  (  2.4%)
Grid generation             ....       1.465 sec  (  5.8%)


-------------------------------------------------------------------------------
                          DFT DISPERSION CORRECTION                            
                                                                               
                              DFTD3 V3.1  Rev 1                                
                              USING zero damping                               
-------------------------------------------------------------------------------
The omegaB97X-D3 functional is recognized. Fit by Chai et al.
Active option DFTDOPT                   ...         3   

molecular C6(AA) [au] = 208.811266 


            DFT-D V3
 parameters
 s6 scaling factor         :     1.0000 
 rs6 scaling factor        :     1.2810 
 s8 scaling factor         :     1.0000 
 rs8 scaling factor        :     1.0940 
 Damping factor alpha6     :    14.0000 
 Damping factor alpha8     :    16.0000 
 ad hoc parameters k1-k3   :    16.0000     1.3333    -4.0000 

 Edisp/kcal,au: -0.149099815384  -0.000237605655 
 E6   /kcal   :  -0.032021089 
 E8   /kcal   :  -0.117078726 
 % E8         :  78.523723220 

-------------------------   ----------------
Dispersion correction           -0.000237606
-------------------------   ----------------


-------------------------   --------------------
FINAL SINGLE POINT ENERGY      -115.733734592763
-------------------------   --------------------


                            ***************************************
                            *     ORCA property calculations      *
                            ***************************************

                                    ---------------------
                                    Active property flags
                                    ---------------------
   (+) Dipole Moment


------------------------------------------------------------------------------
                       ORCA ELECTRIC PROPERTIES CALCULATION
------------------------------------------------------------------------------

Dipole Moment Calculation                       ... on
Quadrupole Moment Calculation                   ... off
Polarizability Calculation                      ... off
GBWName                                         ... 96_charges.gbw
Electron density file                           ... 96_charges.scfp.tmp
The origin for moment calculation is the CENTER OF MASS  = (-14.495501, 13.923908 -9.903849)

-------------
DIPOLE MOMENT
-------------
                                X             Y             Z
Electronic contribution:     -0.99208       0.01374      -1.41783
Nuclear contribution   :      1.34665      -0.53255       1.64394
                        -----------------------------------------
Total Dipole Moment    :      0.35457      -0.51881       0.22611
                        -----------------------------------------
Magnitude (a.u.)       :      0.66784
Magnitude (Debye)      :      1.69753



--------------------
Rotational spectrum 
--------------------
 
Rotational constants in cm-1:     4.167357     0.830744     0.803855 
Rotational constants in MHz : 124934.229911 24905.092756 24098.963866 

 Dipole components along the rotational axes: 
x,y,z [a.u.] :     0.297666    -0.595860    -0.048598 
x,y,z [Debye]:     0.756608    -1.514555    -0.123526 

 
------------------------------------------------------------------------------
                      ORCA CHELPG CHARGES GENERATION
------------------------------------------------------------------------------

GBW file                           ... 96_charges.gbw

Reading the GBW file               ... done

Grid spacing                       ...     0.300000
Point Cut-Off                      ...     2.800000
Van-der-Waals Radii                ...        COSMO
Total charge                       ...            0


Number of points X direction       ...           24
Number of points Y direction       ...           25
Number of points Z direction       ...           26
Maximum number of possible points  ...        15600
Final number of points             ...         5976


CHELPG Charges            
--------------------------------
  0   C   :       0.072956
  1   O   :      -0.611691
  2   H   :       0.408812
  3   H   :       0.031444
  4   H   :       0.015687
  5   H   :       0.082793
--------------------------------
Total charge:    -0.000000
--------------------------------

CHELPG charges calculated...

Timings for individual parts in CHELPG calculation:
Grid generation                 ...        0.001 sec (=   0.000 min)
Potential calculation           ...        0.651 sec (=   0.011 min)
Fit to the potential            ...        0.078 sec (=   0.001 min)
------------------------------------------------------------------------------


Timings for individual modules:

Sum of individual times         ...       35.299 sec (=   0.588 min)
GTO integral calculation        ...        4.209 sec (=   0.070 min)  11.9 %
SCF iterations                  ...       29.209 sec (=   0.487 min)  82.7 %
CHELPG charge generation        ...        1.881 sec (=   0.031 min)   5.3 %
                             ****ORCA TERMINATED NORMALLY****
TOTAL RUN TIME: 0 days 0 hours 0 minutes 40 seconds 533 msec
