LAMMPS data file via vdw_self_gen.py, on 2021-08-05 13:22:18.740753

4000 atoms
5 atom types
3500 bonds
4 bond types
6000 angles
6 angle types
4500 dihedrals
2 dihedral types

-32.4949424940462706  32.4949424940462706 xlo xhi
-32.4949424940462706  32.4949424940462706 ylo yhi
-32.4949424940462706  32.4949424940462706 zlo zhi

Masses

1  1.007940
2  1.007940
3  79.904000
4  12.011000
5  12.011000

Atoms

1         0    5    0.0052168750000000   3.2946557920906789   17.5094239051473259  25.7670628814786902 0 0 0
2         0    4   -0.1383081250000000   3.7473423658690108   18.6603348737452102  24.8992457520776185 0 0 0
3         0    3   -0.1647531250000000   5.3015964924998169   18.1312421255069758  23.8574253327092798 0 0 0
4         0    2    0.0285688750000000   2.4195912604532519   17.8010611918314332  26.3563274736490492 0 0 0
5         0    2    0.0285688750000000   4.0826242956996506   17.2002572223087995  26.4619961960081191 0 0 0
6         0    2    0.0285688750000000   3.0203700809394673   16.6383165630195187  25.1626423219762003 0 0 0
7         0    1    0.1060688750000000   4.0451196404483651   19.5242200672300825  25.4986796978311894 0 0 0
8         0    1    0.1060688750000000   2.9730934000409004   18.9571106914163359  24.1873736405577624 0 0 0
9         1    5    0.0052168750000000  -17.4673854272013784 -17.6076820472450279  25.5861316433854711 0 0 0
10        1    4   -0.1383081250000000  -18.6067534738787579 -18.2952063321168588  24.8707446336333753 0 0 0
11        1    3   -0.1647531250000000  -18.9019761682111778 -20.0572571425107746  25.6382440244743357 0 0 0
12        1    2    0.0285688750000000  -17.2961238720544941 -16.6147896010982166  25.1585137400964847 0 0 0
13        1    2    0.0285688750000000  -16.5376149477821990 -18.1794528803712048  25.4966013016748150 0 0 0
14        1    2    0.0285688750000000  -17.6831577877652997 -17.4839680604717920  26.6526784091174527 0 0 0
15        1    1    0.1060688750000000  -18.3864372190785232 -18.4427468183179357  23.8105642051673811 0 0 0
16        1    1    0.1060688750000000  -19.5425177442338267 -17.7408637580738429  24.9772753387385933 0 0 0
17        2    5    0.0052168750000000   18.5498556888421184 -25.0711803919536322  10.2399877752787436 0 0 0
18        2    4   -0.1383081250000000   17.5895962582267700 -25.2571639375902457  11.3914823295284435 0 0 0
19        2    3   -0.1647531250000000   17.2758343049186642 -27.1526462468692458  11.6910404448694027 0 0 0
20        2    2    0.0285688750000000   18.7306669103749144 -24.0057510457053311  10.0662333180100667 0 0 0
21        2    2    0.0285688750000000   18.1514389005222689 -25.5018367124672025  9.3152121762891245  0 0 0
22        2    2    0.0285688750000000   19.5139664705827656 -25.5490132338022100  10.4438285008032476 0 0 0
23        2    1    0.1060688750000000   16.6177734989278925 -24.8027760124067065  11.1831985662243678 0 0 0
24        2    1    0.1060688750000000   17.9928346078102841 -24.8503857154933385  12.3221968731200047 0 0 0
25        3    5    0.0052168750000000   4.2041004304359237   3.8907932274201320   11.2870727997714457 0 0 0
26        3    4   -0.1383081250000000   3.0292422369132188   3.5530111129250077   10.3992444210631714 0 0 0
27        3    3   -0.1647531250000000   2.8980210302896992   1.6252268415769771   10.1813829727171932 0 0 0
28        3    2    0.0285688750000000   4.2834254687681534   4.9750910614563875   11.4136774856952794 0 0 0
29        3    2    0.0285688750000000   5.1449102937341973   3.5307297867352556   10.8573731000940423 0 0 0
30        3    2    0.0285688750000000   4.0956323858370753   3.4413938921421052   12.2798768017539999 0 0 0
31        3    1    0.1060688750000000   3.1439958166294089   3.9791521560304597   9.3994817415120124  0 0 0
32        3    1    0.1060688750000000   2.0850656654334609   3.8889952497548137   10.8350706615162498 0 0 0
33        4    5    0.0052168750000000  -25.3912304622609710  18.7488939684127622 -18.4267114285572369 0 0 0
34        4    4   -0.1383081250000000  -25.1559789397403684  17.5406399808350102 -17.5506938576979508 0 0 0
35        4    3   -0.1647531250000000  -25.1549508121313821  15.9272784028530072 -18.6360961675559302 0 0 0
36        4    2    0.0285688750000000  -25.3929377275265225  19.6607746781989086 -17.8213242322396894 0 0 0
37        4    2    0.0285688750000000  -26.3543311380849694  18.6846357326233914 -18.9441268124226490 0 0 0
38        4    2    0.0285688750000000  -24.6088221879124411  18.8487912433413669 -19.1864763213318383 0 0 0
39        4    1    0.1060688750000000  -25.9470337859930709  17.4226433137635510 -16.8059798153433491 0 0 0
40        4    1    0.1060688750000000  -24.1854682426381871  17.5883093201776788 -17.0505580050570096 0 0 0
41        5    5    0.0052168750000000  -11.1179528394680958 -10.9692623236396791 -11.5646846418010476 0 0 0
42        5    4   -0.1383081250000000  -10.5043853432915295 -10.5370889195061768 -10.2534299608960442 0 0 0
43        5    3   -0.1647531250000000  -10.8441560143695011 -11.8810195736728303 -8.8898167091027016  0 0 0
44        5    2    0.0285688750000000  -10.9300725629007296 -10.2165539630292397 -12.3367948195892385 0 0 0
45        5    2    0.0285688750000000  -12.2017915858477153 -11.0979079755052581 -11.4743819275432148 0 0 0
46        5    2    0.0285688750000000  -10.6953735865122450 -11.9192946385715040 -11.9085599697275484 0 0 0
47        5    1    0.1060688750000000  -10.9398617600643018 -9.6015554194379575  -9.8936698341659568  0 0 0
48        5    1    0.1060688750000000  -9.4195862916692690  -10.4304971707607361 -10.3318421212976244 0 0 0
49        6    5    0.0052168750000000  -18.1644226290466761 -11.2501273767384475 -18.7240541992642449 0 0 0
50        6    4   -0.1383081250000000  -17.7934171855944392 -10.5765798257567276 -17.4235479827103461 0 0 0
51        6    3   -0.1647531250000000  -19.0585597832012859 -9.1527896422176251  -17.0320501748259581 0 0 0
52        6    2    0.0285688750000000  -17.4556698134071233 -12.0529785412212735 -18.9501569527007625 0 0 0
53        6    2    0.0285688750000000  -18.1497091713558554 -10.5410325366335762 -19.5585472992952916 0 0 0
54        6    2    0.0285688750000000  -19.1669680812235939 -11.6880885815605264 -18.6742800594909184 0 0 0
55        6    1    0.1060688750000000  -16.8033020735872363 -10.1169877176189544 -17.4758657350744997 0 0 0
56        6    1    0.1060688750000000  -17.8299179027894361 -11.2745957623762454 -16.5834642368436391 0 0 0
57        7    5    0.0052168750000000  -17.4019414596945339 -25.6594019431375031  25.5308478817274285 0 0 0
58        7    4   -0.1383081250000000  -18.6470041863380160 -24.8575794000788051  25.2316369561816174 0 0 0
59        7    3   -0.1647531250000000  -19.1617735306072490 -25.1049053391732322  23.3729069557104161 0 0 0
60        7    2    0.0285688750000000  -17.1068724216173607 -25.5243367973718129  26.5761778154170258 0 0 0
61        7    2    0.0285688750000000  -16.5640679744817234 -25.3449612667596433  24.8995747269708119 0 0 0
62        7    2    0.0285688750000000  -17.5662115864738908 -26.7288120038790389  25.3612533268835740 0 0 0
63        7    1    0.1060688750000000  -18.4813666780430630 -23.7870881676104382  25.3762147039652604 0 0 0
64        7    1    0.1060688750000000  -19.4927288029498129 -25.1836683782774244  25.8421409294317712 0 0 0
65        8    5    0.0052168750000000  -4.1314430809760063  -3.8960109979086663   10.2973880902199983 0 0 0
66        8    4   -0.1383081250000000  -3.2142521399694624  -3.1740465466364629   11.2566356446264493 0 0 0
67        8    3   -0.1647531250000000  -2.1198193629289173  -4.4607410421805769   12.2197913871083124 0 0 0
68        8    2    0.0285688750000000  -4.7504921194877738  -3.1768371312292039   9.7518697692600504  0 0 0
69        8    2    0.0285688750000000  -4.7991850164980949  -4.5844136630937964   10.8261916361718225 0 0 0
70        8    2    0.0285688750000000  -3.5630583270200642  -4.4777997223577204   9.5640085723887509  0 0 0
71        8    1    0.1060688750000000  -3.7768202639075237  -2.6110697895692017   12.0055443607132872 0 0 0
72        8    1    0.1060688750000000  -2.5293230172532755  -2.5034744350654830   10.7317505236347355 0 0 0
73        9    5    0.0052168750000000   17.4076318405563946 -17.6732013406088946  11.1109787782001366 0 0 0
74        9    4   -0.1383081250000000   18.6981702084602013 -18.2086472055625315  10.5361429681880647 0 0 0
75        9    3   -0.1647531250000000   18.7236246730957276 -20.1488231238191275  10.6630456436810555 0 0 0
76        9    2    0.0285688750000000   17.3871566053604099 -16.5809973909209702  11.0424638299788747 0 0 0
77        9    2    0.0285688750000000   17.2965613687237685 -17.9480842958898279  12.1652621477374225 0 0 0
78        9    2    0.0285688750000000   16.5385680132961674 -18.0623711902893938  10.5699984108599985 0 0 0
79        9    1    0.1060688750000000   19.5676098304572683 -17.8422523178267660  11.0876132919976840 0 0 0
80        9    1    0.1060688750000000   18.8026441002557512 -17.9575897752881382  9.4776749134801666  0 0 0
81        10   5    0.0052168750000000   10.1472449296324410 -18.4051339810937193 -10.6179473381583023 0 0 0
82        10   4   -0.1383081250000000   11.3317342433924590 -17.6371607829101436 -11.1563059493646382 0 0 0
83        10   3   -0.1647531250000000   12.9469433941075316 -18.1653870112582325 -10.2112603082808668 0 0 0
84        10   2    0.0285688750000000   9.2344396030798173  -18.1121480294371686 -11.1461221852014560 0 0 0
85        10   2    0.0285688750000000   9.9977119373352306  -18.2104412194219556 -9.5506398263008911  0 0 0
86        10   2    0.0285688750000000   10.2804682862181256 -19.4845864500358772 -10.7460830870917263 0 0 0
87        10   1    0.1060688750000000   11.2146403499077945 -16.5606218667416449 -11.0091904498978757 0 0 0
88        10   1    0.1060688750000000   11.4999972404499946 -17.8464872993069044 -12.2156308398276270 0 0 0
89        11   5    0.0052168750000000   25.0662477080635320  3.8930170288643353   10.1137563769565713 0 0 0
90        11   4   -0.1383081250000000   25.4030002267490325  3.1787553341003232   11.4017997513628107 0 0 0
91        11   3   -0.1647531250000000   26.0867172307523170  4.4508369471325668   12.7038651263813041 0 0 0
92        11   2    0.0285688750000000   24.6806494987215004  3.1820124393804203   9.3763219759519636  0 0 0
93        11   2    0.0285688750000000   25.9489311181457971  4.3794538087523476   9.6852006993162885  0 0 0
94        11   2    0.0285688750000000   24.3035232713278084  4.6627245884656272   10.2724591554413838 0 0 0
95        11   1    0.1060688750000000   26.1811140305055225  2.4258586724119646   11.2535583491766040 0 0 0
96        11   1    0.1060688750000000   24.5205702120224025  2.7117345089335498   11.8462185495364682 0 0 0
97        12   5    0.0052168750000000   2.8212204873855260   25.1980100697208762  17.9554757395730533 0 0 0
98        12   4   -0.1383081250000000   4.3053917009428693   25.1654977443379018  18.2362007283893561 0 0 0
99        12   3   -0.1647531250000000   5.1525167413684922   26.7530097441078034  17.4991663811093581 0 0 0
100       12   2    0.0285688750000000   2.3383513431551712   24.3065876544537183  18.3680608437752113 0 0 0
101       12   2    0.0285688750000000   2.6195999894073427   25.2244264235926750  16.8793428188131927 0 0 0
102       12   2    0.0285688750000000   2.3494548459768083   26.0775211974359742  18.4063440367636417 0 0 0
103       12   1    0.1060688750000000   4.7852442246166031   24.3023794765883068  17.7681639782287633 0 0 0
104       12   1    0.1060688750000000   4.5126139951883300   25.1633209860506426  19.3092121135531016 0 0 0
105       13   5    0.0052168750000000   17.2629214747409208 -18.1361199151663470  3.6970262882470464  0 0 0
106       13   4   -0.1383081250000000   18.7181185041922582 -17.7857219960903876  3.4914766212970911  0 0 0
107       13   3   -0.1647531250000000   19.8230095858945603 -19.3617178432302417  3.7680405379106872  0 0 0
108       13   2    0.0285688750000000   16.6354246183570993 -17.2526884746025324  3.5426903360137523  0 0 0
109       13   2    0.0285688750000000   17.0816285032641417 -18.5066912832916302  4.7115313063316666  0 0 0
110       13   2    0.0285688750000000   16.9361802616021109 -18.9099985746475490  2.9943621681753276  0 0 0
111       13   1    0.1060688750000000   19.0557350389535287 -17.0310060386761535  4.2061156121030141  0 0 0
112       13   1    0.1060688750000000   18.9089486532010653 -17.4380225145007977  2.4731504579625638  0 0 0
113       14   5    0.0052168750000000   3.6758002233542499   25.8467528053156350  11.3846122608309326 0 0 0
114       14   4   -0.1383081250000000   3.7378092964810530   24.7081918421652276  10.3934202663919315 0 0 0
115       14   3   -0.1647531250000000   2.0791286473486537   24.6208083725642979  9.3823923508355751  0 0 0
116       14   2    0.0285688750000000   4.6070482594552127   25.9012800523640934  11.9571739393315184 0 0 0
117       14   2    0.0285688750000000   2.8507574340449056   25.7144072336543701  12.0925668904296870 0 0 0
118       14   2    0.0285688750000000   3.5326835966918604   26.8077779468215063  10.8793072300164706 0 0 0
119       14   1    0.1060688750000000   3.8564830456022672   23.7440534188669297  10.8940634827540261 0 0 0
120       14   1    0.1060688750000000   4.5446828250629459   24.8474816245358383  9.6696435635332634  0 0 0
121       15   5    0.0052168750000000   3.1270667939601320   18.6848551349570720 -10.9018946722378285 0 0 0
122       15   4   -0.1383081250000000   4.1594838921301340   17.5817949875954085 -10.9028989175702549 0 0 0
123       15   3   -0.1647531250000000   3.6175819325800660   16.1680415491807459 -9.6827848678984552  0 0 0
124       15   2    0.0285688750000000   3.4264660294090814   19.4841300903801624 -11.5871264903446605 0 0 0
125       15   2    0.0285688750000000   3.0105641716147664   19.1208369690847455 -9.9040180809714915  0 0 0
126       15   2    0.0285688750000000   2.1474819205556064   18.3142381644107068 -11.2219593571689806 0 0 0
127       15   1    0.1060688750000000   5.1333848535596296   17.9410439363040624 -10.5612161725004654 0 0 0
128       15   1    0.1060688750000000   4.2623637342317391   17.1270258082927889 -11.8912814254312469 0 0 0
129       16   5    0.0052168750000000  -25.2684649088679656  11.4680049628422545  4.0935318608709501  0 0 0
130       16   4   -0.1383081250000000  -25.4047417472334942  10.3701045230435440  3.0646144640820316  0 0 0
131       16   3   -0.1647531250000000  -24.3253779649061066  8.8387085125328166   3.5850324662608082  0 0 0
132       16   2    0.0285688750000000  -25.8740007531529983  12.3333252346720617  3.8061816050047068  0 0 0
133       16   2    0.0285688750000000  -24.2287940182042334  11.7990633174474002  4.1878479096252015  0 0 0
134       16   2    0.0285688750000000  -25.6042058603465428  11.1330565791938891  5.0806855770629182  0 0 0
135       16   1    0.1060688750000000  -25.0485518003170213  10.6915247944724587  2.0827245930016760  0 0 0
136       16   1    0.1060688750000000  -26.4366162432595466  10.0193920599189834  2.9837748521328367  0 0 0
137       17   5    0.0052168750000000   4.1208973918205674   11.2614658571529631  25.7132220284569932 0 0 0
138       17   4   -0.1383081250000000   3.1181389163354685   10.3458427114121090  25.0508494319326402 0 0 0
139       17   3   -0.1647531250000000   2.9416112041021223   10.8086342361336776  23.1705045741845872 0 0 0
140       17   2    0.0285688750000000   4.2248389407498168   11.0059407464956678  26.7724321461058778 0 0 0
141       17   2    0.0285688750000000   3.8085396545845560   12.3090687488360135  25.6471044254596805 0 0 0
142       17   2    0.0285688750000000   5.1078415995008886   11.1760931151256013  25.2462771800594581 0 0 0
143       17   1    0.1060688750000000   2.1256359016196460   10.4447662849588472  25.4974385948964795 0 0 0
144       17   1    0.1060688750000000   3.4368897193280663   9.3013682840085181   25.0929249151922100 0 0 0
145       18   5    0.0052168750000000  -3.1136891021169943  -25.6050123810953423  11.3624108450387808 0 0 0
146       18   4   -0.1383081250000000  -3.9073487422288253  -24.8445456453134064  10.3258673190705217 0 0 0
147       18   3   -0.1647531250000000  -5.6498089558744375  -25.6741331567761648  10.0878509807928491 0 0 0
148       18   2    0.0285688750000000  -2.1312883307471928  -25.1427444669382503  11.5010474240966545 0 0 0
149       18   2    0.0285688750000000  -2.9579849794332920  -26.6461262867615254  11.0603367254790275 0 0 0
150       18   2    0.0285688750000000  -3.6247953960555281  -25.6101207271944951  12.3309815067339166 0 0 0
151       18   1    0.1060688750000000  -3.4132670828583560  -24.8568033408848024  9.3511760598130067  0 0 0
152       18   1    0.1060688750000000  -4.0862107387264697  -23.8112672913239187  10.6335091230986301 0 0 0
153       19   5    0.0052168750000000  -4.3974640631327322   3.4776557121434490   10.8684757147071185 0 0 0
154       19   4   -0.1383081250000000  -2.9131952648257067   3.7273364847421160   10.9997517900854422 0 0 0
155       19   3   -0.1647531250000000  -2.1085385353663297   3.8716939197510376   9.2354606317747230  0 0 0
156       19   2    0.0285688750000000  -4.8564826290865772   3.3953829054358815   11.8587060629019891 0 0 0
157       19   2    0.0285688750000000  -4.5988070959155740   2.5489097839900978   10.3241387821107953 0 0 0
158       19   2    0.0285688750000000  -4.8931471648229188   4.2941239697078739   10.3326933776629470 0 0 0
159       19   1    0.1060688750000000  -2.4098554373254082   2.9040112720494298   11.5126597743248293 0 0 0
160       19   1    0.1060688750000000  -2.7069031375658659   4.6652792802212435   11.5212938505555709 0 0 0
161       20   5    0.0052168750000000   3.7838172957925704  -18.0629840290905292 -18.8325697700437011 0 0 0
162       20   4   -0.1383081250000000   3.5416713631909444  -18.2253193916275116 -17.3501257275265957 0 0 0
163       20   3   -0.1647531250000000   2.6361974380942907  -16.6524668415812727 -16.6520665327708102 0 0 0
164       20   2    0.0285688750000000   4.2935110288325617  -18.9455487635246556 -19.2317123374716488 0 0 0
165       20   2    0.0285688750000000   4.4090237000923018  -17.1882640583645880 -19.0408787639345292 0 0 0
166       20   2    0.0285688750000000   2.8427487352271528  -17.9398744849584730 -19.3790300797267889 0 0 0
167       20   1    0.1060688750000000   4.4790531006002086  -18.3244920177254684 -16.7971607587406666 0 0 0
168       20   1    0.1060688750000000   2.8983706662111310  -19.0830170533331653 -17.1384226699909128 0 0 0
169       21   5    0.0052168750000000  -24.5274221925204543 -17.9749564245505873  25.5478060111421925 0 0 0
170       21   4   -0.1383081250000000  -25.9485700592812272 -17.9214898784108847  25.0377983337047070 0 0 0
171       21   3   -0.1647531250000000  -26.5978134449266648 -19.7229450142336233  24.6997491769042092 0 0 0
172       21   2    0.0285688750000000  -24.1559873860137024 -16.9634812401026913  25.7401004126763588 0 0 0
173       21   2    0.0285688750000000  -23.8600342155289447 -18.4475310442287181  24.8193300478439909 0 0 0
174       21   2    0.0285688750000000  -24.4601679547118316 -18.5431751083634033  26.4816096631284239 0 0 0
175       21   1    0.1060688750000000  -26.0175519074300787 -17.3759324238435831  24.0933945236255589 0 0 0
176       21   1    0.1060688750000000  -26.6232061358749981 -17.4724555064721443  25.7709651272624605 0 0 0
177       22   5    0.0052168750000000   11.0224996178475756  18.2806671791342801 -10.0901089825481449 0 0 0
178       22   4   -0.1383081250000000   10.8501462640156507  17.7814115045244954 -11.5056180268826544 0 0 0
179       22   3   -0.1647531250000000   9.0411419009425309   18.1449036844545333 -12.1191418341730675 0 0 0
180       22   2    0.0285688750000000   12.0392950126248621  18.0789114375303441 -9.7387619361829536  0 0 0
181       22   2    0.0285688750000000   10.3240793839164091  17.7875066070554908 -9.4057022766470055  0 0 0
182       22   2    0.0285688750000000   10.8499089136230893  19.3601482061514893 -10.0243972885722865 0 0 0
183       22   1    0.1060688750000000   10.9977208114349381  16.7006551478129985 -11.5725316912695000 0 0 0
184       22   1    0.1060688750000000   11.5283880797183578  18.2877628735420359 -12.1969179478477656 0 0 0
185       23   5    0.0052168750000000   10.8467007233753190  18.4355473107375580 -18.7538082164909845 0 0 0
186       23   4   -0.1383081250000000   10.7841625227203792  17.5449374000148985 -17.5349847172994906 0 0 0
187       23   3   -0.1647531250000000   11.0624333363063023  18.6034679231789504 -15.9277780415927648 0 0 0
188       23   2    0.0285688750000000   10.6907212552231048  17.8453216329399140 -19.6622833432188813 0 0 0
189       23   2    0.0285688750000000   11.8197286684663041  18.9314708036533510 -18.8355836366745812 0 0 0
190       23   2    0.0285688750000000   10.0762810737465607  19.2131352432636859 -18.7192331350644530 0 0 0
191       23   1    0.1060688750000000   11.5663188589364605  16.7819157739419182 -17.5528579364267401 0 0 0
192       23   1    0.1060688750000000   9.8068335453489741   17.0661705524753913 -17.4354376134377702 0 0 0
193       24   5    0.0052168750000000   10.0646074972852198 -10.7115027119749779 -10.6433208917899265 0 0 0
194       24   4   -0.1383081250000000   11.4475828145728773 -11.0015791088249042 -11.1779822028679270 0 0 0
195       24   3   -0.1647531250000000   12.7807311484613084 -10.5786142434204660 -9.8271117223688140  0 0 0
196       24   2    0.0285688750000000   9.3092629025222191  -10.9476554735821026 -11.3994355771701610 0 0 0
197       24   2    0.0285688750000000   9.9548204803633862  -9.6557001947907803  -10.3738054604638013 0 0 0
198       24   2    0.0285688750000000   9.8486582793832387  -11.3091074289607310 -9.7513458903891550  0 0 0
199       24   1    0.1060688750000000   11.6773279678766855 -10.3902020121728675 -12.0541814943095051 0 0 0
200       24   1    0.1060688750000000   11.5701888936584556 -12.0588188103965486 -11.4259967447641095 0 0 0
201       25   5    0.0052168750000000  -3.7043445279330802   25.4122881119935471 -10.0504383418054708 0 0 0
202       25   4   -0.1383081250000000  -3.3376718241048060   25.1004066285887504 -11.4825377902993466 0 0 0
203       25   3   -0.1647531250000000  -4.8739100445485359   25.3953853428837526 -12.6375245870900059 0 0 0
204       25   2    0.0285688750000000  -2.8433212910029386   25.2481132189074664 -9.3949167242774756  0 0 0
205       25   2    0.0285688750000000  -4.5224994938203338   24.7739273102355924 -9.7003974146655754  0 0 0
206       25   2    0.0285688750000000  -4.0211268129572488   26.4545927637510481 -9.9380334379108852  0 0 0
207       25   1    0.1060688750000000  -3.0437523828542572   24.0549572933321016 -11.6047549640777810 0 0 0
208       25   1    0.1060688750000000  -2.5377669508199019   25.7510826265956361 -11.8445767239968376 0 0 0
209       26   5    0.0052168750000000   18.6597636741553714  11.1526849895142970  17.6444367450109389 0 0 0
210       26   4   -0.1383081250000000   17.6368142671337367  10.5425756688236802  18.5739360130474971 0 0 0
211       26   3   -0.1647531250000000   15.9667586438453384  10.2536019714651321  17.6208131301212063 0 0 0
212       26   2    0.0285688750000000   19.6025966461393608  11.3179030150690441  18.1752775799809285 0 0 0
213       26   2    0.0285688750000000   18.3181749907578038  12.1170481370085810  17.2536278361697732 0 0 0
214       26   2    0.0285688750000000   18.8627648096439522  10.4980368212985837  16.7902639402213154 0 0 0
215       26   1    0.1060688750000000   17.4127468516058030  11.2026168068921059  19.4156185407596737 0 0 0
216       26   1    0.1060688750000000   17.9623467569243225  9.5687125740519843   18.9479928548943590 0 0 0
217       27   5    0.0052168750000000   10.1316297428603974 -11.1261109282743025  25.0258149830001351 0 0 0
218       27   4   -0.1383081250000000   11.3751062757635069 -10.5696549677059988  25.6790765216408587 0 0 0
219       27   3   -0.1647531250000000   12.7522376060071387 -10.2774941741639267  24.3377390612759186 0 0 0
220       27   2    0.0285688750000000   9.3522524728432401  -11.2928619664476386  25.7760070673017019 0 0 0
221       27   2    0.0285688750000000   10.3349116223147703 -12.0818100226976046  24.5311166602781299 0 0 0
222       27   2    0.0285688750000000   9.7344961830674439  -10.4370225699314094  24.2729358189356184 0 0 0
223       27   1    0.1060688750000000   11.7892424825879196 -11.2640714110197973  26.4143091335076683 0 0 0
224       27   1    0.1060688750000000   11.1833035986789753 -9.6041539438827161   26.1537540503478887 0 0 0
225       28   5    0.0052168750000000   3.8729243661930792  -25.4637376191694464 -4.3408585334718000  0 0 0
226       28   4   -0.1383081250000000   3.1919592141301059  -25.1147759591233140 -3.0381152804500551  0 0 0
227       28   3   -0.1647531250000000   4.5241664198323868  -24.8413294428607649 -1.6483362417468539  0 0 0
228       28   2    0.0285688750000000   3.1279930039154942  -25.6189847277981251 -5.1276231754440396  0 0 0
229       28   2    0.0285688750000000   4.4636115415711037  -26.3813320483281970 -4.2485555729518651  0 0 0
230       28   2    0.0285688750000000   4.5460939318001854  -24.6632796096123030 -4.6656578199183212  0 0 0
231       28   1    0.1060688750000000   2.5372022154405034  -25.9205851294704637 -2.6971536378105796  0 0 0
232       28   1    0.1060688750000000   2.6204426351582737  -24.1867287599253054 -3.1180930662476043  0 0 0
233       29   5    0.0052168750000000  -25.2185786993556462 -24.5837116331473950 -18.4513871025375629 0 0 0
234       29   4   -0.1383081250000000  -25.4737931335986580 -25.8027679335831088 -17.5961707026001051 0 0 0
235       29   3   -0.1647531250000000  -24.2317195918501440 -27.2194622335962357 -18.0770713054263226 0 0 0
236       29   2    0.0285688750000000  -25.9149303093953094 -23.7822320158593286 -18.1854024049195395 0 0 0
237       29   2    0.0285688750000000  -25.3515191793047805 -24.8080996056334300 -19.5150541456927442 0 0 0
238       29   2    0.0285688750000000  -24.1998169685048552 -24.2062389601051073 -18.3134603739450732 0 0 0
239       29   1    0.1060688750000000  -26.4813456453444296 -26.1978191602538821 -17.7480339716308144 0 0 0
240       29   1    0.1060688750000000  -25.3190497689341036 -25.5904217541094177 -16.5353866334534985 0 0 0
241       30   5    0.0052168750000000   17.6518492753003748  18.1935893946817302  17.3762126928848488 0 0 0
242       30   4   -0.1383081250000000   18.4895232646006491  17.7694569651652294  18.5598687796271840 0 0 0
243       30   3   -0.1647531250000000   18.1983649661715461  18.9885120793492383  20.0465315814883454 0 0 0
244       30   2    0.0285688750000000   17.8113596919837924  17.5109782823913847  16.5356048785937659 0 0 0
245       30   2    0.0285688750000000   17.9125393717225663  19.2044661724098980  17.0451847092078062 0 0 0
246       30   2    0.0285688750000000   16.5842462891857885  18.1859234830545304  17.6202413048100794 0 0 0
247       30   1    0.1060688750000000   19.5572976244771084  17.7984764546337679  18.3289883479717695 0 0 0
248       30   1    0.1060688750000000   18.2167861567638667  16.7705638085199062  18.9093343456218648 0 0 0
249       31   5    0.0052168750000000  -18.2006735781750493 -3.0234477737557008  -10.3104168585749250 0 0 0
250       31   4   -0.1383081250000000  -18.1000440375083862 -4.0898001551662464  -11.3759655698055564 0 0 0
251       31   3   -0.1647531250000000  -16.4144083873708801 -5.0430778801357823  -11.2000995791694802 0 0 0
252       31   2    0.0285688750000000  -19.1478388297268829 -2.4829598082412927  -10.4040851375537891 0 0 0
253       31   2    0.0285688750000000  -17.3863453008664912 -2.2961758273118473  -10.3961821475409462 0 0 0
254       31   2    0.0285688750000000  -18.1571858574605400 -3.4581202413510290  -9.3061492001981065  0 0 0
255       31   1    0.1060688750000000  -18.1187692958046078 -3.6590894836504049  -12.3801705639397728 0 0 0
256       31   1    0.1060688750000000  -18.8967013532928227 -4.8317221584287910  -11.2801109273408127 0 0 0
257       32   5    0.0052168750000000  -11.1518594235538213  4.0163778941615735  -4.2196627917690348  0 0 0
258       32   4   -0.1383081250000000  -10.3683842576975103  3.2885986760853587  -3.1523615990297107  0 0 0
259       32   3   -0.1647531250000000  -11.5848468120174886  2.5494134028642721  -1.8276507632657777  0 0 0
260       32   2    0.0285688750000000  -10.4724233413317194  4.4350065549177025  -4.9687553465766658  0 0 0
261       32   2    0.0285688750000000  -11.7350551967139367  4.8399497291887315  -3.7941950082434692  0 0 0
262       32   2    0.0285688750000000  -11.8472715589631381  3.3433598077502480  -4.7323356727454984  0 0 0
263       32   1    0.1060688750000000  -9.6900457277773597   3.9610219011403052  -2.6213306834207781  0 0 0
264       32   1    0.1060688750000000  -9.8032936660684040   2.4506653619329697  -3.5681014629901862  0 0 0
265       33   5    0.0052168750000000  -24.5803946260155435  25.2793177440272032  3.2138757186475870  0 0 0
266       33   4   -0.1383081250000000  -25.7814938199793531  25.2931310375284646  4.1302804769187969  0 0 0
267       33   3   -0.1647531250000000  -27.4098560071052333  25.0798923724887217  3.0891269474762431  0 0 0
268       33   2    0.0285688750000000  -23.6601234724913745  25.3990135903305081  3.7942177811151012  0 0 0
269       33   2    0.0285688750000000  -24.6274798363170788  26.0933628057553868  2.4827640086149811  0 0 0
270       33   2    0.0285688750000000  -24.5115057438904671  24.3363260848594543  2.6612402888571798  0 0 0
271       33   1    0.1060688750000000  -25.8684705881688792  26.2414544384929371  4.6663847177884854  0 0 0