LAMMPS data file via vdw_self_gen.py, on 2021-08-05 13:23:00.275982

7500 atoms
10 atom types
7000 bonds
9 bond types
11000 angles
13 angle types
9500 dihedrals
11 dihedral types

-48.6379474133318581  48.6379474133318581 xlo xhi
-48.6379474133318581  48.6379474133318581 ylo yhi
-48.6379474133318581  48.6379474133318581 zlo zhi

Masses

1  1.007940
2  1.007940
3  1.007940
4  12.011000
5  12.011000
6  12.011000
7  12.011000
8  12.011000
9  15.999400
10  15.999400

Atoms

1         0    8    0.0494510000000000   17.1337461066873864  6.0030182684224966   18.6544292047893947 0 0 0
2         0    9   -0.1457430000000000   17.0837635897940103  5.9219695207821257   17.2318026958943413 0 0 0
3         0    7    0.2941740000000000   15.9678935814117349  5.3255952743309480   16.7364762465069390 0 0 0
4         0    10  -0.4278410000000000   15.0426270508541471  4.8869704539116556   17.4005597982096383 0 0 0
5         0    4    0.1513400000000000   16.0138592156756872  5.2618194928391055   15.2452136463047427 0 0 0
6         0    5   -0.0224980000000000   14.8451111786862100  4.5875538458259655   14.5915027026980137 0 0 0
7         0    6   -0.3062560000000000   17.0385515312707163  5.7705357057904472   14.5391247918105382 0 0 0
8         0    3    0.0319320000000000   18.1164390955420060  6.3946104468886729   18.9317276525313289 0 0 0
9         0    3    0.0319320000000000   17.0178542182275088  5.0131190923278108   19.1065683260300432 0 0 0
10        0    3    0.0319320000000000   16.3680260611919088  6.6928332278327884   19.0214058084035571 0 0 0
11        0    1    0.0285690000000000   14.7175663464920774  3.5708948385072006   14.9778286448999225 0 0 0
12        0    1    0.0285690000000000   14.9746017355449865  4.5110320557869956   13.5061791120423802 0 0 0
13        0    1    0.0285690000000000   13.9240349595165043  5.1500390467205301   14.7763577620137898 0 0 0
14        0    2    0.1129350000000000   17.8835405094962283  6.2597129523814097   15.0147176119782628 0 0 0
15        0    2    0.1129350000000000   17.0621218862682511  5.7135414665383033   13.4558430625464638 0 0 0
16        1    8    0.0494510000000000   29.6779091029830440  37.9506736307732950 -37.5198972770588384 0 0 0
17        1    9   -0.1457430000000000   28.3053587371656050  37.7516805332911858 -37.1890792368178609 0 0 0
18        1    7    0.2941740000000000   27.4405553932155186  37.9377399818006324 -38.2204247011570999 0 0 0
19        1    10  -0.4278410000000000   27.7506153228009182  38.2376894709377524 -39.3620945279160850 0 0 0
20        1    4    0.1513400000000000   26.0291519197605403  37.7344376310705201 -37.7769692671991564 0 0 0
21        1    5   -0.0224980000000000   24.9839911304548608  37.9514416709375908 -38.8298188792897463 0 0 0
22        1    6   -0.3062560000000000   25.7190808363932355  37.3859112641936946 -36.5161230068442038 0 0 0
23        1    3    0.0319320000000000   30.2569087967913646  37.8841446838456548 -36.5945553794390648 0 0 0
24        1    3    0.0319320000000000   29.8354562527754439  38.9430563457462284 -37.9536213093826689 0 0 0
25        1    3    0.0319320000000000   30.0204059952151034  37.1667831337000436 -38.2018468802625080 0 0 0
26        1    1    0.0285690000000000   25.0702953934187747  38.9540290484515168 -39.2616534305289946 0 0 0
27        1    1    0.0285690000000000   23.9710588670573195  37.8568104268214611 -38.4229235088253276 0 0 0
28        1    1    0.0285690000000000   25.0885268918077777  37.2145483156224586 -39.6329395758172183 0 0 0
29        1    2    0.1129350000000000   26.4779319576572583  37.2279641854185499 -35.7554082254952874 0 0 0
30        1    2    0.1129350000000000   24.6889818469352882  37.2458094995943654 -36.2053646161708897 0 0 0
31        2    8    0.0494510000000000  -4.6083504062987597   37.3523779293447546  13.7010338960351650 0 0 0
32        2    9   -0.1457430000000000  -4.8338516468846198   38.0657493725104175  14.9147816910362394 0 0 0
33        2    7    0.2941740000000000  -5.4138777302871404   37.3352056627603801  15.9027351512849489 0 0 0
34        2    10  -0.4278410000000000  -5.7276211646519952   36.1583171516382222  15.8251765342160997 0 0 0
35        2    4    0.1513400000000000  -5.6348332718244620   38.1675538375630481  17.1227431419008340 0 0 0
36        2    5   -0.0224980000000000  -6.3056494168850845   37.4696377935583769  18.2676724102606194 0 0 0
37        2    6   -0.3062560000000000  -5.2615284068093846   39.4575427808558743  17.1853530559588208 0 0 0
38        2    3    0.0319320000000000  -4.2467309659485757   38.0671052808292885  12.9565068198984275 0 0 0
39        2    3    0.0319320000000000  -5.5376623085269703   36.9094186421507899  13.3296479083274946 0 0 0
40        2    3    0.0319320000000000  -3.8415929436689371   36.5862224727098422  13.8491301609105406 0 0 0
41        2    1    0.0285690000000000  -7.2677088680259327   37.0494605619413733  17.9562183020821564 0 0 0
42        2    1    0.0285690000000000  -6.5018286576826663   38.1526780084994925  19.1016511002481266 0 0 0
43        2    1    0.0285690000000000  -5.6753955796938351   36.6578982683080952  18.6455631875391283 0 0 0
44        2    2    0.1129350000000000  -4.7745484616590570   39.9607094866711918  16.3551945881465990 0 0 0
45        2    2    0.1129350000000000  -5.4320658600390184   40.0528425728638453  18.0763291188141650 0 0 0
46        3    8    0.0494510000000000   18.7643634562980246  15.8658404377222677  26.2877668299828606 0 0 0
47        3    9   -0.1457430000000000   17.3575846192396845  16.0631008070599961  26.1653128157835830 0 0 0
48        3    7    0.2941740000000000   16.6953769906580405  16.1738438437480134  27.3465805438509371 0 0 0
49        3    10  -0.4278410000000000   17.2062816209733320  16.1302670599025220  28.4540977545217686 0 0 0
50        3    4    0.1513400000000000   15.2296801104201514  16.3513490827436101  27.1223733227584241 0 0 0
51        3    5   -0.0224980000000000   14.3937319009385476  16.4477265981582406  28.3632786777662105 0 0 0
52        3    6   -0.3062560000000000   14.6975060740825931  16.4143216173000397  25.8894202610647746 0 0 0
53        3    3    0.0319320000000000   19.1634434434952219  15.6806577095889352  25.2865840820692860 0 0 0
54        3    3    0.0319320000000000   18.9838783511024403  14.9942444026080715  26.9121822815311234 0 0 0
55        3    3    0.0319320000000000   19.2390638490995620  16.7653492557045105  26.6907396793738201 0 0 0
56        3    1    0.0285690000000000   14.5427310012371596  15.5699970539484660  29.0008530423163435 0 0 0
57        3    1    0.0285690000000000   13.3246658677506051  16.5047010353345627  28.1300354242898436 0 0 0
58        3    1    0.0285690000000000   14.6562463431278296  17.3439077772722925  28.9350197533798124 0 0 0
59        3    2    0.1129350000000000   15.3051489280062842  16.3455891876634105  24.9919040786526097 0 0 0
60        3    2    0.1129350000000000   13.6300345102298746  16.5388411979044356  25.7400798970906308 0 0 0
61        4    8    0.0494510000000000  -29.6929949057526628 -16.0575493072323070 -16.2907397051782503 0 0 0
62        4    9   -0.1457430000000000  -28.3957395360049105 -16.6113127747134079 -16.0823941675636419 0 0 0
63        4    7    0.2941740000000000  -27.3678226957327766 -15.7616503186094903 -16.3424654829223819 0 0 0
64        4    10  -0.4278410000000000  -27.4794156126485909 -14.6042693922189191 -16.7133202542568569 0 0 0
65        4    4    0.1513400000000000  -26.0519247302113790 -16.4326329696833113 -16.1228313350887902 0 0 0
66        4    5   -0.0224980000000000  -24.8433173126189146 -15.5954694732364718 -16.4167182603804314 0 0 0
67        4    6   -0.3062560000000000  -25.9601915467425606 -17.7040660809684134 -15.6957589009765215 0 0 0
68        4    3    0.0319320000000000  -30.4234032111930368 -16.8607579805359435 -16.1592714269757423 0 0 0
69        4    3    0.0319320000000000  -29.7919245182237908 -15.6657591836530461 -17.3078309127118040 0 0 0
70        4    3    0.0319320000000000  -29.8954118645192324 -15.2784000888032914 -15.5499309821429712 0 0 0
71        4    1    0.0285690000000000  -24.8726476317664869 -15.2186920572246613 -17.4444777002116425 0 0 0
72        4    1    0.0285690000000000  -23.9154373911653835 -16.1673046908159179 -16.3044951771967419 0 0 0
73        4    1    0.0285690000000000  -24.7912338619930779 -14.7420260021650193 -15.7327124478638858 0 0 0
74        4    2    0.1129350000000000  -26.8370571957209272 -18.3082204091857044 -15.4822326406757131 0 0 0
75        4    2    0.1129350000000000  -24.9977064301383756 -18.1816263376133769 -15.5445576725138555 0 0 0
76        5    8    0.0494510000000000   36.5657477089945147 -16.6986897399501402  7.7141797694350176  0 0 0
77        5    9   -0.1457430000000000   37.4441397568705199 -16.0727041971039775  6.7817084049010852  0 0 0
78        5    7    0.2941740000000000   37.4097739388804271 -16.5982410594637990  5.5291883828036825  0 0 0
79        5    10  -0.4278410000000000   36.6983597233400474 -17.5206977731500402  5.1652099842657089  0 0 0
80        5    4    0.1513400000000000   38.3769056831509161 -15.9002015080794035  4.6306110035383341  0 0 0
81        5    5   -0.0224980000000000   38.4494525566394216 -16.4250353187105951  3.2280310390210225  0 0 0
82        5    6   -0.3062560000000000   39.1346382089897205 -14.8740682159306488  5.0551576834569518  0 0 0
83        5    3    0.0319320000000000   36.7640991374624733 -16.2682816925008211  8.6997405221111705  0 0 0
84        5    3    0.0319320000000000   36.7531109171416901 -17.7757482029576614  7.7651816232903066  0 0 0
85        5    3    0.0319320000000000   35.5242082036676194 -16.4949003769960889  7.4486443701184530  0 0 0
86        5    1    0.0285690000000000   38.6842930143570882 -17.4945932491777256  3.2254333874230627  0 0 0
87        5    1    0.0285690000000000   39.2257816649095190 -15.9184345981407915  2.6438910637833173  0 0 0
88        5    1    0.0285690000000000   37.4955996685482376 -16.2751594297918416  2.7116549343251193  0 0 0
89        5    2    0.1129350000000000   39.0794780146849874 -14.4946841864761442  6.0712848377339723  0 0 0
90        5    2    0.1129350000000000   39.8371316245677889 -14.3782975182295392  4.3933286826792521  0 0 0
91        6    8    0.0494510000000000   28.0803303783857565  24.5796092221132696  5.6982861986382494  0 0 0
92        6    9   -0.1457430000000000   27.1006833583348481  25.5870385600771435  5.4568091181212273  0 0 0
93        6    7    0.2941740000000000   27.5740252232991452  26.8599999025615830  5.4979589457314120  0 0 0
94        6    10  -0.4278410000000000   28.7331607471026693  27.1804330304418649  5.7059115781110297  0 0 0
95        6    4    0.1513400000000000   26.4772882859343461  27.8453409698970233  5.2606502778704902  0 0 0
96        6    5   -0.0224980000000000   26.8812793287956282  29.2879517231875077  5.3207301104145319  0 0 0
97        6    6   -0.3062560000000000   25.2122965319169694  27.4618208356653639  5.0155866814164627  0 0 0
98        6    3    0.0319320000000000   27.5632204542520576  23.6174246711718077  5.7504646423867438  0 0 0
99        6    3    0.0319320000000000   28.5883320721793268  24.7492779348246899  6.6527011506532077  0 0 0
100       6    3    0.0319320000000000   28.7984123810852211  24.5445075499378191  4.8736833827871058  0 0 0
101       6    1    0.0285690000000000   27.3527847067640728  29.5193435077608051  6.2815898689531116  0 0 0
102       6    1    0.0285690000000000   26.0202136580676964  29.9563754229500461  5.2097059986657381  0 0 0
103       6    1    0.0285690000000000   27.5885578644139997  29.5228464196813398  4.5185306649443913  0 0 0
104       6    2    0.1129350000000000   24.9221734027546979  26.4161869094716337  4.9712296659874635  0 0 0
105       6    2    0.1129350000000000   24.4234700511455891  28.1880717846901483  4.8494074042052651  0 0 0
106       7    8    0.0494510000000000  -28.9168285775096798  16.2611463134881546 -39.7197701319574392 0 0 0
107       7    9   -0.1457430000000000  -27.6487192039954799  16.4590365587682754 -39.0987456534315356 0 0 0
108       7    7    0.2941740000000000  -27.5627940061535988  15.9958496074867540 -37.8242845447905651 0 0 0
109       7    10  -0.4278410000000000  -28.4564944027171087  15.4355384762154930 -37.2103888804828813 0 0 0
110       7    4    0.1513400000000000  -26.2128424326398139  16.2686095791037850 -37.2469829947743563 0 0 0
111       7    5   -0.0224980000000000  -26.0177702431951623  15.8309694645677332 -35.8262922805250668 0 0 0
112       7    6   -0.3062560000000000  -25.2413920171503499  16.8715556519358678 -37.9541520841028799 0 0 0
113       7    3    0.0319320000000000  -28.8970294054952603  16.7697395083808267 -40.6876881701179016 0 0 0
114       7    3    0.0319320000000000  -29.7193153222458797  16.6985578812069448 -39.1177342206128600 0 0 0
115       7    3    0.0319320000000000  -29.0924648596808133  15.1949043119265337 -39.8904264661234862 0 0 0
116       7    1    0.0285690000000000  -26.7714615101522391  16.2838350233901465 -35.1736260451910354 0 0 0
117       7    1    0.0285690000000000  -25.0342437089645955  16.1235009282349715 -35.4420376978209575 0 0 0
118       7    1    0.0285690000000000  -26.0943158568232363  14.7416691546723388 -35.7456201069080279 0 0 0
119       7    2    0.1129350000000000  -25.3845126633618285  17.1865610210340840 -38.9836069789706912 0 0 0
120       7    2    0.1129350000000000  -24.2660442343470280  17.0682635862474541 -37.5213635663953085 0 0 0
121       8    8    0.0494510000000000  -27.1562249456603197  29.1112989015635755 -36.1615810676001175 0 0 0
122       8    9   -0.1457430000000000  -27.4067589973118153  28.3044717936936898 -37.3101436659243788 0 0 0
123       8    7    0.2941740000000000  -26.7857019416166224  27.0960105518180114 -37.3008716998157226 0 0 0
124       8    10  -0.4278410000000000  -26.0707188535186916  26.6716740367771337 -36.4074207750095837 0 0 0
125       8    4    0.1513400000000000  -27.0832300125794738  26.3332505370196088 -38.5497586200025921 0 0 0
126       8    5   -0.0224980000000000  -26.4169196462163320  24.9949204407678778 -38.6631040373949730 0 0 0
127       8    6   -0.3062560000000000  -27.8901634591003074  26.8190070541635670 -39.5090536821905474 0 0 0
128       8    3    0.0319320000000000  -27.6123514224900397  30.0898590711195020 -36.3356299268137661 0 0 0
129       8    3    0.0319320000000000  -26.0816494893241710  29.2544980250692319 -36.0114388241535011 0 0 0
130       8    3    0.0319320000000000  -27.6187439737883729  28.6641773029492022 -35.2767069982704555 0 0 0
131       8    1    0.0285690000000000  -25.3304522020669758  25.0928696134144431 -38.5676817790826831 0 0 0
132       8    1    0.0285690000000000  -26.6187612073165134  24.5207216094046068 -39.6300301657245058 0 0 0
133       8    1    0.0285690000000000  -26.7771350806555013  24.3186490191508469 -37.8808993322212686 0 0 0
134       8    2    0.1129350000000000  -28.3728214568144708  27.7882003938066191 -39.4242314555391502 0 0 0
135       8    2    0.1129350000000000  -28.0945957559725485  26.2566200937141438 -40.4141677924617397 0 0 0
136       9    8    0.0494510000000000  -36.9438327699179325  18.0260668689709860 -39.5891614816566246 0 0 0
137       9    9   -0.1457430000000000  -37.7435490279876475  17.4471076687794557 -38.5604761622355028 0 0 0
138       9    7    0.2941740000000000  -37.3701112762587186  16.1946704675963211 -38.1888288676452987 0 0 0
139       9    10  -0.4278410000000000  -36.4293641529167829  15.5680088050856753 -38.6490536605055937 0 0 0
140       9    4    0.1513400000000000  -38.2761971875574787  15.6597583324621663 -37.1291488868812465 0 0 0
141       9    5   -0.0224980000000000  -37.9777946475655668  14.2645303628973608 -36.6684548760991973 0 0 0
142       9    6   -0.3062560000000000  -39.2940007937716231  16.3809719092779567 -36.6278757146547065 0 0 0
143       9    3    0.0319320000000000  -37.4057587018448672  18.9747666140384830 -39.8764202514484083 0 0 0
144       9    3    0.0319320000000000  -36.9119305159925517  17.3782073402165764 -40.4706496385802481 0 0 0
145       9    3    0.0319320000000000  -35.9356466119014968  18.2288087574723860 -39.2159322071738146 0 0 0
146       9    1    0.0285690000000000  -37.9831103595968074  13.5674095921914812 -37.5129105168856398 0 0 0
147       9    1    0.0285690000000000  -38.7195256402610539  13.9076740957879288 -35.9452402300917484 0 0 0
148       9    1    0.0285690000000000  -36.9962440839412636  14.2209250162779277 -36.1851335952776125 0 0 0
149       9    2    0.1129350000000000  -39.5075109356185266  17.3919860004699238 -36.9621708077084250 0 0 0
150       9    2    0.1129350000000000  -39.9481431170726538  15.9788452351347612 -35.8612629253608688 0 0 0
151       10   8    0.0494510000000000   6.4909622375746512   27.9239988393495864 -29.2955043851128991 0 0 0
152       10   9   -0.1457430000000000   6.3400627049196077   27.1564825834352170 -28.1034131707959496 0 0 0
153       10   7    0.2941740000000000   5.1985788325377333   27.4048900955962580 -27.4095221952860619 0 0 0
154       10   10  -0.4278410000000000   4.3284790776601287   28.1970023585788994 -27.7335614347224109 0 0 0
155       10   4    0.1513400000000000   5.1382519129220698   26.5781535839589793 -26.1673822129589944 0 0 0
156       10   5   -0.0224980000000000   3.9335822819467445   26.7991799563659079 -25.3025917427256459 0 0 0
157       10   6   -0.3062560000000000   6.1036864123393721   25.6996216127446644 -25.8457212108322807 0 0 0
158       10   3    0.0319320000000000   7.4863762569723367   27.7198161074915888 -29.6997131377365129 0 0 0
159       10   3    0.0319320000000000   6.4193290337473217   28.9950775686996565 -29.0823843878266679 0 0 0
160       10   3    0.0319320000000000   5.7455351883944745   27.6219351366297126 -30.0370835971662800 0 0 0
161       10   1    0.0285690000000000   3.8459203884862396   27.8538198759191573 -25.0212361180801892 0 0 0
162       10   1    0.0285690000000000   3.9858115608814515   26.2168464130841912 -24.3759254425447693 0 0 0
163       10   1    0.0285690000000000   3.0216364023724585   26.5010183072363645 -25.8302248912444234 0 0 0
164       10   2    0.1129350000000000   6.9748393280949115   25.5401992733699217 -26.4743438301985456 0 0 0
165       10   2    0.1129350000000000   6.0501940700369641   25.1081867319719194 -24.9376206872004857 0 0 0
166       11   8    0.0494510000000000   36.4248829800771574  28.8290593724766566 -25.6327373683748760 0 0 0
167       11   9   -0.1457430000000000   37.2456866840608072  28.2848284966879078 -26.6637695544219042 0 0 0
168       11   7    0.2941740000000000   37.4994336003544930  26.9553380585804803 -26.5444209626732430 0 0 0
169       11   10  -0.4278410000000000   37.0782661420739430  26.2284965764634279 -25.6590756733880809 0 0 0
170       11   4    0.1513400000000000   38.3843733414496526  26.4794394943243034 -27.6491591867649582 0 0 0
171       11   5   -0.0224980000000000   38.7605203959726339  25.0290573426985397 -27.5957818309001865 0 0 0
172       11   6   -0.3062560000000000   38.8179086454631133  27.3000480034702768 -28.6217828613129228 0 0 0
173       11   3    0.0319320000000000   36.3862682326520783  29.9127332881560299 -25.7744558197403144 0 0 0
174       11   3    0.0319320000000000   36.8516041501505143  28.6262634163797784 -24.6455474490574247 0 0 0
175       11   3    0.0319320000000000   35.4084281580021170  28.4317078921244359 -25.7087313789436180 0 0 0
176       11   1    0.0285690000000000   39.2382070710561308  24.7868048461417025 -26.6406692075098057 0 0 0
177       11   1    0.0285690000000000   39.4655889142727148  24.7622484013767767 -28.3909183339189362 0 0 0
178       11   1    0.0285690000000000   37.8739222391768493  24.3973778074320222 -27.7135403498777748 0 0 0
179       11   2    0.1129350000000000   38.5430926530606328  28.3500798885759160 -28.6591792927113183 0 0 0
180       11   2    0.1129350000000000   39.4645366143821263  26.9427455595438090 -29.4164591748367741 0 0 0
181       12   8    0.0494510000000000   37.4327607316495374 -39.2756350612188143  40.0477561472781645 0 0 0
182       12   9   -0.1457430000000000   38.0731620322145403 -38.3933194656576688  39.1288771022650437 0 0 0
183       12   7    0.2941740000000000   37.3700728731357259 -38.1505304680527431  37.9918214545820234 0 0 0
184       12   10  -0.4278410000000000   36.2705032556955587 -38.6081258056184851  37.7252318584973096 0 0 0
185       12   4    0.1513400000000000   38.1262067881086821 -37.2405982409053919  37.0805974551031241 0 0 0
186       12   5   -0.0224980000000000   37.4573891825557936 -36.9333347356387662  35.7743753134542501 0 0 0
187       12   6   -0.3062560000000000   39.3284421528793260 -36.7368712944834783  37.4095918145430062 0 0 0
188       12   3    0.0319320000000000   38.1363934823905879 -39.4794954104110403  40.8597082910722378 0 0 0
189       12   3    0.0319320000000000   37.1792056235799677 -40.2249797957390101  39.5658687373880369 0 0 0
190       12   3    0.0319320000000000   36.5420821299591765 -38.8010719114297444  40.4700417606409815 0 0 0
191       12   1    0.0285690000000000   37.2267572641156477 -37.8550958201494510  35.2300625575148914 0 0 0
192       12   1    0.0285690000000000   38.0938011407912640 -36.3211380786176790  35.1257261342771727 0 0 0
193       12   1    0.0285690000000000   36.5256871764030819 -36.3824045435199821  35.9397527328408444 0 0 0
194       12   2    0.1129350000000000   39.8104622608309171 -36.9597653434789066  38.3569376547474974 0 0 0
195       12   2    0.1129350000000000   39.8697937278951784 -36.0803538472837815  36.7363708080003804 0 0 0
196       13   8    0.0494510000000000   37.5361625279065265 -24.4611152519143502 -38.5573803935002388 0 0 0
197       13   9   -0.1457430000000000   37.3503942754776475 -25.8747610587127497 -38.5519929441210678 0 0 0
198       13   7    0.2941740000000000   38.0558939621673318 -26.5359524709920542 -37.5973869954129896 0 0 0
199       13   10  -0.4278410000000000   38.7941025237211292 -26.0193837798488055 -36.7741484174301192 0 0 0
200       13   4    0.1513400000000000   37.8206936990413851 -28.0081398736285649 -37.6833487330864187 0 0 0
201       13   5   -0.0224980000000000   38.5812921933788147 -28.8421751474387200 -36.6965259389880742 0 0 0
202       13   6   -0.3062560000000000   36.9867759570118650 -28.5471860378169247 -38.5896370038933441 0 0 0
203       13   3    0.0319320000000000   37.0125027823096744 -24.0593672373283383 -39.4293341636725074 0 0 0
204       13   3    0.0319320000000000   38.5969198554001807 -24.2066873418673190 -38.6458192105299787 0 0 0
205       13   3    0.0319320000000000   37.1015528797070573 -24.0187845575168026 -37.6561025759624073 0 0 0
206       13   1    0.0285690000000000   39.6574513352270657 -28.6579315969308759 -36.7804709835868522 0 0 0
207       13   1    0.0285690000000000   38.4193454034645612 -29.9135412924510504 -36.8593095550490517 0 0 0
208       13   1    0.0285690000000000   38.2656424937243500 -28.6110860505189315 -35.6738307292149770 0 0 0
209       13   2    0.1129350000000000   36.4358207453051577 -27.9409653580804331 -39.3026826718929740 0 0 0
210       13   2    0.1129350000000000   36.8281691883621960 -29.6191513893862108 -38.6447495058639845 0 0 0
211       14   8    0.0494510000000000  -17.8345699105572173 -6.0762566804134766   3.3825813813655810  0 0 0
212       14   9   -0.1457430000000000  -16.6300993072355077 -5.9203589949497912   4.1294949056111214  0 0 0
213       14   7    0.2941740000000000  -16.7935850677515113 -5.3704257227118797   5.3611694612849004  0 0 0
214       14   10  -0.4278410000000000  -17.8580394429754499 -5.0292996480884442   5.8511559239332609  0 0 0
215       14   4    0.1513400000000000  -15.4811738160525181 -5.2218041567109861   6.0579712043462344  0 0 0
216       14   5   -0.0224980000000000  -15.5391976152618820 -4.5889281324498343   7.4159275037685379  0 0 0
217       14   6   -0.3062560000000000  -14.3260026987588915 -5.6240791551516773   5.5002055610872223  0 0 0
218       14   3    0.0319320000000000  -17.5632228799698566 -6.4186774661891999   2.3800629684872172  0 0 0
219       14   3    0.0319320000000000  -18.3626306161884187 -5.1222361362219093   3.2889983378763508  0 0 0
220       14   3    0.0319320000000000  -18.4732070794959036 -6.8329330257832153   3.8477987162832714  0 0 0
221       14   1    0.0285690000000000  -16.0179390316093162 -3.6053667129983280   7.3656826489057554  0 0 0
222       14   1    0.0285690000000000  -14.5394249230234198 -4.4446035036966549   7.8403985280911828  0 0 0
223       14   1    0.0285690000000000  -16.1058522265443465 -5.2186671990882587   8.1096663992916902  0 0 0
224       14   2    0.1129350000000000  -14.2864956626325661 -6.0834896945917709   4.5169098614892480  0 0 0
225       14   2    0.1129350000000000  -13.3782967886024213 -5.5061194598410355   6.0152222870648711  0 0 0
226       15   8    0.0494510000000000   7.9549074834529288   17.0260199664281799  16.2535882431028647 0 0 0
227       15   9   -0.1457430000000000   6.6678363129518710   16.7013460738480859  15.7330423749587442 0 0 0
228       15   7    0.2941740000000000   5.7681053321876625   16.2863566549358012  16.6627973713658157 0 0 0
229       15   10  -0.4278410000000000   5.9779826166756846   16.1907545405806736  17.8612666494396422 0 0 0
230       15   4    0.1513400000000000   4.4613461578939351   15.9446025314309843  16.0259073399894270 0 0 0
231       15   5   -0.0224980000000000   3.4018173606325579   15.4379154952971582  16.9579004245602221 0 0 0
232       15   6   -0.3062560000000000   4.2536017699778936   16.0778033253522743  14.7043749661188006 0 0 0
233       15   3    0.0319320000000000   8.6142406110946137   17.2346216812175008  15.4064226600665943 0 0 0
234       15   3    0.0319320000000000   8.3726703916370688   16.1849880338137666  16.8156385384220606 0 0 0
235       15   3    0.0319320000000000   7.8956929482333376   17.9226963787599800  16.8775343499795234 0 0 0
236       15   1    0.0285690000000000   3.7574044687147077   14.5618747983378523  17.5103689402575569 0 0 0
237       15   1    0.0285690000000000   2.4955507602462377   15.1391361138730858  16.4194188414396223 0 0 0
238       15   1    0.0285690000000000   3.1192440201080349   16.2138369929367414  17.6769557301004525 0 0 0
239       15   2    0.1129350000000000   5.0221649728063449   16.4462914191665277  14.0313100283340404 0 0 0
240       15   2    0.1129350000000000   3.3006804822735663   15.8214930606807496  14.2532106085239665 0 0 0
241       16   8    0.0494510000000000   37.5474844136280268  25.1025986159750119 -35.9831251860270100 0 0 0
242       16   9   -0.1457430000000000   37.1842693928798340  26.0810882553253656 -36.9544985486877806 0 0 0
243       16   7    0.2941740000000000   38.2335245450676027  26.7088314222298138 -37.5471017472213191 0 0 0
244       16   10  -0.4278410000000000   39.4125384124681446  26.4893306348597797 -37.3206893930504577 0 0 0
245       16   4    0.1513400000000000   37.7597474536407773  27.7310860859644208 -38.5271910302521974 0 0 0
246       16   5   -0.0224980000000000   38.8375058206302555  28.5134168035191706 -39.2159142585917451 0 0 0
247       16   6   -0.3062560000000000   36.4536456240983924  27.9378939017147374 -38.7694234302539869 0 0 0
248       16   3    0.0319320000000000   36.6294384903265495  24.7531639609786183 -35.5024886515260576 0 0 0
249       16   3    0.0319320000000000   38.1945236096537712  25.5364313459897190 -35.2144311410557052 0 0 0
250       16   3    0.0319320000000000   38.0328264734123991  24.2502173549639082 -36.4676176676832569 0 0 0
251       16   1    0.0285690000000000   39.4852330271184329  29.0085867646433755 -38.4849100653238452 0 0 0
252       16   1    0.0285690000000000   38.4227900270383103  29.2921190304316923 -39.8656713958721909 0 0 0
253       16   1    0.0285690000000000   39.4522336623075063  27.8551475411789049 -39.8385968861194684 0 0 0
254       16   2    0.1129350000000000   35.6746604236120248  27.3690823381437873 -38.2702994525979605 0 0 0
255       16   2    0.1129350000000000   36.1222984463229011  28.6872343885137617 -39.4807609679419969 0 0 0
256       17   8    0.0494510000000000  -27.0449657446913001 -36.3997998741579920  24.7573198875986336 0 0 0
257       17   9   -0.1457430000000000  -27.4742484106580420 -36.9025429210754865  26.0206089110515357 0 0 0
258       17   7    0.2941740000000000  -26.6213095041059375 -37.7887095414725493  26.5979998977180507 0 0 0
259       17   10  -0.4278410000000000  -25.5544772780092693 -38.1547675338691477  26.1317516839260406 0 0 0
260       17   4    0.1513400000000000  -27.1627360400146003 -38.2800095699080956  27.9001235173767874 0 0 0
261       17   5   -0.0224980000000000  -26.3169186136349325 -39.2946117413021909  28.6094326527577323 0 0 0
262       17   6   -0.3062560000000000  -28.3331764308852243 -37.8443500414811425  28.3977358806772173 0 0 0
263       17   3    0.0319320000000000  -27.8563432945924951 -35.7920249950270559  24.3471972943247366 0 0 0
264       17   3    0.0319320000000000  -26.8417210249621370 -37.2181485708113371  24.0596393817881378 0 0 0
265       17   3    0.0319320000000000  -26.1632616735414345 -35.7643860099950430  24.8825829948860786 0 0 0
266       17   1    0.0285690000000000  -26.1260348249360455 -40.1593951996278875  27.9653644076018431 0 0 0
267       17   1    0.0285690000000000  -26.8031012379905071 -39.6651772969406267  29.5187501494821127 0 0 0
268       17   1    0.0285690000000000  -25.3564903723632895 -38.8575960561150353  28.9019002235553550 0 0 0
269       17   2    0.1129350000000000  -28.9436110112657055 -37.1083387205642765  27.8828123513469777 0 0 0
270       17   2    0.1129350000000000  -28.7178329827812178 -38.2128617498570975  29.3430092103408349 0 0 0