LAMMPS data file via vdw_self_gen.py, on 2021-08-05 13:22:52.641792

4500 atoms
6 atom types
4000 bonds
5 bond types
6000 angles
7 angle types
5000 dihedrals
4 dihedral types

-35.5615397925892793  35.5615397925892722 xlo xhi
-35.5615397925892793  35.5615397925892722 ylo yhi
-35.5615397925892793  35.5615397925892722 zlo zhi

Masses

1  1.007940
2  1.007940
3  12.011000
4  12.011000
5  14.006740
6  15.999400

Atoms

1         0    4    0.0365500000000000   11.2452106233326887  4.8127577399397801  -3.6121798535352507  0 0 0
2         0    3    0.2305960000000000   12.3462507120130525  4.0540067924086882  -4.2962439355768440  0 0 0
3         0    5   -0.6732320000000001   12.3074943895658926  2.7012693633896645  -4.1503442008225440  0 0 0
4         0    6   -0.3821910000000000   13.2303466147686652  4.5972925730674694  -4.9473108414050522  0 0 0
5         0    1    0.0285690000000000   10.5599987269881659  4.1426042079930365  -3.0855884243159304  0 0 0
6         0    1    0.0285690000000000   10.6787667578692993  5.3730730281083110  -4.3608799503854581  0 0 0
7         0    1    0.0285690000000000   11.6841784318252024  5.5032444475329498  -2.8869944924416724  0 0 0
8         0    2    0.3512850000000000   11.5966027560405465  2.2158961929307130  -3.6225411583130391  0 0 0
9         0    2    0.3512850000000000   13.0357703653642911  2.1613954472186578  -4.5994569357934765  0 0 0
10        1    4    0.0365500000000000  -26.5984967717217842 -27.9738388306766055  19.6946504516615732 0 0 0
11        1    3    0.2305960000000000  -27.9159451636735447 -27.3876297511469211  19.2743831614513041 0 0 0
12        1    5   -0.6732320000000001  -28.9062694061446521 -27.4369249737098606  20.2068611573345862 0 0 0
13        1    6   -0.3821910000000000  -28.1076412472664003 -26.8929728167614108  18.1701910362305661 0 0 0
14        1    1    0.0285690000000000  -26.6371192221334780 -28.3623842485920719  20.7161495447307189 0 0 0
15        1    1    0.0285690000000000  -25.8300591627973652 -27.1976712051251788  19.6453435744903224 0 0 0
16        1    1    0.0285690000000000  -26.3404045192538945 -28.7937019293876695  19.0189498324610717 0 0 0
17        1    2    0.3512850000000000  -28.7885953769365344 -27.8356834998282068  21.1270103526273125 0 0 0
18        1    2    0.3512850000000000  -29.8062476781972840 -27.0499712928970197  19.9541598519589520 0 0 0
19        2    4    0.0365500000000000  -27.9340929887995806  28.2653919570551793  10.9683312002950046 0 0 0
20        2    3    0.2305960000000000  -27.1300143634431166  27.7703201921612859  12.1363626456977869 0 0 0
21        2    5   -0.6732320000000001  -27.6868296777356697  26.7493858180592312  12.8437077146324139 0 0 0
22        2    6   -0.3821910000000000  -26.0427877376614489  28.2403499044116870  12.4489061696959933 0 0 0
23        2    1    0.0285690000000000  -28.8721636315566066  27.7135992995811584  10.8612426156784387 0 0 0
24        2    1    0.0285690000000000  -27.3491667801857261  28.1402099336292117  10.0531511626042764 0 0 0
25        2    1    0.0285690000000000  -28.1665360620240222  29.3232874361745601  11.1172802223419644 0 0 0
26        2    2    0.3512850000000000  -28.5796492591464784  26.3349160288410360  12.6187231156598259 0 0 0
27        2    2    0.3512850000000000  -27.1695380475722956  26.3933179782115914  13.6369145311620965 0 0 0
28        3    4    0.0365500000000000   2.9693970548037312  -4.1457524328903794   3.4762546750280214  0 0 0
29        3    3    0.2305960000000000   4.0462800912411145  -3.4152464286754096   4.2263345702653803  0 0 0
30        3    5   -0.6732320000000001   5.2147875920839368  -4.0942242976013912   4.3884043422242378  0 0 0
31        3    6   -0.3821910000000000   3.9030145153611007  -2.2828649603684061   4.6711494818889063  0 0 0
32        3    1    0.0285690000000000   3.2982779383077885  -5.1413468935428384   3.1655318612796073  0 0 0
33        3    1    0.0285690000000000   2.7030790167713388  -3.5720814509007024   2.5844362983718896  0 0 0
34        3    1    0.0285690000000000   2.0939614211376876  -4.2532492096987662   4.1223315531807181  0 0 0
35        3    2    0.3512850000000000   5.3724215371243416  -5.0277405151024315   4.0373643275057587  0 0 0
36        3    2    0.3512850000000000   5.9603206257582286  -3.6290336038089448   4.8897326828447429  0 0 0
37        4    4    0.0365500000000000   27.3736787976334597 -27.1568408564933570  4.8968164477431504  0 0 0
38        4    3    0.2305960000000000   28.1791360925383714 -27.4987073786191480  3.6760372814996871  0 0 0
39        4    5   -0.6732320000000001   27.6516624016731285 -28.4639003017185495  2.8742508612830360  0 0 0
40        4    6   -0.3821910000000000   29.2429095665091410 -26.9567307007119332  3.4015916634242256  0 0 0
41        4    1    0.0285690000000000   26.4590843387539749 -27.7533448037388837  4.9569799691448502  0 0 0
42        4    1    0.0285690000000000   27.0987271485923991 -26.0993319978926550  4.8588649712153620  0 0 0
43        4    1    0.0285690000000000   27.9761669276758163 -27.3508999824923720  5.7882801581512391  0 0 0
44        4    2    0.3512850000000000   26.7787368494618718 -28.9340740468620048  3.0652160690420818  0 0 0
45        4    2    0.3512850000000000   28.1706764252867750 -28.7169484795960379  2.0435023710856366  0 0 0
46        5    4    0.0365500000000000  -26.9423629704985323  26.8528265212332542 -12.1071426415981733 0 0 0
47        5    3    0.2305960000000000  -27.6772651814532296  28.1592764500022419 -12.2022387485290338 0 0 0
48        5    5   -0.6732320000000001  -28.6199302159028406  28.3753055685642899 -11.2444280210053673 0 0 0
49        5    6   -0.3821910000000000  -27.4581463140504098  28.9893979230534065 -13.0760570262776028 0 0 0
50        5    1    0.0285690000000000  -27.2870704583521508  26.2567672044829479 -11.2575488143296312 0 0 0
51        5    1    0.0285690000000000  -25.8744314450154462  27.0517856477700853 -11.9834444898453381 0 0 0
52        5    1    0.0285690000000000  -27.1086708600123281  26.2817242056352960 -13.0244987715739384 0 0 0
53        5    2    0.3512850000000000  -28.8301914172714859  27.7170289085427690 -10.5082268616949985 0 0 0
54        5    2    0.3512850000000000  -29.1327096855685141  29.2466661188406469 -11.2810340029137510 0 0 0
55        6    4    0.0365500000000000  -3.9900429475425869  -27.0201057519185888 -28.5633599594243393 0 0 0
56        6    3    0.2305960000000000  -3.5244149395210496  -27.5497442369985706 -27.2372341815027710 0 0 0
57        6    5   -0.6732320000000001  -4.2230580814434688  -28.6111064333421794 -26.7492839940681897 0 0 0
58        6    6   -0.3821910000000000  -2.5805000724788671  -27.0726759090034825 -26.6190888468113940 0 0 0
59        6    1    0.0285690000000000  -4.8448012879435582  -27.5848730564444793 -28.9459115296126477 0 0 0
60        6    1    0.0285690000000000  -3.1718726756467053  -27.0939769885512085 -29.2848196994543564 0 0 0
61        6    1    0.0285690000000000  -4.2869314666084621  -25.9744098143078546 -28.4461607635598739 0 0 0
62        6    2    0.3512850000000000  -5.0060503394788975  -29.0327008366410801 -27.2275217632412563 0 0 0
63        6    2    0.3512850000000000  -3.9338679819256743  -28.9911855209175044 -25.8573978104501236 0 0 0
64        7    4    0.0365500000000000  -4.5432863810436519  -12.7097882439662602 -3.5711990453970550  0 0 0
65        7    3    0.2305960000000000  -3.3429966323200304  -11.8967620561727649 -3.9639188980540965  0 0 0
66        7    5   -0.6732320000000001  -3.6083548051782151  -10.6568297801971692 -4.4587323256117468  0 0 0
67        7    6   -0.3821910000000000  -2.1927948779958606  -12.3038117658258521 -3.8542850582921702  0 0 0
68        7    1    0.0285690000000000  -5.4750218064573897  -12.1652444366250556 -3.7480062045151983  0 0 0
69        7    1    0.0285690000000000  -4.4776498062099863  -12.9528413938788702 -2.5072532214653775  0 0 0
70        7    1    0.0285690000000000  -4.5597890224716728  -13.6303264377157181 -4.1608561787163953  0 0 0
71        7    2    0.3512850000000000  -4.5410685719238888  -10.2849040183187874 -4.5647810779584308  0 0 0
72        7    2    0.3512850000000000  -2.8205778889885789  -10.0841112450673602 -4.7325077825787929  0 0 0
73        8    4    0.0365500000000000  -20.1698476029475238 -26.9947695637517846  26.8744570426795164 0 0 0
74        8    3    0.2305960000000000  -20.0915595424843048 -27.7758089845272096  28.1549976895875744 0 0 0
75        8    5   -0.6732320000000001  -18.9392094743124844 -28.4737260690758660  28.3491326953941218 0 0 0
76        8    6   -0.3821910000000000  -20.9937953423182400 -27.7968683280998157  28.9833696991016012 0 0 0
77        8    1    0.0285690000000000  -19.2620006546525033 -27.1094282971088418  26.2756357622156571 0 0 0
78        8    1    0.0285690000000000  -20.3012215663909394 -25.9351607104138679  27.1096881408724819 0 0 0
79        8    1    0.0285690000000000  -21.0213608524768176 -27.3523812551700019  26.2893096234447867 0 0 0
80        8    2    0.3512850000000000  -18.1731000423131697 -28.4823105624751811  27.6914604931727055 0 0 0
81        8    2    0.3512850000000000  -18.8556038850503924 -29.0103247775023689  29.2027274016564995 0 0 0
82        9    4    0.0365500000000000   3.5593192848530029  -28.5697411741768477 -3.4568744472921589  0 0 0
83        9    3    0.2305960000000000   3.9026259008907167  -27.1224544715091582 -3.6652916089320704  0 0 0
84        9    5   -0.6732320000000001   4.5214875787879603  -26.8278607720218751 -4.8412644457155602  0 0 0
85        9    6   -0.3821910000000000   3.6511249303659699  -26.2490303995784231 -2.8439812090240677  0 0 0
86        9    1    0.0285690000000000   3.8681643396787755  -29.1842823962893476 -4.3070940959913289  0 0 0
87        9    1    0.0285690000000000   2.4774637718080639  -28.6658699542618791 -3.3315284603853970  0 0 0
88        9    1    0.0285690000000000   4.0694929723537285  -28.9324777622747895 -2.5604909275658225  0 0 0
89        9    2    0.3512850000000000   4.7459124833463591  -27.5180181673512472 -5.5432945823807387  0 0 0
90        9    2    0.3512850000000000   4.7659485305046854  -25.8610434506613807 -5.0117200153021244  0 0 0
91        10   4    0.0365500000000000  -19.5160063703858953  27.2532626827760360 -28.6615575948754682 0 0 0
92        10   3    0.2305960000000000  -19.8003870401008122  28.2629977723515715 -27.5866163736115340 0 0 0
93        10   5   -0.6732320000000001  -20.0500233605900853  27.7517189541549598 -26.3501039334977847 0 0 0
94        10   6   -0.3821910000000000  -19.8117939142064294  29.4712633486764695 -27.7882033297654445 0 0 0
95        10   1    0.0285690000000000  -19.5540418484661735  26.2309086061077039 -28.2752092068539298 0 0 0
96        10   1    0.0285690000000000  -18.5176187486026009  27.4357628039737094 -29.0681034992119010 0 0 0
97        10   1    0.0285690000000000  -20.2625624386453538  27.3549390898978224 -29.4538166329304332 0 0 0
98        10   2    0.3512850000000000  -20.0499862171461807  26.7634303363827151 -26.1431844141135912 0 0 0
99        10   2    0.3512850000000000  -20.2452790248028371  28.4064949538039535 -25.6039835632648654 0 0 0
100       11   4    0.0365500000000000   18.8919483881109187  26.9698709568249058 -19.6828737172841102 0 0 0
101       11   3    0.2305960000000000   19.6612439812667823  28.2361777152134472 -19.9290188566033599 0 0 0
102       11   5   -0.6732320000000001   21.0047418621582551  28.1576253913228740 -19.7252289808697654 0 0 0
103       11   6   -0.3821910000000000   19.1338350714720740  29.2813681046428869 -20.2896987871699110 0 0 0
104       11   1    0.0285690000000000   19.5481958627485675  26.1536717834016912 -19.3681074644313576 0 0 0
105       11   1    0.0285690000000000   18.3855117462940285  26.6743645144737620 -20.6056746602041940 0 0 0
106       11   1    0.0285690000000000   18.1538394129740759  27.1474170285239147 -18.8960885042515550 0 0 0
107       11   2    0.3512850000000000   21.4770365438188975  27.3160035183776131 -19.4283444282989386 0 0 0
108       11   2    0.3512850000000000   21.5513460941028008  28.9942795353438427 -19.8826635638331908 0 0 0
109       12   4    0.0365500000000000  -3.8293277144668867   28.7496026467340435 -19.9088168914628341 0 0 0
110       12   3    0.2305960000000000  -3.8444534534220787   27.4233050054345675 -19.2040887706215209 0 0 0
111       12   5   -0.6732320000000001  -4.1983997921134097   26.3544784030127346 -19.9689541315069583 0 0 0
112       12   6   -0.3821910000000000  -3.5604244755492576   27.2903508802234711 -18.0198912107026246 0 0 0
113       12   1    0.0285690000000000  -4.1134609695258755   28.6512180463526036 -20.9602484852326612 0 0 0
114       12   1    0.0285690000000000  -2.8213383424463614   29.1699558733447759 -19.8575889628339368 0 0 0
115       12   1    0.0285690000000000  -4.5367084434413254   29.4232446851230520 -19.4177187886456011 0 0 0
116       12   2    0.3512850000000000  -4.4392554066998624   26.4221470941458563 -20.9471870291660522 0 0 0
117       12   2    0.3512850000000000  -4.2181711949242038   25.4464759137538472 -19.5232046927741933 0 0 0
118       13   4    0.0365500000000000   28.7638967343802427 -27.7277958258045949  11.8983531985270616 0 0 0
119       13   3    0.2305960000000000   27.3321370601004716 -28.1713255184325959  11.8020121768196802 0 0 0
120       13   5   -0.6732320000000001   26.4043377216968125 -27.1758691534355208  11.8327098973302789 0 0 0
121       13   6   -0.3821910000000000   26.9997734718340041 -29.3461326942087268  11.7018340078428835 0 0 0
122       13   1    0.0285690000000000   28.8448583894059496 -26.6403456053921666  11.9809174834234504 0 0 0
123       13   1    0.0285690000000000   29.2990420692034235 -28.0504553220473767  11.0012054793629694 0 0 0
124       13   1    0.0285690000000000   29.2191928411070982 -28.1798578296863340  12.7836236871607820 0 0 0
125       13   2    0.3512850000000000   26.6371793428090768 -26.1967520907609881  11.9142245460592093 0 0 0
126       13   2    0.3512850000000000   25.4303609175878762 -27.4422445083566338  11.7697389012414817 0 0 0
127       14   4    0.0365500000000000   19.1023165040846052 -27.6359910773023536 -26.7649953193945578 0 0 0
128       14   3    0.2305960000000000   19.5298625825467091 -27.4805267354919742 -28.1964180853226303 0 0 0
129       14   5   -0.6732320000000001   20.8184413193728837 -27.8258939944868438 -28.4665544072303582 0 0 0
130       14   6   -0.3821910000000000   18.7839743427209385 -27.0717134255584568 -29.0780050248304747 0 0 0
131       14   1    0.0285690000000000   19.9158011999639299 -28.0142191703275429 -26.1396108042227766 0 0 0
132       14   1    0.0285690000000000   18.2678033412531384 -28.3406458525363618 -26.7158716112596615 0 0 0
133       14   1    0.0285690000000000   18.7882872015433620 -26.6627910083782247 -26.3781805559850859 0 0 0
134       14   2    0.3512850000000000   21.4640588844036024 -28.1665709047657842 -27.7689533153256889 0 0 0
135       14   2    0.3512850000000000   21.1371535870572345 -27.7324263792774133 -29.4221894245537001 0 0 0
136       15   4    0.0365500000000000   5.0427683671374117   11.7656389912568216  4.1199404945116012  0 0 0
137       15   3    0.2305960000000000   3.7382115760423189   11.8451904512749309  3.3798465210077673  0 0 0
138       15   5   -0.6732320000000001   2.6284355532235839   11.9804172627719190  4.1562473360698027  0 0 0
139       15   6   -0.3821910000000000   3.6562898975741791   11.7937496161536348  2.1586521058227905  0 0 0
140       15   1    0.0285690000000000   4.8975775775737338   11.8304393202910454  5.2019017621099026  0 0 0
141       15   1    0.0285690000000000   5.6839724476952345   12.5928222931343186  3.8037304028462202  0 0 0
142       15   1    0.0285690000000000   5.5269225859247655   10.8128900063743316  3.8892404675593073  0 0 0
143       15   2    0.3512850000000000   2.6536556383907017   12.0266336286640367  5.1645915608898170  0 0 0
144       15   2    0.3512850000000000   1.7337061490273493   12.0368378078467764  3.6873891417720683  0 0 0
145       16   4    0.0365500000000000  -27.2349044573030667 -19.5581731284842952 -12.8580546664166313 0 0 0
146       16   3    0.2305960000000000  -27.2907621937522720 -19.7381576363586539 -11.3679468059568496 0 0 0
147       16   5   -0.6732320000000001  -28.5157816748511195 -20.0399589835826575 -10.8571331855999791 0 0 0
148       16   6   -0.3821910000000000  -26.3104565545777902 -19.6252330009700202 -10.6420528735362456 0 0 0
149       16   1    0.0285690000000000  -28.2162328267107441 -19.7013422161371601 -13.3189417201904483 0 0 0
150       16   1    0.0285690000000000  -26.5408657964095269 -20.2897290124786949 -13.2805473121257229 0 0 0
151       16   1    0.0285690000000000  -26.8880475896777789 -18.5460106199508168 -13.0829453240713764 0 0 0
152       16   2    0.3512850000000000  -29.3471958089007288 -20.1415975876738749 -11.4210039267817773 0 0 0
153       16   2    0.3512850000000000  -28.5865316459419141 -20.1674967773102125 -9.8559935630888198  0 0 0
154       17   4    0.0365500000000000  -11.2114145660158222 -27.5807111169527346  28.5582662509814149 0 0 0
155       17   3    0.2305960000000000  -12.1953389287105534 -27.1804868412044947  27.4963579106819331 0 0 0
156       17   5   -0.6732320000000001  -12.4681859087350428 -28.1291861728429851  26.5592285489392737 0 0 0
157       17   6   -0.3821910000000000  -12.7284981897551823 -26.0782460378310610  27.4578931951490759 0 0 0
158       17   1    0.0285690000000000  -10.8537242842235990 -28.6037542815648713  28.4121157181333217 0 0 0
159       17   1    0.0285690000000000  -11.6956449102725379 -27.5167259051989639  29.5364229747623419 0 0 0
160       17   1    0.0285690000000000  -10.3540539458118985 -26.9030979206846226  28.5246275624390613 0 0 0
161       17   2    0.3512850000000000  -12.0502922541230095 -29.0483617528068372  26.5558777978152953 0 0 0
162       17   2    0.3512850000000000  -13.1274663901201940 -27.8902085190383779  25.8299885892232446 0 0 0
163       18   4    0.0365500000000000   28.1626796972056930  12.1522361149246088  10.9132011126002233 0 0 0
164       18   3    0.2305960000000000   27.9929030513595158  11.6192198053007303  12.3071184163884357 0 0 0
165       18   5   -0.6732320000000001   26.7199036986200795  11.6262934059219987  12.7888963207170168 0 0 0
166       18   6   -0.3821910000000000   28.9251718973083669  11.2009869035777250  12.9828618287792210 0 0 0
167       18   1    0.0285690000000000   27.2091910333501552  12.4742639887267845  10.4853260736070251 0 0 0
168       18   1    0.0285690000000000   28.5822467843087757  11.3667227000939075  10.2789331531061059 0 0 0
169       18   1    0.0285690000000000   28.8410242307341456  13.0093034493945741  10.9385529609866960 0 0 0
170       18   2    0.3512850000000000   25.9252873383499960  11.9621808755164114  12.2642111497234314 0 0 0
171       18   2    0.3512850000000000   26.5723708168882169  11.2734121343110569  13.7255183618596348 0 0 0
172       19   4    0.0365500000000000  -2.8791875608883206  -27.4519114898521543 -3.7633836007402004  0 0 0
173       19   3    0.2305960000000000  -4.1542159665036786  -27.6713532319018327 -4.5263277876373813  0 0 0
174       19   5   -0.6732320000000001  -5.2554539824147142  -27.9312529428616969 -3.7697471180750957  0 0 0
175       19   6   -0.3821910000000000  -4.2204306739360922  -27.6239509762151449 -5.7486377971175635  0 0 0
176       19   1    0.0285690000000000  -3.0348248154422448  -27.5369667088721322 -2.6842810628354932  0 0 0
177       19   1    0.0285690000000000  -2.4990272987468050  -26.4506692469871396 -3.9832832507879372  0 0 0
178       19   1    0.0285690000000000  -2.1454852590468789  -28.2021147212932384 -4.0703599548913347  0 0 0
179       19   2    0.3512850000000000  -5.2425262925290070  -27.9787842543929877 -2.7612315107797425  0 0 0
180       19   2    0.3512850000000000  -6.1303879430815202  -28.0837749757486037 -4.2542877097245144  0 0 0
181       20   4    0.0365500000000000  -10.9834410943445100  3.8246919592954538  -19.0826622085510351 0 0 0
182       20   3    0.2305960000000000  -11.8067442620672498  3.7731090612558669  -20.3378303424070452 0 0 0
183       20   5   -0.6732320000000001  -13.0737255003654145  4.2589335047073291  -20.2309636546809983 0 0 0
184       20   6   -0.3821910000000000  -11.3850414234248234  3.3273007099085281  -21.3980636895292164 0 0 0
185       20   1    0.0285690000000000  -11.5442853104056020  4.2576149626566675  -18.2496249518382747 0 0 0
186       20   1    0.0285690000000000  -10.0962967474227909  4.4379623937501744  -19.2622116219406223 0 0 0
187       20   1    0.0285690000000000  -10.6826884154174326  2.8093522398398614  -18.8106483882881257 0 0 0
188       20   2    0.3512850000000000  -13.4583992026870494  4.6344270799783596  -19.3762351606126622 0 0 0
189       20   2    0.3512850000000000  -13.6539974216329565  4.2381478811970403  -21.0594589450983847 0 0 0
190       21   4    0.0365500000000000   12.0339311718860333  12.5390049096697709  12.7057244588595921 0 0 0
191       21   3    0.2305960000000000   11.3607570949866972  11.4949361317881618  11.8615129955143175 0 0 0
192       21   5   -0.6732320000000001   11.9837069864838366  11.1946248854281460  10.6891504556004016 0 0 0
193       21   6   -0.3821910000000000   10.3195412541099714  10.9381985273605178  12.1879880069984043 0 0 0
194       21   1    0.0285690000000000   12.9491238406489213  12.9096280914158381  12.2356388615530172 0 0 0
195       21   1    0.0285690000000000   12.2911944857524205  12.1034229318267563  13.6749755294377167 0 0 0
196       21   1    0.0285690000000000   11.3493988384662838  13.3796195548515957  12.8476432420024356 0 0 0
197       21   2    0.3512850000000000   12.8420163130672478  11.6304370447225942  10.3843506153592635 0 0 0
198       21   2    0.3512850000000000   11.5549493923664102  10.4947473007044252  10.0976352124426665 0 0 0
199       22   4    0.0365500000000000  -26.7073320096758273  20.3237695321585861  19.7495249827157160 0 0 0
200       22   3    0.2305960000000000  -28.1261845351151649  19.9575562940057800  19.4198564812538947 0 0 0
201       22   5   -0.6732320000000001  -28.5983881972075089  18.8316835390854678  20.0216218659635388 0 0 0
202       22   6   -0.3821910000000000  -28.8292193710927798  20.6149480053879763  18.6620627904594194 0 0 0
203       22   1    0.0285690000000000  -26.2567404898342289  19.6086446956622389  20.4434150194455349 0 0 0
204       22   1    0.0285690000000000  -26.6921188199581572  21.3148015515118310  20.2110310015012047 0 0 0
205       22   1    0.0285690000000000  -26.1180807456827679  20.3351902499377921  18.8286498808218781 0 0 0
206       22   2    0.3512850000000000  -28.0514510710223384  18.2630238685594648  20.6517139544851638 0 0 0
207       22   2    0.3512850000000000  -29.5512633085361642  18.5580812266372774  19.8198229863000748 0 0 0
208       23   4    0.0365500000000000  -28.5954170572779880  12.4411217173316100 -19.8322608648386343 0 0 0
209       23   3    0.2305960000000000  -27.6930888388492420  11.2547340517000194 -19.6472634630610514 0 0 0
210       23   5   -0.6732320000000001  -26.3591387620182545  11.5103782053061892 -19.7362049958205255 0 0 0
211       23   6   -0.3821910000000000  -28.1096126156993869  10.1234035469711721 -19.4298414011895382 0 0 0
212       23   1    0.0285690000000000  -28.0259889891017160  13.3565673767276998 -20.0156472123836373 0 0 0
213       23   1    0.0285690000000000  -29.1950841009395745  12.5783207040734055 -18.9284137623466329 0 0 0
214       23   1    0.0285690000000000  -29.2515965758598888  12.2609584823991362 -20.6880225643626829 0 0 0
215       23   2    0.3512850000000000  -25.9761766569206038  12.4275928890392908 -19.9139332459766081 0 0 0
216       23   2    0.3512850000000000  -25.7246749514582937  10.7315424042192991 -19.6161114529670471 0 0 0
217       24   4    0.0365500000000000  -19.8422784802107053 -20.3747227549705414  4.8666431121222553  0 0 0
218       24   3    0.2305960000000000  -19.9105363700470299 -19.1668187120092561  3.9765618635427242  0 0 0
219       24   5   -0.6732320000000001  -19.5224304164535205 -19.3634838968730953  2.6868394473431141  0 0 0
220       24   6   -0.3821910000000000  -20.2876078927760695 -18.0681217482997525  4.3656057804497026  0 0 0
221       24   1    0.0285690000000000  -19.4803954237218733 -21.2540901022931514  4.3265751955699949  0 0 0
222       24   1    0.0285690000000000  -20.8417358774763777 -20.5899972887723628  5.2540776176161854  0 0 0
223       24   1    0.0285690000000000  -19.1601002446173183 -20.1693370781020000  5.6959850300426886  0 0 0
224       24   2    0.3512850000000000  -19.2056619185189845 -20.2523569143697095  2.3275449186027761  0 0 0
225       24   2    0.3512850000000000  -19.5569523391245106 -18.5687704672565239  2.0617068272998265  0 0 0
226       25   4    0.0365500000000000  -10.8700631649350559 -28.1670563391756126  11.8139446128537422 0 0 0
227       25   3    0.2305960000000000  -11.8733988808225188 -27.0596974008663373  11.9656336650993413 0 0 0
228       25   5   -0.6732320000000001  -13.1772889147071339 -27.4233658494743544  11.8231437495844851 0 0 0
229       25   6   -0.3821910000000000  -11.5601256928429095 -25.8992449718219575  12.2020299218761767 0 0 0
230       25   1    0.0285690000000000  -11.3546824503086494 -29.1250808739653380  11.6059716059876674 0 0 0
231       25   1    0.0285690000000000  -10.2972634143070998 -28.2596294715737386  12.7406022469012594 0 0 0
232       25   1    0.0285690000000000  -10.1976677282867811 -27.9289530844094607  10.9853616930175093 0 0 0
233       25   2    0.3512850000000000  -13.4762958956024690 -28.3678948239999258  11.6282337124968418 0 0 0
234       25   2    0.3512850000000000  -13.8778332359552188 -26.6998557328382375  11.9196981699507969 0 0 0
235       26   4    0.0365500000000000   12.9419948349757625 -27.6714512439430607  3.7430851200501887  0 0 0
236       26   3    0.2305960000000000   11.5101218677341190 -27.2195597982728934  3.7047462023195887  0 0 0
237       26   5   -0.6732320000000001   10.6348629251974174 -27.9760473343111045  4.4219182376977031  0 0 0
238       26   6   -0.3821910000000000   11.1337732510163363 -26.2379417044022496  3.0758894960021754  0 0 0
239       26   1    0.0285690000000000   13.0665339730521559 -28.5659636506043029  4.3597350937113406  0 0 0
240       26   1    0.0285690000000000   13.5582504741682666 -26.8708918896533575  4.1610533213797716  0 0 0
241       26   1    0.0285690000000000   13.2719033561953861 -27.8999648570402847  2.7260795475699151  0 0 0
242       26   2    0.3512850000000000   10.9049202453785021 -28.7914080025281223  4.9527535280103265  0 0 0
243       26   2    0.3512850000000000   9.6622584500498689  -27.6975500673695691  4.4162792458482780  0 0 0
244       27   4    0.0365500000000000   12.7628427203271535  20.0822183395088665  12.3971180589725947 0 0 0
245       27   3    0.2305960000000000   11.8029028843476684  19.8826471463727898  11.2593031373926653 0 0 0
246       27   5   -0.6732320000000001   10.6560077197395238  19.2172257929799564  11.5667657218599835 0 0 0
247       27   6   -0.3821910000000000   12.0185729248465769  20.2842365558232096  10.1222519070391375 0 0 0
248       27   1    0.0285690000000000   12.3824906516918904  19.6495552857299067  13.3266634416083960 0 0 0
249       27   1    0.0285690000000000   12.9189646482212250  21.1536096091908234  12.5491391127116110 0 0 0
250       27   1    0.0285690000000000   13.7132436694829494  19.6008553461083146  12.1513821384639797 0 0 0
251       27   2    0.3512850000000000   10.4410592808366260  18.8706565249017686  12.4904631787888931 0 0 0
252       27   2    0.3512850000000000   9.9885348782741836   19.0666943623307752  10.8215326809305594 0 0 0
253       28   4    0.0365500000000000  -26.5573784860056925 -4.0590235709585825   4.0007221205281853  0 0 0
254       28   3    0.2305960000000000  -27.9254406401275013 -3.8793560764839170   3.4073744319940436  0 0 0
255       28   5   -0.6732320000000001  -28.9549860994229249 -3.8593966049033908   4.2975008857849755  0 0 0
256       28   6   -0.3821910000000000  -28.1235206114876135 -3.7570446491872849   2.2046785600884951  0 0 0
257       28   1    0.0285690000000000  -26.5984586498880233 -4.1490652059625086   5.0898155768950932  0 0 0
258       28   1    0.0285690000000000  -25.9405594244212701 -3.1932359615595760   3.7451643568479041  0 0 0
259       28   1    0.0285690000000000  -26.1072418970932318 -4.9677609302750012   3.5921491144388562  0 0 0
260       28   2    0.3512850000000000  -28.8336207836710514 -3.9568233146014649   5.2951524167665269  0 0 0
261       28   2    0.3512850000000000  -29.8895719560076358 -3.7398334786575340   3.9289823292452026  0 0 0
262       29   4    0.0365500000000000  -19.7628788015624082 -27.4563234236935472  12.9430934031548333 0 0 0
263       29   3    0.2305960000000000  -19.2917271790200857 -27.4526510767988441  11.5169312075950021 0 0 0
264       29   5   -0.6732320000000001  -20.1008601313652768 -28.0915066320312725  10.6281934611377906 0 0 0
265       29   6   -0.3821910000000000  -18.2512296071756204 -26.9160372072771992  11.1562603346058022 0 0 0
266       29   1    0.0285690000000000  -20.7124176370172925 -27.9875467832194111  13.0530814700395705 0 0 0
267       29   1    0.0285690000000000  -19.8997360067060001 -26.4242134040355765  13.2768339050749766 0 0 0
268       29   1    0.0285690000000000  -19.0124042801672388 -27.9503634288727341  13.5660467755826861 0 0 0
269       29   2    0.3512850000000000  -20.9653911764091134 -28.5454615779535033  10.8851780134519966 0 0 0
270       29   2    0.3512850000000000  -19.8110541435233607 -28.1066750142428532  9.6590008071251461  0 0 0
271       30   4    0.0365500000000000   12.7181641875271794 -26.9708767008322177  19.6724851417232429 0 0 0