LAMMPS data file via vdw_self_gen.py, on 2021-08-05 13:24:21.425849

7500 atoms
5 atom types
7000 bonds
4 bond types
12500 angles
5 angle types
15000 dihedrals
3 dihedral types

-42.0090884008744609  42.0090884008744681 xlo xhi
-42.0090884008744609  42.0090884008744681 ylo yhi
-42.0090884008744609  42.0090884008744681 zlo zhi

Masses

1  1.007940
2  1.007940
3  12.011000
4  12.011000
5  15.999400

Atoms

1         0    4   -0.1910640000000000  -33.4848967897083796  13.7090057829932892  31.5163417807065294 0 0 0
2         0    3    0.6358650000000000  -32.6121492868308991  14.2390013447557919  32.6531447944838362 0 0 0
3         0    4   -0.1910640000000000  -33.1928607720539688  13.8505385659648521  34.0121113002609405 0 0 0
4         0    4   -0.1910640000000000  -31.1801737708626909  13.7267195977795691  32.5146359673912571 0 0 0
5         0    5   -0.7223670000000000  -32.5695790318991456  15.6638887288556283  32.5673654051868056 0 0 0
6         0    1    0.0285690000000000  -33.5398694711562513  12.6155760003454844  31.5262267548191844 0 0 0
7         0    1    0.0285690000000000  -33.0943145047970049  14.0290065102015209  30.5436440716007596 0 0 0
8         0    1    0.0285690000000000  -34.5034661040335990  14.1073697279166907  31.5867795638922786 0 0 0
9         0    1    0.0285690000000000  -33.2343732223519481  12.7636171026227601  34.1371522019553240 0 0 0
10        0    1    0.0285690000000000  -34.2054178739407604  14.2518184069902514  34.1340027417376035 0 0 0
11        0    1    0.0285690000000000  -32.5931325660635451  14.2718941454002284  34.8269036478061267 0 0 0
12        0    1    0.0285690000000000  -31.1344084707328612  12.6342496379442615  32.5712243536685548 0 0 0
13        0    1    0.0285690000000000  -30.5394116184447242  14.1421617037693395  33.3008736100283187 0 0 0
14        0    1    0.0285690000000000  -30.7430320181222037  14.0434957469512174  31.5607477492928474 0 0 0
15        0    2    0.4025730000000000  -33.4789458425374207  15.9970990018815282  32.6548774007050540 0 0 0
16        1    4   -0.1910640000000000  -24.2843701374933438  33.5369910534027440 -4.0014259845548956  0 0 0
17        1    3    0.6358650000000000  -23.1553458778469228  32.8193300117722799 -4.7397832435127230  0 0 0
18        1    4   -0.1910640000000000  -22.7116818926223232  31.5722510047680949 -3.9763205123305889  0 0 0
19        1    4   -0.1910640000000000  -23.5876224779967956  32.4551845932978438 -6.1584820194926468  0 0 0
20        1    5   -0.7223670000000000  -22.0427468120639389  33.7085792846829264 -4.8438670417078216  0 0 0
21        1    1    0.0285690000000000  -25.1715389438682635  32.9024439915545130 -3.9066107257877123  0 0 0
22        1    1    0.0285690000000000  -24.5689035459279559  34.4570411793668967 -4.5245362264713913  0 0 0
23        1    1    0.0285690000000000  -23.9654739191556594  33.8383128690864439 -2.9971107315974375  0 0 0
24        1    1    0.0285690000000000  -23.5263047815741757  30.8470389744365328 -3.8803317736259295  0 0 0
25        1    1    0.0285690000000000  -22.3603645921328962  31.8330669595364775 -2.9714791760913375  0 0 0
26        1    1    0.0285690000000000  -21.8698538140103445  31.0851332112854841 -4.4814370893037676  0 0 0
27        1    1    0.0285690000000000  -24.4424101336398287  31.7709883186351014 -6.1575639792368744  0 0 0
28        1    1    0.0285690000000000  -22.7652695448819209  31.9825133213668238 -6.7077136939147302  0 0 0
29        1    1    0.0285690000000000  -23.8617832639690306  33.3523985849898210 -6.7252144871061024  0 0 0
30        1    2    0.4025730000000000  -21.7620669367704522  33.9447579853534265 -3.9432706500568022  0 0 0
31        2    4   -0.1910640000000000  -23.3040080301812296 -31.9129130701306600 -3.4413158243119861  0 0 0
32        2    3    0.6358650000000000  -23.5385411859446769 -32.8138133609486360 -4.6530408163178931  0 0 0
33        2    4   -0.1910640000000000  -23.4116753458901954 -32.0214942647685135 -5.9534463806921725  0 0 0
34        2    4   -0.1910640000000000  -22.5652399126056196 -33.9905767548692452 -4.6438916171717448  0 0 0
35        2    5   -0.7223670000000000  -24.8604954851072186 -33.3481834275674984 -4.5732921459376321  0 0 0
36        2    1    0.0285690000000000  -22.2955030890104702 -31.4867509625734456 -3.4447856537843804  0 0 0
37        2    1    0.0285690000000000  -23.4427782198147128 -32.4709096996619877 -2.5083214964081284  0 0 0
38        2    1    0.0285690000000000  -24.0274146276696712 -31.0898924464554227 -3.4198983147598470  0 0 0
39        2    1    0.0285690000000000  -22.4081224056637609 -31.6003210817025675 -6.0728257094261426  0 0 0
40        2    1    0.0285690000000000  -24.1373026741826280 -31.2007035487462510 -5.9838190629388261  0 0 0
41        2    1    0.0285690000000000  -23.6275506906364647 -32.6572416926378253 -6.8196588595264593  0 0 0
42        2    1    0.0285690000000000  -21.5247094248564501 -33.6550294329925208 -4.7029815498662089  0 0 0
43        2    1    0.0285690000000000  -22.7607322923673188 -34.6651416465225424 -5.4853682041923770  0 0 0
44        2    1    0.0285690000000000  -22.6856788460800445 -34.5894368690067466 -3.7338345858276858  0 0 0
45        2    2    0.4025730000000000  -25.4859844439433978 -32.6036230849515647 -4.5786671136292734  0 0 0
46        3    4   -0.1910640000000000  -22.5359444944247045  12.8127764752542141  23.4913003446492539 0 0 0
47        3    3    0.6358650000000000  -23.4942011205570829  13.9547790459302608  23.1559215163927909 0 0 0
48        3    4   -0.1910640000000000  -24.1495581362210849  14.5053146257517742  24.4217559766483845 0 0 0
49        3    4   -0.1910640000000000  -22.7643133343069373  15.0647371555326561  22.4026433631115900 0 0 0
50        3    5   -0.7223670000000000  -24.5174741807357677  13.4520103224021135  22.2959155614399052 0 0 0
51        3    1    0.0285690000000000  -21.7197428072745780  13.1483347086156481  24.1393156808232163 0 0 0
52        3    1    0.0285690000000000  -22.1032308062767022  12.3866799708822750  22.5789975149641933 0 0 0
53        3    1    0.0285690000000000  -23.0634448862315899  11.9945648647302718  23.9947006416767792 0 0 0
54        3    1    0.0285690000000000  -23.4077950724218020  14.9189644623977067  25.1127249686631409 0 0 0
55        3    1    0.0285690000000000  -24.7103253410139665  13.7219915757407787  24.9443457395123929 0 0 0
56        3    1    0.0285690000000000  -24.8725204788634571  15.2914225251790832  24.1758681229852854 0 0 0
57        3    1    0.0285690000000000  -21.9601498539819566  15.5005479653690639  23.0044550913467170 0 0 0
58        3    1    0.0285690000000000  -23.4576874667134589  15.8646056039645824  22.1184239270896761 0 0 0
59        3    1    0.0285690000000000  -22.3326394329939859  14.6845089494196817  21.4696766287092515 0 0 0
60        3    2    0.4025730000000000  -24.9867092619367916  12.7442037532023118  22.7696915959413246 0 0 0
61        4    4   -0.1910640000000000   4.8705725340982111   5.6259951395162817   22.2779809682951218 0 0 0
62        4    3    0.6358650000000000   4.5565271083399672   4.7907316867950271   23.5183901856538427 0 0 0
63        4    4   -0.1910640000000000   3.8767633106494341   3.4776132570015883   23.1329549873569533 0 0 0
64        4    4   -0.1910640000000000   5.8276455727393177   4.5221706426336823   24.3210756637970604 0 0 0
65        4    5   -0.7223670000000000   3.6687536216663887   5.5340657139207954   24.3543250802936271 0 0 0
66        4    1    0.0285690000000000   5.5624207090301665   5.1068559212577336   21.6067515195153170 0 0 0
67        4    1    0.0285690000000000   5.3139086134029245   6.5882720806491735   22.5582879952328206 0 0 0
68        4    1    0.0285690000000000   3.9558698631831555   5.8576495896966385   21.7204919535759942 0 0 0
69        4    1    0.0285690000000000   4.5227626333839375   2.8593378085275756   22.5011503316754542 0 0 0
70        4    1    0.0285690000000000   2.9415680862785836   3.6649758520135327   22.5930845684559394 0 0 0
71        4    1    0.0285690000000000   3.6083256778563984   2.9011975519921829   24.0255843546304000 0 0 0
72        4    1    0.0285690000000000   6.5598791418172526   3.9521850299831018   23.7399235985105861 0 0 0
73        4    1    0.0285690000000000   5.6003907315767414   3.9637217999431660   25.2364051330953032 0 0 0
74        4    1    0.0285690000000000   6.2932920656431426   5.4616460006249365   24.6402968546249426 0 0 0
75        4    2    0.4025730000000000   2.8564676651251832   5.7087292602353843   23.8490334792405640 0 0 0
76        5    4   -0.1910640000000000  -24.4924081041725614 -32.8715064848226461 -22.4939275215604511 0 0 0
77        5    3    0.6358650000000000  -23.3726813387821899 -32.4574667001434563 -23.4477029767757834 0 0 0
78        5    4   -0.1910640000000000  -22.0049427046162478 -32.6253788845290487 -22.7873881652315191 0 0 0
79        5    4   -0.1910640000000000  -23.4459471104544939 -33.2621251768176975 -24.7435918703224331 0 0 0
80        5    5   -0.7223670000000000  -23.5486996741156354 -31.0810603906924712 -23.7853382896948524 0 0 0
81        5    1    0.0285690000000000  -24.4136458239774292 -33.9269035735363929 -22.2134959142958230 0 0 0
82        5    1    0.0285690000000000  -25.4746367943743550 -32.7051977828639266 -22.9507251088978634 0 0 0
83        5    1    0.0285690000000000  -24.4704922404552185 -32.2678752531147737 -21.5794397999237049 0 0 0
84        5    1    0.0285690000000000  -21.8114065607228014 -33.6694380990737443 -22.5204782635209071 0 0 0
85        5    1    0.0285690000000000  -21.9317444458419679 -32.0166735924857164 -21.8789417984872472 0 0 0
86        5    1    0.0285690000000000  -21.2056283241877814 -32.2828008008627023 -23.4543497779438006 0 0 0
87        5    1    0.0285690000000000  -23.3183950686012089 -34.3342080399452527 -24.5615036156015982 0 0 0
88        5    1    0.0285690000000000  -22.6738233170745040 -32.9357041550104555 -25.4497165578379061 0 0 0
89        5    1    0.0285690000000000  -24.4081603461167305 -33.1072962934753576 -25.2451060568609300 0 0 0
90        5    2    0.4025730000000000  -23.5031248204607266 -30.5623961161617714 -22.9640309569990499 0 0 0
91        6    4   -0.1910640000000000   4.4838235622561307  -13.1303941914464488 -15.1382380425034881 0 0 0
92        6    3    0.6358650000000000   4.8777322486400809  -14.1217111114061993 -14.0441487854532365 0 0 0
93        6    4   -0.1910640000000000   4.7720233025538263  -13.4780827880446115 -12.6623067816466950 0 0 0
94        6    4   -0.1910640000000000   4.0115484407986850  -15.3771790425741113 -14.1196275681829064 0 0 0
95        6    5   -0.7223670000000000   6.2324004212257389  -14.5201001065495667 -14.2577716735810984 0 0 0
96        6    1    0.0285690000000000   3.4448380210988576  -12.8024307213700599 -15.0302685766272841 0 0 0
97        6    1    0.0285690000000000   4.6062179329150617  -13.5773635719246428 -16.1313814414877186 0 0 0
98        6    1    0.0285690000000000   5.1301502894059849  -12.2455849528102387 -15.1155855592891299 0 0 0
99        6    1    0.0285690000000000   3.7463177927779241  -13.1661423015638537 -12.4400949048050080 0 0 0
100       6    1    0.0285690000000000   5.4242918736848562  -12.6004328875253950 -12.5886095487725473 0 0 0
101       6    1    0.0285690000000000   5.1008201788228735  -14.1740542857394693 -11.8821674969339526 0 0 0
102       6    1    0.0285690000000000   2.9523758011843699  -15.1475039989152798 -13.9640961722759833 0 0 0
103       6    1    0.0285690000000000   4.3217533379346804  -16.1110399813164378 -13.3669264625100830 0 0 0
104       6    1    0.0285690000000000   4.1208272298049984  -15.8686208183362538 -15.0932218885284293 0 0 0
105       6    2    0.4025730000000000   6.7900269016867352  -13.7248012448497470 -14.2109971017747370 0 0 0
106       7    4   -0.1910640000000000   4.6712623444492714   12.7102371106850445 -32.0313431767407053 0 0 0
107       7    3    0.6358650000000000   4.7317850222418087   14.1632978633288520 -32.5002312721313018 0 0 0
108       7    4   -0.1910640000000000   5.5257400834390484   14.2834235672801064 -33.8002790787328493 0 0 0
109       7    4   -0.1910640000000000   3.3246399057848421   14.7301019486595539 -32.6758641616587084 0 0 0
110       7    5   -0.7223670000000000   5.3855977917813247   14.9386716969273650 -31.4948464362809659 0 0 0
111       7    1    0.0285690000000000   4.1640119467333587   12.0715620834619877 -32.7617537747050918 0 0 0
112       7    1    0.0285690000000000   4.1433234860033092   12.6314160720527244 -31.0741788096585942 0 0 0
113       7    1    0.0285690000000000   5.6780422322552750   12.3112757273210924 -31.8629304869169800 0 0 0
114       7    1    0.0285690000000000   5.0579155241399310   13.7173144708084980 -34.6123243057422130 0 0 0
115       7    1    0.0285690000000000   6.5501416614110362   13.9168889483568279 -33.6683370494954630 0 0 0
116       7    1    0.0285690000000000   5.6097885194192987   15.3313163840981961 -34.1100491868297055 0 0 0
117       7    1    0.0285690000000000   2.7598597968888532   14.1814228578477195 -33.4366282546608176 0 0 0
118       7    1    0.0285690000000000   3.3628944642247047   15.7862494467575587 -32.9664273408812463 0 0 0
119       7    1    0.0285690000000000   2.7671374660107393   14.6893820546240015 -31.7330621181863499 0 0 0
120       7    2    0.4025730000000000   6.2830070900079980   14.5828817721628976 -31.3777758909144211 0 0 0
121       8    4   -0.1910640000000000   33.0473780703493816 -22.7611522505885162 -31.4044091419662124 0 0 0
122       8    3    0.6358650000000000   32.8570294822426376 -23.2854093113434253 -32.8270217177064865 0 0 0
123       8    4   -0.1910640000000000   32.4447418978136213 -24.7567298592137064 -32.8146154072002005 0 0 0
124       8    4   -0.1910640000000000   31.8251214158632578 -22.4447051141225487 -33.5757228310463702 0 0 0
125       8    5   -0.7223670000000000   34.0971706196326778 -23.1665691895529129 -33.5251630876350717 0 0 0
126       8    1    0.0285690000000000   32.1188067135533828 -22.8156001949356657 -30.8269153717016202 0 0 0
127       8    1    0.0285690000000000   33.3897841505798070 -21.7201273649684410 -31.4154129477147812 0 0 0
128       8    1    0.0285690000000000   33.8176393594686218 -23.3344344372006596 -30.8760306384315051 0 0 0
129       8    1    0.0285690000000000   31.4883517184130923 -24.9032623751358742 -32.3021675321692427 0 0 0
130       8    1    0.0285690000000000   33.2025809793065676 -25.3711579403789322 -32.3153029013107940 0 0 0
131       8    1    0.0285690000000000   32.3555301231142423 -25.1449602138622978 -33.8356048615945255 0 0 0
132       8    1    0.0285690000000000   30.8425505540631164 -22.4879578106984965 -33.0946084713768300 0 0 0
133       8    1    0.0285690000000000   31.7198582994315501 -22.7875533500223142 -34.6114412645791134 0 0 0
134       8    1    0.0285690000000000   32.1400492050510849 -21.3961782211173279 -33.6282072624721380 0 0 0
135       8    2    0.4025730000000000   34.7594387546523720 -23.6999390408127404 -33.0534079066305395 0 0 0
136       9    4   -0.1910640000000000   3.2491878957642175   14.1212313241094769 -23.0977350585082668 0 0 0
137       9    3    0.6358650000000000   4.7591650224635815   14.2277606155675294 -23.3063619462916094 0 0 0
138       9    4   -0.1910640000000000   5.4936522585784582   13.1281104717528141 -22.5407137342564745 0 0 0
139       9    4   -0.1910640000000000   5.1015363353902083   14.1674697922511985 -24.7934120673395704 0 0 0
140       9    5   -0.7223670000000000   5.1978373199130390   15.4948278505630093 -22.8148524092006895 0 0 0
141       9    1    0.0285690000000000   2.8563725883885249   13.1704458857929687 -23.4724503938985194 0 0 0
142       9    1    0.0285690000000000   2.7268307237907252   14.9386996579008393 -23.6076216421092049 0 0 0
143       9    1    0.0285690000000000   2.9941088180551612   14.2063948774714355 -22.0352753673698807 0 0 0
144       9    1    0.0285690000000000   5.2043835545521224   12.1314799918604255 -22.8897238795537028 0 0 0
145       9    1    0.0285690000000000   5.2848413948780761   13.1927959419835812 -21.4667636739455965 0 0 0
146       9    1    0.0285690000000000   6.5787886526419905   13.2342846744897287 -22.6516509234762360 0 0 0
147       9    1    0.0285690000000000   4.7922907442102689   13.2174159715138870 -25.2412426417069327 0 0 0
148       9    1    0.0285690000000000   6.1791464345653875   14.2910066268196072 -24.9509970753844179 0 0 0
149       9    1    0.0285690000000000   4.6142414732844790   14.9834523735786291 -25.3393597916095601 0 0 0
150       9    2    0.4025730000000000   4.9827641183145790   15.5400659487172881 -21.8675760693032011 0 0 0
151       10   4   -0.1910640000000000   4.1578594209910582   13.8778477129996727  24.6831533616231695 0 0 0
152       10   3    0.6358650000000000   4.6544666980622624   13.7786792984111131  23.2414698216921956 0 0 0
153       10   4   -0.1910640000000000   4.0424818138749181   14.8805828899544821  22.3776399195297273 0 0 0
154       10   4   -0.1910640000000000   6.1794954358430418   13.8428184945279256  23.1930479850451690 0 0 0
155       10   5   -0.7223670000000000   4.2599692276432446   12.5129292385569588  22.7106940503798533 0 0 0
156       10   1    0.0285690000000000   4.4473747258679852   14.8273568147359907  25.1450210396023870 0 0 0
157       10   1    0.0285690000000000   4.5591995558894265   13.0587247368902819  25.2906560086375336 0 0 0
158       10   1    0.0285690000000000   3.0663443928674852   13.7898862916255496  24.7278355026892740 0 0 0
159       10   1    0.0285690000000000   4.3266668882184582   15.8763805709741934  22.7331432248534959 0 0 0
160       10   1    0.0285690000000000   2.9485807549624976   14.8132977331675413  22.3747938895833052 0 0 0
161       10   1    0.0285690000000000   4.3611795182718023   14.7796398458882088  21.3339238230423760 0 0 0
162       10   1    0.0285690000000000   6.5568923413612978   14.7920965457598115  23.5870404703220231 0 0 0
163       10   1    0.0285690000000000   6.5425501125367651   13.7245485638818252  22.1656525230463330 0 0 0
164       10   1    0.0285690000000000   6.6229863484099187   13.0253994213534803  23.7731209481982759 0 0 0
165       10   2    0.4025730000000000   3.2891000999906490   12.4652538456453659  22.7385441057087796 0 0 0
166       11   4   -0.1910640000000000  -22.2415797137560958 -3.7629139003211916   4.9175187587635882  0 0 0
167       11   3    0.6358650000000000  -23.2389803716180197 -4.8911252871094026   4.6582205022750092  0 0 0
168       11   4   -0.1910640000000000  -24.4481631172844018 -4.7727363316169464   5.5849244820873896  0 0 0
169       11   4   -0.1910640000000000  -23.6806547176684035 -4.8921884509498499   3.1963402734177917  0 0 0
170       11   5   -0.7223670000000000  -22.5912613991302322 -6.1381457223583213   4.9129253399812756  0 0 0
171       11   1    0.0285690000000000  -22.6839763981539662 -2.7806724693678828   4.7220824700335449  0 0 0
172       11   1    0.0285690000000000  -21.3527359079026127 -3.8760212553961364   4.2864409228163520  0 0 0
173       11   1    0.0285690000000000  -21.8888468362605018 -3.7833673729757997   5.9549675211562452  0 0 0
174       11   1    0.0285690000000000  -24.9923780108892970 -3.8370640464233468   5.4202906386675114  0 0 0
175       11   1    0.0285690000000000  -24.1409206501970388 -4.8140039425910794   6.6361399545774837  0 0 0
176       11   1    0.0285690000000000  -25.1396937805410658 -5.6090715425387794   5.4318566156093659  0 0 0
177       11   1    0.0285690000000000  -24.1885720703012304 -3.9604340160467220   2.9268204091539358  0 0 0
178       11   1    0.0285690000000000  -24.3596592194381465 -5.7285840733536961   2.9945156973619382  0 0 0
179       11   1    0.0285690000000000  -22.8211555191250781 -5.0245172034578216   2.5291873657099266  0 0 0
180       11   2    0.4025730000000000  -22.3071589616877759 -6.1443017202837922   5.8429163831794382  0 0 0
181       12   4   -0.1910640000000000  -23.4500441095764138 -24.1468770948741174 -12.8122898621801689 0 0 0
182       12   3    0.6358650000000000  -23.1685587288859480 -23.4475151956111247 -14.1414111906211808 0 0 0
183       12   4   -0.1910640000000000  -24.4705376294519077 -23.1226698823350851 -14.8723322454031841 0 0 0
184       12   4   -0.1910640000000000  -22.3472920926548220 -22.1795598300825176 -13.9178458421415048 0 0 0
185       12   5   -0.7223670000000000  -22.3933914585457678 -24.3233512421524622 -14.9608630257965078 0 0 0
186       12   1    0.0285690000000000  -24.0314789676662990 -23.5107295440402773 -12.1370430944232961 0 0 0
187       12   1    0.0285690000000000  -22.5150307178417144 -24.4227124678652530 -12.3115298155674076 0 0 0
188       12   1    0.0285690000000000  -24.0029361582494829 -25.0798300407335155 -12.9705552889997371 0 0 0
189       12   1    0.0285690000000000  -25.0990794719050214 -22.4392615307762675 -14.2921211153778280 0 0 0
190       12   1    0.0285690000000000  -25.0444754577470405 -24.0345121519973652 -15.0730658086381908 0 0 0
191       12   1    0.0285690000000000  -24.2664245914763725 -22.6649613095868574 -15.8469817953241687 0 0 0
192       12   1    0.0285690000000000  -22.8820265066697104 -21.4564216000462338 -13.2934120762158141 0 0 0
193       12   1    0.0285690000000000  -22.1025826110273229 -21.6998260649939070 -14.8724717868630627 0 0 0
194       12   1    0.0285690000000000  -21.3910592004056923 -22.4139462995712364 -13.4361567183267034 0 0 0
195       12   2    0.4025730000000000  -22.9108189718503361 -25.1335624192876281 -15.1073623384935676 0 0 0
196       13   4   -0.1910640000000000   31.4822249617135661 -13.1881785013172337 -4.6853812171101836  0 0 0
197       13   3    0.6358650000000000   32.6187050884734120 -14.1977115259528688 -4.5299444613220485  0 0 0
198       13   4   -0.1910640000000000   33.2379017511385086 -14.5337467218413057 -5.8858924557040684  0 0 0
199       13   4   -0.1910640000000000   33.6817292478568575 -13.6663828317061427 -3.5708612443709860  0 0 0
200       13   5   -0.7223670000000000   32.0879647778170920 -15.3961449322361474 -3.9628937749202899  0 0 0
201       13   1    0.0285690000000000   31.8383442021918768 -12.2413165781356739 -5.1041173906014077  0 0 0
202       13   1    0.0285690000000000   31.0071794815812858 -12.9844978207793709 -3.7189745779662231  0 0 0
203       13   1    0.0285690000000000   30.6959744581914578 -13.5819142651707381 -5.3395379689471909  0 0 0
204       13   1    0.0285690000000000   33.6750267264813985 -13.6489508735402172 -6.3600388896890001  0 0 0
205       13   1    0.0285690000000000   32.4878418343537732 -14.9552215566921394 -6.5648062968653473  0 0 0
206       13   1    0.0285690000000000   34.0202817253223770 -15.2937623931540863 -5.7793149235735841  0 0 0
207       13   1    0.0285690000000000   34.1358985266475372 -12.7420916688935648 -3.9426184687114487  0 0 0
208       13   1    0.0285690000000000   34.4756298780037440 -14.4067332569286997 -3.4193985511915166  0 0 0
209       13   1    0.0285690000000000   33.2515109534751758 -13.4685755581997899 -2.5823637607994341  0 0 0
210       13   2    0.4025730000000000   31.4098177302873722 -15.7402135198243371 -4.5690033530180161  0 0 0
211       14   4   -0.1910640000000000  -23.8563956116817728  14.8132262465553488  31.5970570725448212 0 0 0
212       14   3    0.6358650000000000  -23.4320817300950175  13.7795604688928019  32.6393609540410239 0 0 0
213       14   4   -0.1910640000000000  -21.9189086928186079  13.8081319131502642  32.8500981250212050 0 0 0
214       14   4   -0.1910640000000000  -24.1628034495302053  14.0164615206496617  33.9592453513357952 0 0 0
215       14   5   -0.7223670000000000  -23.8013785169449008  12.4823757640866031  32.1698866603473022 0 0 0
216       14   1    0.0285690000000000  -23.6092018676936739  15.8313581698322139  31.9148794092955654 0 0 0
217       14   1    0.0285690000000000  -24.9351057375657703  14.7589373348032336  31.4112265089227307 0 0 0
218       14   1    0.0285690000000000  -23.3669472478754834  14.6225082392052173  30.6351809355917553 0 0 0
219       14   1    0.0285690000000000  -21.5823069758077324  14.7799115691204399  33.2257314068903824 0 0 0
220       14   1    0.0285690000000000  -21.3895118021894497  13.5966960453607122  31.9140485937974141 0 0 0
221       14   1    0.0285690000000000  -21.6099666120375922  13.0340000394886601  33.5616988894276673 0 0 0
222       14   1    0.0285690000000000  -23.9264439403773146  14.9985915867861159  34.3815509716202143 0 0 0
223       14   1    0.0285690000000000  -23.8972834913891461  13.2490627302992365  34.6954084844099100 0 0 0
224       14   1    0.0285690000000000  -25.2481587370113338  13.9498318088603490  33.8217420613983535 0 0 0
225       14   2    0.4025730000000000  -23.3392422609358547  12.3247885672815372  31.3289159188912940 0 0 0
226       15   4   -0.1910640000000000  -12.5621526806941617 -32.6315610639945106 -4.7457030420464132  0 0 0
227       15   3    0.6358650000000000  -14.0739846486338109 -32.4427056197213801 -4.6290740864474307  0 0 0
228       15   4   -0.1910640000000000  -14.8007542537284635 -33.1473519030674169 -5.7737131910901045  0 0 0
229       15   4   -0.1910640000000000  -14.5763742384498496 -32.9516350406676395 -3.2797161997695543  0 0 0
230       15   5   -0.7223670000000000  -14.3643877802539492 -31.0461139296655233 -4.6974265554017673  0 0 0
231       15   1    0.0285690000000000  -12.2817565718397876 -33.6881039985233741 -4.6840309443321431  0 0 0
232       15   1    0.0285690000000000  -12.0390158023955660 -32.0858143182794748 -3.9522396742054946  0 0 0
233       15   1    0.0285690000000000  -12.1897690900316800 -32.2295198340593743 -5.6948247796741924  0 0 0
234       15   1    0.0285690000000000  -14.6236355307630586 -34.2277144656151648 -5.7594840126049611  0 0 0
235       15   1    0.0285690000000000  -14.4745175979018459 -32.7559460264135041 -6.7440358194029084  0 0 0
236       15   1    0.0285690000000000  -15.8809123267883514 -32.9710298787261280 -5.7165284384393376  0 0 0
237       15   1    0.0285690000000000  -14.3865885084175904 -34.0227787283958207 -3.1555393169926442  0 0 0
238       15   1    0.0285690000000000  -15.6527771995733076 -32.7751039740372789 -3.1723320393965180  0 0 0
239       15   1    0.0285690000000000  -14.0919580593664975 -32.4154644277409716 -2.4555773688823601  0 0 0
240       15   2    0.4025730000000000  -14.0468577155344114 -30.7151881346278408 -5.5549218661049142  0 0 0
241       16   4   -0.1910640000000000  -15.2749707356234605  14.5459796021994041  14.4169899631819209 0 0 0
242       16   3    0.6358650000000000  -13.9098830360752217  14.1654822459813712  13.8454465038954329 0 0 0
243       16   4   -0.1910640000000000  -12.9531080983050941  13.7395784052786958  14.9581489620259429 0 0 0
244       16   4   -0.1910640000000000  -14.0530748793095839  13.0557420256957126  12.8061467871094177 0 0 0
245       16   5   -0.7223670000000000  -13.3598265528668474  15.3056615091800428  13.1844597410535602 0 0 0
246       16   1    0.0285690000000000  -15.7499680239282451  13.6998201848837464  14.9240404681527199 0 0 0
247       16   1    0.0285690000000000  -15.9450845189492814  14.8972951189051628  13.6241338948324859 0 0 0
248       16   1    0.0285690000000000  -15.1832953842047047  15.3710639902606889  15.1325108535267105 0 0 0
249       16   1    0.0285690000000000  -13.3209852538638582  12.8562011854936102  15.4901901860704321 0 0 0
250       16   1    0.0285690000000000  -12.8135664868422623  14.5480405730651157  15.6848345754988276 0 0 0
251       16   1    0.0285690000000000  -11.9602923579451517  13.5133398838437149  14.5528909551803789 0 0 0
252       16   1    0.0285690000000000  -14.4718549558508620  12.1436495268624629  13.2437514515774666 0 0 0
253       16   1    0.0285690000000000  -13.0824040912747215  12.8122524628435457  12.3591020867293935 0 0 0
254       16   1    0.0285690000000000  -14.7012708822601716  13.3745137751536056  11.9817868615875494 0 0 0
255       16   2    0.4025730000000000  -13.2658567470728102  16.0168215147255317  13.8410087139501563 0 0 0
256       17   4   -0.1910640000000000  -23.3457971840374690 -5.0041636704749886  -24.7422037052991897 0 0 0
257       17   3    0.6358650000000000  -23.5122247470535157 -4.4977286182741194  -23.3101666961507448 0 0 0
258       17   4   -0.1910640000000000  -23.5987428433541986 -5.6639852736946423  -22.3266631851759030 0 0 0
259       17   4   -0.1910640000000000  -22.3650763894888485 -3.5622577278056804  -22.9345125724905969 0 0 0
260       17   5   -0.7223670000000000  -24.7238539586753667 -3.7458863630240842  -23.2316666046529576 0 0 0
261       17   1    0.0285690000000000  -22.4206602001720903 -5.5772188426674569  -24.8623608054137470 0 0 0
262       17   1    0.0285690000000000  -23.3324266360630865 -4.1689812858845716  -25.4517017200368869 0 0 0
263       17   1    0.0285690000000000  -24.1883330600551929 -5.6424442572269093  -25.0318067995483524 0 0 0
264       17   1    0.0285690000000000  -22.6852645801424337 -6.2675069086485466  -22.3353739189094718 0 0 0
265       17   1    0.0285690000000000  -24.4464958727855226 -6.3158766356644076  -22.5664701329051915 0 0 0
266       17   1    0.0285690000000000  -23.7665295312818934 -5.3013881253498569  -21.3061378545904887 0 0 0
267       17   1    0.0285690000000000  -21.3975657744197463 -4.0733768383380387  -22.9728242662304041 0 0 0
268       17   1    0.0285690000000000  -22.5049724537250349 -3.1591997129068421  -21.9249031242696226 0 0 0
269       17   1    0.0285690000000000  -22.3286260965355545 -2.6991481771549104  -23.6090909986346809 0 0 0
270       17   2    0.4025730000000000  -25.4591673461639196 -4.3359848976756794  -23.4698542896455997 0 0 0
271       18   4   -0.1910640000000000  -22.3656505372186736 -31.7885932594744318  23.9336208164824669 0 0 0