
                                 *****************
                                 * O   R   C   A *
                                 *****************

           --- An Ab Initio, DFT and Semiempirical electronic structure package ---

                  #######################################################
                  #                        -***-                        #
                  #          Department of theory and spectroscopy      #
                  #               Directorship: Frank Neese             #
                  #        Max Planck Institute fuer Kohlenforschung    #
                  #                Kaiser Wilhelm Platz 1               #
                  #                 D-45470 Muelheim/Ruhr               #
                  #                      Germany                        #
                  #                                                     #
                  #                  All rights reserved                #
                  #                        -***-                        #
                  #######################################################


                         Program Version 4.1.2  - RELEASE  -


 With contributions from (in alphabetic order):
   Daniel Aravena         : Magnetic Properties
   Michael Atanasov       : Ab Initio Ligand Field Theory
   Alexander A. Auer      : GIAO ZORA
   Ute Becker             : Parallelization
   Giovanni Bistoni       : ED, Open-shell LED
   Martin Brehm           : Molecular dynamics
   Dmytro Bykov           : SCF Hessian
   Vijay G. Chilkuri      : MRCI spin determinant printing
   Dipayan Datta          : RHF DLPNO-CCSD density
   Achintya Kumar Dutta   : EOM-CC, STEOM-CC
   Dmitry Ganyushin       : Spin-Orbit,Spin-Spin,Magnetic field MRCI
   Miquel Garcia          : C-PCM Hessian
   Yang Guo               : DLPNO-NEVPT2, CIM, IAO-localization
   Andreas Hansen         : Spin unrestricted coupled pair/coupled cluster methods
   Benjamin Helmich-Paris : CASSCF linear response (MC-RPA)
   Lee Huntington         : MR-EOM, pCC
   Robert Izsak           : Overlap fitted RIJCOSX, COSX-SCS-MP3, EOM
   Christian Kollmar      : KDIIS, OOCD, Brueckner-CCSD(T), CCSD density
   Simone Kossmann        : Meta GGA functionals, TD-DFT gradient, OOMP2, MP2 Hessian
   Martin Krupicka        : AUTO-CI
   Lucas Lang             : DCDCAS
   Dagmar Lenk            : GEPOL surface, SMD
   Dimitrios Liakos       : Extrapolation schemes; parallel MDCI
   Dimitrios Manganas     : ROCIS; embedding schemes
   Dimitrios Pantazis     : SARC Basis sets
   Taras Petrenko         : DFT Hessian,TD-DFT gradient, ASA, ECA, R-Raman, ABS, FL, XAS/XES, NRVS
   Peter Pinski           : DLPNO-MP2, DLPNO-MP2 Gradient
   Christoph Reimann      : Effective Core Potentials
   Marius Retegan         : Local ZFS, SOC
   Christoph Riplinger    : Optimizer, TS searches, QM/MM, DLPNO-CCSD(T), (RO)-DLPNO pert. Triples
   Tobias Risthaus        : Range-separated hybrids, TD-DFT gradient, RPA, STAB
   Michael Roemelt        : Restricted open shell CIS
   Masaaki Saitow         : Open-shell DLPNO
   Barbara Sandhoefer     : DKH picture change effects
   Avijit Sen             : IP-ROCIS
   Kantharuban Sivalingam : CASSCF convergence, NEVPT2, FIC-MRCI
   Bernardo de Souza      : ESD, SOC TD-DFT
   Georgi Stoychev        : AutoAux, RI-MP2 NMR
   Willem Van den Heuvel  : Paramagnetic NMR
   Boris Wezisla          : Elementary symmetry handling
   Frank Wennmohs         : Technical directorship


 We gratefully acknowledge several colleagues who have allowed us to
 interface, adapt or use parts of their codes:
   Stefan Grimme, W. Hujo, H. Kruse,             : VdW corrections, initial TS optimization,
                  C. Bannwarth                     DFT functionals, gCP, sTDA/sTD-DF
   Ed Valeev                                     : LibInt (2-el integral package), F12 methods
   Garnet Chan, S. Sharma, J. Yang, R. Olivares  : DMRG
   Ulf Ekstrom                                   : XCFun DFT Library
   Mihaly Kallay                                 : mrcc  (arbitrary order and MRCC methods)
   Andreas Klamt, Michael Diedenhofen            : otool_cosmo (COSMO solvation model)
   Jiri Pittner, Ondrej Demel                    : Mk-CCSD
   Frank Weinhold                                : gennbo (NPA and NBO analysis)
   Christopher J. Cramer and Donald G. Truhlar   : smd solvation model
   Lars Goerigk                                  : TD-DFT with DH, B97 family of functionals
   V. Asgeirsson, H. Jonsson                     : NEB implementation
   FAccTs GmbH                                   : IRC, NEB, NEB-TS, Multilevel


 Your calculation uses the libint2 library for the computation of 2-el integrals
 For citations please refer to: http://libint.valeyev.net

 This ORCA versions uses:
   CBLAS   interface :  Fast vector & matrix operations
   LAPACKE interface :  Fast linear algebra routines
   SCALAPACK package :  Parallel linear algebra routines


Your calculation utilizes the atom-pairwise dispersion correction
with the zero-damping scheme (D30)
Cite in your paper:
S.Grimme, J.Antony, S.Ehrlich and H.Krieg, J.Chem.Phys., 132, (2010), 154104 
   

XCFun DFT library Copyright 2009-2010 Ulf Ekstrom and contributors.
See http://admol.org/xcfun for more information. This is free soft-
ware; see the source code for copying conditions. There is ABSOLUTELY
NO WARRANTY; not even for MERCHANTABILITY or FITNESS FOR A PARTICULAR
PURPOSE. For details see the documentation. Scientific users of this 
library should cite U. Ekstrom, L. Visscher, R. Bast, A. J. Thorvald-
sen and K. Ruud; J.Chem.Theor.Comp. 2010, DOI: 10.1021/ct100117s
XCFun Version 0.99 
----- Orbital basis set information -----
Your calculation utilizes the basis: def2-TZVP
   F. Weigend and R. Ahlrichs, Phys. Chem. Chem. Phys. 7, 3297 (2005).

================================================================================
                                        WARNINGS
                       Please study these warnings very carefully!
================================================================================


INFO   : the flag for use of LIBINT has been found!

================================================================================
                                       INPUT FILE
================================================================================
NAME = 108.in
|  1> #Run DFT-D3 single point of the dimer
|  2> ! wB97X-D3 def2-TZVP TIGHTSCF  CHELPG PAL8
|  3> 
|  4> %base "108_charges"
|  5> 
|  6> %scf
|  7> MaxIter 1000
|  8> end
|  9> %output
| 10>   Print[ P_Mayer ] 1
| 11>   Print[ P_NatPop ] 1
| 12>   Print[ P_Hirshfeld ] 1
| 13>   Print[ P_Mulliken ] 1
| 14>   Print [ P_Loewdin ] 1
| 15> end
| 16> 
| 17> * xyz 0 1
| 18>   C                      -2.352653            -2.541401            -8.541568           
| 19>   O                      -2.793446            -1.430247            -9.292957           
| 20>   H                      -2.178059            -1.239169            -9.959847           
| 21>   H                      -1.325004            -2.412734            -8.186187           
| 22>   H                      -2.963913            -2.754378            -7.685574           
| 23>   H                      -2.248842            -3.350771            -9.246120           
| 24> *
| 25> 
| 26>                          ****END OF INPUT****
================================================================================

                       ****************************
                       * Single Point Calculation *
                       ****************************

---------------------------------
CARTESIAN COORDINATES (ANGSTROEM)
---------------------------------
  C     -2.352653   -2.541401   -8.541568
  O     -2.793446   -1.430247   -9.292957
  H     -2.178059   -1.239169   -9.959847
  H     -1.325004   -2.412734   -8.186187
  H     -2.963913   -2.754378   -7.685574
  H     -2.248842   -3.350771   -9.246120

----------------------------
CARTESIAN COORDINATES (A.U.)
----------------------------
  NO LB      ZA    FRAG     MASS         X           Y           Z
   0 C     6.0000    0    12.011   -4.445870   -4.802552  -16.141224
   1 O     8.0000    0    15.999   -5.278848   -2.702775  -17.561144
   2 H     1.0000    0     1.008   -4.115935   -2.341690  -18.821383
   3 H     1.0000    0     1.008   -2.503895   -4.559406  -15.469652
   4 H     1.0000    0     1.008   -5.600984   -5.205020  -14.523630
   5 H     1.0000    0     1.008   -4.249695   -6.332040  -17.472635

--------------------------------
INTERNAL COORDINATES (ANGSTROEM)
--------------------------------
 C      0   0   0     0.000000000000     0.00000000     0.00000000
 O      1   0   0     1.411930277983     0.00000000     0.00000000
 H      2   1   0     0.927337173822   109.73634423     0.00000000
 H      1   2   3     1.094949003037   111.91617839    51.82905097
 H      1   2   3     1.073183916281   113.75534139   173.78105211
 H      1   2   3     1.078077010851   105.84869103   301.37402024

---------------------------
INTERNAL COORDINATES (A.U.)
---------------------------
 C      0   0   0     0.000000000000     0.00000000     0.00000000
 O      1   0   0     2.668161545580     0.00000000     0.00000000
 H      2   1   0     1.752413292329   109.73634423     0.00000000
 H      1   2   3     2.069153746349   111.91617839    51.82905097
 H      1   2   3     2.028023693101   113.75534139   173.78105211
 H      1   2   3     2.037270301784   105.84869103   301.37402024

---------------------
BASIS SET INFORMATION
---------------------
There are 3 groups of distinct atoms

 Group   1 Type C   : 11s6p2d1f contracted to 5s3p2d1f pattern {62111/411/11/1}
 Group   2 Type O   : 11s6p2d1f contracted to 5s3p2d1f pattern {62111/411/11/1}
 Group   3 Type H   : 5s1p contracted to 3s1p pattern {311/1}

Atom   0C    basis set group =>   1
Atom   1O    basis set group =>   2
Atom   2H    basis set group =>   3
Atom   3H    basis set group =>   3
Atom   4H    basis set group =>   3
Atom   5H    basis set group =>   3


           ************************************************************
           *        Program running with 8 parallel MPI-processes     *
           *              working on a common directory               *
           ************************************************************
------------------------------------------------------------------------------
                           ORCA GTO INTEGRAL CALCULATION
------------------------------------------------------------------------------

                         BASIS SET STATISTICS AND STARTUP INFO

 # of primitive gaussian shells          ...   64
 # of primitive gaussian functions       ...  124
 # of contracted shells                  ...   38
 # of contracted basis functions         ...   86
 Highest angular momentum                ...    3
 Maximum contraction depth               ...    6
 Integral package used                   ... LIBINT
 Integral threshhold            Thresh   ...  2.500e-11
 Primitive cut-off              TCut     ...  2.500e-12


------------------------------ INTEGRAL EVALUATION ----------------------------


 * One electron integrals 
 Pre-screening matrix                    ... done
 Shell pair data                         ... done (   0.000 sec)



           ************************************************************
           *        Program running with 8 parallel MPI-processes     *
           *              working on a common directory               *
           ************************************************************
-------------------------------------------------------------------------------
                                 ORCA SCF
-------------------------------------------------------------------------------

------------
SCF SETTINGS
------------
Hamiltonian:
 Density Functional     Method          .... DFT(GTOs)
 Exchange Functional    Exchange        .... WB97X-D3
 Correlation Functional Correlation     .... WB97X-D3
 Gradients option       PostSCFGGA      .... off
 Hybrid DFT is turned on
   Fraction HF Exchange ScalHFX         ....  0.195728
   Scaling of DF-GGA-X  ScalDFX         ....  0.000000
   Scaling of DF-GGA-C  ScalDFC         ....  1.000000
   Scaling of DF-LDA-C  ScalLDAC        ....  1.000000
   Perturbative correction              ....  0.000000
   Density functional embedding theory  .... OFF
 Long-range corrected/Screened/Range-Separated Hybrid DFT is turned on
   Amount of maximum screened exact exchange              ....  0.804272
   Range separation parameter mu (erf(mu*r12)/r12)        ....  0.250000


General Settings:
 Integral files         IntName         .... 108_charges
 Hartree-Fock type      HFTyp           .... RHF
 Total Charge           Charge          ....    0
 Multiplicity           Mult            ....    1
 Number of Electrons    NEL             ....   18
 Basis Dimension        Dim             ....   86
 Nuclear Repulsion      ENuc            ....     40.7388686185 Eh

Convergence Acceleration:
 DIIS                   CNVDIIS         .... on
   Start iteration      DIISMaxIt       ....    12
   Startup error        DIISStart       ....  0.200000
   # of expansion vecs  DIISMaxEq       ....     5
   Bias factor          DIISBfac        ....   1.050
   Max. coefficient     DIISMaxC        ....  10.000
 Newton-Raphson         CNVNR           .... off
 SOSCF                  CNVSOSCF        .... on
   Start iteration      SOSCFMaxIt      ....   150
   Startup grad/error   SOSCFStart      ....  0.003300
 Level Shifting         CNVShift        .... on
   Level shift para.    LevelShift      ....    0.2500
   Turn off err/grad.   ShiftErr        ....    0.0010
 Zerner damping         CNVZerner       .... off
 Static damping         CNVDamp         .... on
   Fraction old density DampFac         ....    0.7000
   Max. Damping (<1)    DampMax         ....    0.9800
   Min. Damping (>=0)   DampMin         ....    0.0000
   Turn off err/grad.   DampErr         ....    0.1000
 Fernandez-Rico         CNVRico         .... off

SCF Procedure:
 Maximum # iterations   MaxIter         ....  1000
 SCF integral mode      SCFMode         .... Direct
   Integral package                     .... LIBINT
 Reset frequency        DirectResetFreq ....    20
 Integral Threshold     Thresh          ....  2.500e-11 Eh
 Primitive CutOff       TCut            ....  2.500e-12 Eh

Convergence Tolerance:
 Convergence Check Mode ConvCheckMode   .... Total+1el-Energy
 Convergence forced     ConvForced      .... 0
 Energy Change          TolE            ....  1.000e-08 Eh
 1-El. energy change                    ....  1.000e-05 Eh
 Orbital Gradient       TolG            ....  1.000e-05
 Orbital Rotation angle TolX            ....  1.000e-05
 DIIS Error             TolErr          ....  5.000e-07


Diagonalization of the overlap matrix:
Smallest eigenvalue                        ... 1.599e-03
Time for diagonalization                   ...    0.382 sec
Threshold for overlap eigenvalues          ... 1.000e-08
Number of eigenvalues below threshold      ... 0
Time for construction of square roots      ...    0.865 sec
Total time needed                          ...    1.247 sec

-------------------
DFT GRID GENERATION
-------------------

General Integration Accuracy     IntAcc      ...  4.340
Radial Grid Type                 RadialGrid  ... Gauss-Chebyshev
Angular Grid (max. acc.)         AngularGrid ... Lebedev-110
Angular grid pruning method      GridPruning ... 3 (G Style)
Weight generation scheme         WeightScheme... Becke
Basis function cutoff            BFCut       ...    1.0000e-11
Integration weight cutoff        WCut        ...    1.0000e-14
Grids for H and He will be reduced by one unit

# of grid points (after initial pruning)     ...   6548 (   0.1 sec)
# of grid points (after weights+screening)   ...   6388 (   0.8 sec)
nearest neighbour list constructed           ...    0.0 sec
Grid point re-assignment to atoms done       ...    0.0 sec
Grid point division into batches done        ...    0.0 sec
Reduced shell lists constructed in    0.0 sec

Total number of grid points                  ...     6388
Total number of batches                      ...      102
Average number of points per batch           ...       62
Average number of grid points per atom       ...     1065
Average number of shells per batch           ...    32.00 (84.21%)
Average number of basis functions per batch  ...    73.14 (85.05%)
Average number of large shells per batch     ...    30.93 (96.65%)
Average number of large basis fcns per batch ...    70.79 (96.78%)
Maximum spatial batch extension              ...  16.72, 16.23, 14.26 au
Average spatial batch extension              ...   0.46,  0.43,  0.38 au

Time for grid setup =    1.525 sec

------------------------------
INITIAL GUESS: MODEL POTENTIAL
------------------------------
Loading Hartree-Fock densities                     ... done
Calculating cut-offs                               ... done
Setting up the integral package                    ... done
Initializing the effective Hamiltonian             ... done
Starting the Coulomb interaction                   ... done (   0.0 sec)
Reading the grid                                   ... done
Mapping shells                                     ... done
Starting the XC term evaluation                    ... done (   0.4 sec)
  promolecular density results
     # of electrons  =     17.997659749
     EX              =    -14.443054407
     EC              =     -0.576555501
     EX+EC           =    -15.019609908
Transforming the Hamiltonian                       ... done (   0.0 sec)
Diagonalizing the Hamiltonian                      ... done (   0.0 sec)
Back transforming the eigenvectors                 ... done (   0.0 sec)
Now organizing SCF variables                       ... done
                      ------------------
                      INITIAL GUESS DONE (   2.3 sec)
                      ------------------
--------------
SCF ITERATIONS
--------------
ITER       Energy         Delta-E        Max-DP      RMS-DP      [F,P]     Damp
               ***  Starting incremental Fock matrix formation  ***
  0   -115.6416337015   0.000000000000 0.03687612  0.00150801  0.2505674 0.7000
  1   -115.6798724856  -0.038238784150 0.02180120  0.00106693  0.1256864 0.7000
                               ***Turning on DIIS***
  2   -115.6975833547  -0.017710869052 0.03085591  0.00193347  0.0490882 0.0000
  3   -115.7264139277  -0.028830573081 0.01737514  0.00069914  0.0609142 0.0000
  4   -115.7310531920  -0.004639264220 0.00411874  0.00013594  0.0061218 0.0000
                      *** Initiating the SOSCF procedure ***
                           *** Shutting down DIIS ***
                      *** Re-Reading the Fockian *** 
                      *** Removing any level shift *** 
ITER      Energy       Delta-E        Grad      Rot      Max-DP    RMS-DP
  5   -115.73114539  -0.0000921977  0.000468  0.000468  0.000686  0.000048
               *** Restarting incremental Fock matrix formation ***
  6   -115.73115366  -0.0000082747  0.000148  0.000211  0.000532  0.000030
  7   -115.73115446  -0.0000007966  0.000056  0.000116  0.000240  0.000013
  8   -115.73115453  -0.0000000666  0.000020  0.000017  0.000031  0.000001
  9   -115.73115453  -0.0000000071  0.000011  0.000008  0.000016  0.000001
                  ***Gradient check signals convergence***
              ***Rediagonalizing the Fockian in SOSCF/NRSCF***

               *****************************************************
               *                     SUCCESS                       *
               *           SCF CONVERGED AFTER  10 CYCLES          *
               *****************************************************

Setting up the final grid:

General Integration Accuracy     IntAcc      ...  4.670
Radial Grid Type                 RadialGrid  ... Gauss-Chebyshev
Angular Grid (max. acc.)         AngularGrid ... Lebedev-302
Angular grid pruning method      GridPruning ... 3 (G Style)
Weight generation scheme         WeightScheme... Becke
Basis function cutoff            BFCut       ...    1.0000e-11
Integration weight cutoff        WCut        ...    1.0000e-14
Grids for H and He will be reduced by one unit

# of grid points (after initial pruning)     ...  26000 (   0.0 sec)
# of grid points (after weights+screening)   ...  25189 (   1.1 sec)
nearest neighbour list constructed           ...    0.0 sec
Grid point re-assignment to atoms done       ...    0.0 sec
Grid point division into batches done        ...    0.2 sec
Reduced shell lists constructed in    0.2 sec

Total number of grid points                  ...    25189
Total number of batches                      ...      397
Average number of points per batch           ...       63
Average number of grid points per atom       ...     4198
Average number of shells per batch           ...    31.51 (82.92%)
Average number of basis functions per batch  ...    72.25 (84.02%)
Average number of large shells per batch     ...    29.86 (94.77%)
Average number of large basis fcns per batch ...    69.12 (95.66%)
Maximum spatial batch extension              ...  15.65, 15.65, 14.67 au
Average spatial batch extension              ...   0.31,  0.30,  0.29 au

Final grid set up in    2.5 sec
Final integration                            ... done (   0.3 sec)
Change in XC energy                          ...    -0.000267957
Integrated number of electrons               ...    18.000016948
Previous integrated no of electrons          ...    17.998906864

----------------
TOTAL SCF ENERGY
----------------

Total Energy       :         -115.73142249 Eh           -3149.21211 eV

Components:
Nuclear Repulsion  :           40.73886862 Eh            1108.56097 eV
Electronic Energy  :         -156.47029111 Eh           -4257.77308 eV
One Electron Energy:         -237.85004145 Eh           -6472.22867 eV
Two Electron Energy:           81.37975033 Eh            2214.45559 eV

Virial components:
Potential Energy   :         -231.09473171 Eh           -6288.40735 eV
Kinetic Energy     :          115.36330922 Eh            3139.19524 eV
Virial Ratio       :            2.00319090


DFT components:
N(Alpha)           :        9.000008473859 electrons
N(Beta)            :        9.000008473859 electrons
N(Total)           :       18.000016947717 electrons
E(XC)              :      -10.677726785066 Eh       
DFET-embed. en.    :        0.000000000000 Eh       

---------------
SCF CONVERGENCE
---------------

  Last Energy change         ...   -1.7493e-09  Tolerance :   1.0000e-08
  Last MAX-Density change    ...    3.3490e-06  Tolerance :   1.0000e-07
  Last RMS-Density change    ...    1.9464e-07  Tolerance :   5.0000e-09
  Last Orbital Gradient      ...    2.3270e-06  Tolerance :   1.0000e-05
  Last Orbital Rotation      ...    2.3154e-06  Tolerance :   1.0000e-05

             **** THE GBW FILE WAS UPDATED (108_charges.gbw) ****
             **** DENSITY FILE WAS UPDATED (108_charges.scfp.tmp) ****
             **** ENERGY FILE WAS UPDATED (108_charges.en.tmp) ****
----------------
ORBITAL ENERGIES
----------------

  NO   OCC          E(Eh)            E(eV) 
   0   2.0000     -19.223336      -523.0936 
   1   2.0000     -10.309934      -280.5476 
   2   2.0000      -1.141185       -31.0532 
   3   2.0000      -0.801369       -21.8064 
   4   2.0000      -0.616996       -16.7893 
   5   2.0000      -0.547218       -14.8906 
   6   2.0000      -0.528119       -14.3708 
   7   2.0000      -0.435770       -11.8579 
   8   2.0000      -0.368390       -10.0244 
   9   0.0000       0.117933         3.2091 
  10   0.0000       0.158995         4.3265 
  11   0.0000       0.202230         5.5030 
  12   0.0000       0.208530         5.6744 
  13   0.0000       0.228545         6.2190 
  14   0.0000       0.303253         8.2519 
  15   0.0000       0.314448         8.5566 
  16   0.0000       0.404395        11.0042 
  17   0.0000       0.452304        12.3078 
  18   0.0000       0.490939        13.3591 
  19   0.0000       0.532634        14.4937 
  20   0.0000       0.545565        14.8456 
  21   0.0000       0.584921        15.9165 
  22   0.0000       0.594375        16.1738 
  23   0.0000       0.615309        16.7434 
  24   0.0000       0.673633        18.3305 
  25   0.0000       0.793046        21.5799 
  26   0.0000       0.830156        22.5897 
  27   0.0000       0.867878        23.6161 
  28   0.0000       0.985001        26.8032 
  29   0.0000       1.001009        27.2388 
  30   0.0000       1.109116        30.1806 
  31   0.0000       1.392567        37.8937 
  32   0.0000       1.499597        40.8061 
  33   0.0000       1.543357        41.9969 
  34   0.0000       1.584082        43.1051 
  35   0.0000       1.611463        43.8502 
  36   0.0000       1.649223        44.8776 
  37   0.0000       1.669365        45.4257 
  38   0.0000       1.722575        46.8736 
  39   0.0000       1.774690        48.2918 
  40   0.0000       1.964161        53.4475 
  41   0.0000       1.998136        54.3721 
  42   0.0000       2.041469        55.5512 
  43   0.0000       2.091359        56.9088 
  44   0.0000       2.157652        58.7127 
  45   0.0000       2.276397        61.9439 
  46   0.0000       2.328990        63.3751 
  47   0.0000       2.341047        63.7031 
  48   0.0000       2.393326        65.1257 
  49   0.0000       2.478999        67.4570 
  50   0.0000       2.504105        68.1402 
  51   0.0000       2.620084        71.2961 
  52   0.0000       2.644881        71.9709 
  53   0.0000       2.767484        75.3071 
  54   0.0000       2.856046        77.7170 
  55   0.0000       2.861682        77.8703 
  56   0.0000       2.924742        79.5863 
  57   0.0000       2.988169        81.3122 
  58   0.0000       3.096487        84.2597 
  59   0.0000       3.161007        86.0154 
  60   0.0000       3.302422        89.8635 
  61   0.0000       3.392059        92.3026 
  62   0.0000       3.475894        94.5839 
  63   0.0000       3.503106        95.3244 
  64   0.0000       3.629783        98.7714 
  65   0.0000       3.653770        99.4241 
  66   0.0000       3.685191       100.2791 
  67   0.0000       4.057631       110.4138 
  68   0.0000       4.224222       114.9469 
  69   0.0000       4.299600       116.9981 
  70   0.0000       4.458786       121.3297 
  71   0.0000       4.581880       124.6793 
  72   0.0000       5.352676       145.6537 
  73   0.0000       5.433423       147.8509 
  74   0.0000       5.587863       152.0535 
  75   0.0000       5.827945       158.5864 
  76   0.0000       5.840255       158.9214 
  77   0.0000       5.994183       163.1100 
  78   0.0000       6.460331       175.7945 
  79   0.0000       6.544342       178.0806 
  80   0.0000       6.755506       183.8267 
  81   0.0000       6.817912       185.5248 
  82   0.0000       7.042616       191.6393 
  83   0.0000       7.249445       197.2674 
  84   0.0000      22.457066       611.0878 
  85   0.0000      43.656360      1187.9500 

                    ********************************
                    * MULLIKEN POPULATION ANALYSIS *
                    ********************************

-----------------------
MULLIKEN ATOMIC CHARGES
-----------------------
   0 C :   -0.152221
   1 O :   -0.476231
   2 H :    0.308188
   3 H :    0.094227
   4 H :    0.126088
   5 H :    0.099949
Sum of atomic charges:    0.0000000

--------------------------------
MULLIKEN REDUCED ORBITAL CHARGES
--------------------------------
  0 C s       :     3.218389  s :     3.218389
      pz      :     0.975869  p :     2.831234
      px      :     1.032462
      py      :     0.822903
      dz2     :     0.022724  d :     0.095086
      dxz     :     0.016627
      dyz     :     0.016841
      dx2y2   :     0.022242
      dxy     :     0.016652
      f0      :     0.000204  f :     0.007512
      f+1     :     0.000564
      f-1     :     0.001884
      f+2     :     0.001687
      f-2     :     0.001349
      f+3     :     0.000898
      f-3     :     0.000925
  1 O s       :     3.781633  s :     3.781633
      pz      :     1.483490  p :     4.663267
      px      :     1.613774
      py      :     1.566003
      dz2     :     0.003283  d :     0.029566
      dxz     :     0.009625
      dyz     :     0.004238
      dx2y2   :     0.006355
      dxy     :     0.006064
      f0      :     0.000159  f :     0.001766
      f+1     :     0.000314
      f-1     :     0.000311
      f+2     :     0.000476
      f-2     :     0.000278
      f+3     :     0.000121
      f-3     :     0.000106
  2 H s       :     0.639810  s :     0.639810
      pz      :     0.019211  p :     0.052002
      px      :     0.017291
      py      :     0.015500
  3 H s       :     0.886258  s :     0.886258
      pz      :     0.004817  p :     0.019515
      px      :     0.011344
      py      :     0.003354
  4 H s       :     0.853479  s :     0.853479
      pz      :     0.009906  p :     0.020434
      px      :     0.006887
      py      :     0.003640
  5 H s       :     0.879514  s :     0.879514
      pz      :     0.007375  p :     0.020536
      px      :     0.004578
      py      :     0.008583


                     *******************************
                     * LOEWDIN POPULATION ANALYSIS *
                     *******************************

----------------------
LOEWDIN ATOMIC CHARGES
----------------------
   0 C :   -0.375028
   1 O :   -0.063651
   2 H :    0.146625
   3 H :    0.093690
   4 H :    0.105302
   5 H :    0.093062

-------------------------------
LOEWDIN REDUCED ORBITAL CHARGES
-------------------------------
  0 C s       :     2.855099  s :     2.855099
      pz      :     1.037434  p :     3.052742
      px      :     1.080894
      py      :     0.934414
      dz2     :     0.062752  d :     0.409477
      dxz     :     0.081655
      dyz     :     0.097126
      dx2y2   :     0.109353
      dxy     :     0.058591
      f0      :     0.005963  f :     0.057710
      f+1     :     0.004809
      f-1     :     0.013636
      f+2     :     0.007926
      f-2     :     0.008937
      f+3     :     0.008571
      f-3     :     0.007867
  1 O s       :     3.345324  s :     3.345324
      pz      :     1.469385  p :     4.642303
      px      :     1.608031
      py      :     1.564887
      dz2     :     0.010557  d :     0.071262
      dxz     :     0.020242
      dyz     :     0.013197
      dx2y2   :     0.013995
      dxy     :     0.013271
      f0      :     0.000342  f :     0.004761
      f+1     :     0.000758
      f-1     :     0.000835
      f+2     :     0.001066
      f-2     :     0.000652
      f+3     :     0.000543
      f-3     :     0.000566
  2 H s       :     0.679595  s :     0.679595
      pz      :     0.063462  p :     0.173780
      px      :     0.067784
      py      :     0.042534
  3 H s       :     0.846174  s :     0.846174
      pz      :     0.015476  p :     0.060136
      px      :     0.033850
      py      :     0.010811
  4 H s       :     0.831955  s :     0.831955
      pz      :     0.029414  p :     0.062743
      px      :     0.021808
      py      :     0.011521
  5 H s       :     0.843926  s :     0.843926
      pz      :     0.022700  p :     0.063012
      px      :     0.014417
      py      :     0.025894


                      *****************************
                      * MAYER POPULATION ANALYSIS *
                      *****************************

  NA   - Mulliken gross atomic population
  ZA   - Total nuclear charge
  QA   - Mulliken gross atomic charge
  VA   - Mayer's total valence
  BVA  - Mayer's bonded valence
  FA   - Mayer's free valence

  ATOM       NA         ZA         QA         VA         BVA        FA
  0 C      6.1522     6.0000    -0.1522     3.9349     3.9349     0.0000
  1 O      8.4762     8.0000    -0.4762     1.8790     1.8790     0.0000
  2 H      0.6918     1.0000     0.3082     0.9205     0.9205     0.0000
  3 H      0.9058     1.0000     0.0942     0.9567     0.9567     0.0000
  4 H      0.8739     1.0000     0.1261     0.9591     0.9591     0.0000
  5 H      0.9001     1.0000     0.0999     0.9640     0.9640     0.0000

  Mayer bond orders larger than 0.1
B(  0-C ,  1-O ) :   0.9866 B(  0-C ,  3-H ) :   0.9777 B(  0-C ,  4-H ) :   0.9701 
B(  0-C ,  5-H ) :   0.9878 B(  1-O ,  2-H ) :   0.9065 


------------------
HIRSHFELD ANALYSIS
------------------

Total integrated alpha density =      8.999453432
Total integrated beta density  =      8.999453432

  ATOM     CHARGE      SPIN    
   0 C    0.008681    0.000000
   1 O   -0.256536    0.000000
   2 H    0.158552    0.000000
   3 H    0.020909    0.000000
   4 H    0.047627    0.000000
   5 H    0.021861    0.000000

  TOTAL   0.001093    0.000000

-------
TIMINGS
-------

Total SCF time: 0 days 0 hours 0 min 29 sec 

Total time                  ....      29.806 sec
Sum of individual times     ....      24.753 sec  ( 83.0%)

Fock matrix formation       ....      16.662 sec  ( 55.9%)
  XC integration            ....       4.388 sec  ( 26.3% of F)
    Basis function eval.    ....       0.034 sec  (  0.8% of XC)
    Density eval.           ....       0.055 sec  (  1.3% of XC)
    XC-Functional eval.     ....       0.074 sec  (  1.7% of XC)
    XC-Potential eval.      ....       0.050 sec  (  1.1% of XC)
Diagonalization             ....       0.708 sec  (  2.4%)
Density matrix formation    ....       1.100 sec  (  3.7%)
Population analysis         ....       0.599 sec  (  2.0%)
Initial guess               ....       0.779 sec  (  2.6%)
Orbital Transformation      ....       0.000 sec  (  0.0%)
Orbital Orthonormalization  ....       0.000 sec  (  0.0%)
DIIS solution               ....       0.280 sec  (  0.9%)
SOSCF solution              ....       0.643 sec  (  2.2%)
Grid generation             ....       3.981 sec  ( 13.4%)


-------------------------------------------------------------------------------
                          DFT DISPERSION CORRECTION                            
                                                                               
                              DFTD3 V3.1  Rev 1                                
                              USING zero damping                               
-------------------------------------------------------------------------------
The omegaB97X-D3 functional is recognized. Fit by Chai et al.
Active option DFTDOPT                   ...         3   

molecular C6(AA) [au] = 208.661277 


            DFT-D V3
 parameters
 s6 scaling factor         :     1.0000 
 rs6 scaling factor        :     1.2810 
 s8 scaling factor         :     1.0000 
 rs8 scaling factor        :     1.0940 
 Damping factor alpha6     :    14.0000 
 Damping factor alpha8     :    16.0000 
 ad hoc parameters k1-k3   :    16.0000     1.3333    -4.0000 

 Edisp/kcal,au: -0.137735087213  -0.000219494810 
 E6   /kcal   :  -0.028028021 
 E8   /kcal   :  -0.109707066 
 % E8         :  79.650776391 

-------------------------   ----------------
Dispersion correction           -0.000219495
-------------------------   ----------------


-------------------------   --------------------
FINAL SINGLE POINT ENERGY      -115.731641988677
-------------------------   --------------------


                            ***************************************
                            *     ORCA property calculations      *
                            ***************************************

                                    ---------------------
                                    Active property flags
                                    ---------------------
   (+) Dipole Moment


------------------------------------------------------------------------------
                       ORCA ELECTRIC PROPERTIES CALCULATION
------------------------------------------------------------------------------

Dipole Moment Calculation                       ... on
Quadrupole Moment Calculation                   ... off
Polarizability Calculation                      ... off
GBWName                                         ... 108_charges.gbw
Electron density file                           ... 108_charges.scfp.tmp
The origin for moment calculation is the CENTER OF MASS  = (-4.820483, -3.729817 -16.904394)

-------------
DIPOLE MOMENT
-------------
                                X             Y             Z
Electronic contribution:     -0.80312       1.40881      -0.77773
Nuclear contribution   :      1.39218      -1.73895       0.65529
                        -----------------------------------------
Total Dipole Moment    :      0.58906      -0.33014      -0.12244
                        -----------------------------------------
Magnitude (a.u.)       :      0.68628
Magnitude (Debye)      :      1.74437



--------------------
Rotational spectrum 
--------------------
 
Rotational constants in cm-1:     4.443951     0.841333     0.804442 
Rotational constants in MHz : 133226.304417 25222.522974 24116.559368 

 Dipole components along the rotational axes: 
x,y,z [a.u.] :     0.351783    -0.586880    -0.052865 
x,y,z [Debye]:     0.894162    -1.491729    -0.134372 

 
------------------------------------------------------------------------------
                      ORCA CHELPG CHARGES GENERATION
------------------------------------------------------------------------------

GBW file                           ... 108_charges.gbw

Reading the GBW file               ... done

Grid spacing                       ...     0.300000
Point Cut-Off                      ...     2.800000
Van-der-Waals Radii                ...        COSMO
Total charge                       ...            0


Number of points X direction       ...           24
Number of points Y direction       ...           25
Number of points Z direction       ...           26
Maximum number of possible points  ...        15600
Final number of points             ...         5896


CHELPG Charges            
--------------------------------
  0   C   :       0.120107
  1   O   :      -0.636461
  2   H   :       0.423499
  3   H   :       0.003257
  4   H   :       0.079745
  5   H   :       0.009853
--------------------------------
Total charge:     0.000000
--------------------------------

CHELPG charges calculated...

Timings for individual parts in CHELPG calculation:
Grid generation                 ...        0.001 sec (=   0.000 min)
Potential calculation           ...        0.668 sec (=   0.011 min)
Fit to the potential            ...        0.004 sec (=   0.000 min)
------------------------------------------------------------------------------


Timings for individual modules:

Sum of individual times         ...       38.017 sec (=   0.634 min)
GTO integral calculation        ...        3.827 sec (=   0.064 min)  10.1 %
SCF iterations                  ...       32.947 sec (=   0.549 min)  86.7 %
CHELPG charge generation        ...        1.243 sec (=   0.021 min)   3.3 %
                             ****ORCA TERMINATED NORMALLY****
TOTAL RUN TIME: 0 days 0 hours 0 minutes 42 seconds 676 msec
