
                                 *****************
                                 * O   R   C   A *
                                 *****************

           --- An Ab Initio, DFT and Semiempirical electronic structure package ---

                  #######################################################
                  #                        -***-                        #
                  #          Department of theory and spectroscopy      #
                  #               Directorship: Frank Neese             #
                  #        Max Planck Institute fuer Kohlenforschung    #
                  #                Kaiser Wilhelm Platz 1               #
                  #                 D-45470 Muelheim/Ruhr               #
                  #                      Germany                        #
                  #                                                     #
                  #                  All rights reserved                #
                  #                        -***-                        #
                  #######################################################


                         Program Version 4.1.2  - RELEASE  -


 With contributions from (in alphabetic order):
   Daniel Aravena         : Magnetic Properties
   Michael Atanasov       : Ab Initio Ligand Field Theory
   Alexander A. Auer      : GIAO ZORA
   Ute Becker             : Parallelization
   Giovanni Bistoni       : ED, Open-shell LED
   Martin Brehm           : Molecular dynamics
   Dmytro Bykov           : SCF Hessian
   Vijay G. Chilkuri      : MRCI spin determinant printing
   Dipayan Datta          : RHF DLPNO-CCSD density
   Achintya Kumar Dutta   : EOM-CC, STEOM-CC
   Dmitry Ganyushin       : Spin-Orbit,Spin-Spin,Magnetic field MRCI
   Miquel Garcia          : C-PCM Hessian
   Yang Guo               : DLPNO-NEVPT2, CIM, IAO-localization
   Andreas Hansen         : Spin unrestricted coupled pair/coupled cluster methods
   Benjamin Helmich-Paris : CASSCF linear response (MC-RPA)
   Lee Huntington         : MR-EOM, pCC
   Robert Izsak           : Overlap fitted RIJCOSX, COSX-SCS-MP3, EOM
   Christian Kollmar      : KDIIS, OOCD, Brueckner-CCSD(T), CCSD density
   Simone Kossmann        : Meta GGA functionals, TD-DFT gradient, OOMP2, MP2 Hessian
   Martin Krupicka        : AUTO-CI
   Lucas Lang             : DCDCAS
   Dagmar Lenk            : GEPOL surface, SMD
   Dimitrios Liakos       : Extrapolation schemes; parallel MDCI
   Dimitrios Manganas     : ROCIS; embedding schemes
   Dimitrios Pantazis     : SARC Basis sets
   Taras Petrenko         : DFT Hessian,TD-DFT gradient, ASA, ECA, R-Raman, ABS, FL, XAS/XES, NRVS
   Peter Pinski           : DLPNO-MP2, DLPNO-MP2 Gradient
   Christoph Reimann      : Effective Core Potentials
   Marius Retegan         : Local ZFS, SOC
   Christoph Riplinger    : Optimizer, TS searches, QM/MM, DLPNO-CCSD(T), (RO)-DLPNO pert. Triples
   Tobias Risthaus        : Range-separated hybrids, TD-DFT gradient, RPA, STAB
   Michael Roemelt        : Restricted open shell CIS
   Masaaki Saitow         : Open-shell DLPNO
   Barbara Sandhoefer     : DKH picture change effects
   Avijit Sen             : IP-ROCIS
   Kantharuban Sivalingam : CASSCF convergence, NEVPT2, FIC-MRCI
   Bernardo de Souza      : ESD, SOC TD-DFT
   Georgi Stoychev        : AutoAux, RI-MP2 NMR
   Willem Van den Heuvel  : Paramagnetic NMR
   Boris Wezisla          : Elementary symmetry handling
   Frank Wennmohs         : Technical directorship


 We gratefully acknowledge several colleagues who have allowed us to
 interface, adapt or use parts of their codes:
   Stefan Grimme, W. Hujo, H. Kruse,             : VdW corrections, initial TS optimization,
                  C. Bannwarth                     DFT functionals, gCP, sTDA/sTD-DF
   Ed Valeev                                     : LibInt (2-el integral package), F12 methods
   Garnet Chan, S. Sharma, J. Yang, R. Olivares  : DMRG
   Ulf Ekstrom                                   : XCFun DFT Library
   Mihaly Kallay                                 : mrcc  (arbitrary order and MRCC methods)
   Andreas Klamt, Michael Diedenhofen            : otool_cosmo (COSMO solvation model)
   Jiri Pittner, Ondrej Demel                    : Mk-CCSD
   Frank Weinhold                                : gennbo (NPA and NBO analysis)
   Christopher J. Cramer and Donald G. Truhlar   : smd solvation model
   Lars Goerigk                                  : TD-DFT with DH, B97 family of functionals
   V. Asgeirsson, H. Jonsson                     : NEB implementation
   FAccTs GmbH                                   : IRC, NEB, NEB-TS, Multilevel


 Your calculation uses the libint2 library for the computation of 2-el integrals
 For citations please refer to: http://libint.valeyev.net

 This ORCA versions uses:
   CBLAS   interface :  Fast vector & matrix operations
   LAPACKE interface :  Fast linear algebra routines
   SCALAPACK package :  Parallel linear algebra routines


Your calculation utilizes the atom-pairwise dispersion correction
with the zero-damping scheme (D30)
Cite in your paper:
S.Grimme, J.Antony, S.Ehrlich and H.Krieg, J.Chem.Phys., 132, (2010), 154104 
   

XCFun DFT library Copyright 2009-2010 Ulf Ekstrom and contributors.
See http://admol.org/xcfun for more information. This is free soft-
ware; see the source code for copying conditions. There is ABSOLUTELY
NO WARRANTY; not even for MERCHANTABILITY or FITNESS FOR A PARTICULAR
PURPOSE. For details see the documentation. Scientific users of this 
library should cite U. Ekstrom, L. Visscher, R. Bast, A. J. Thorvald-
sen and K. Ruud; J.Chem.Theor.Comp. 2010, DOI: 10.1021/ct100117s
XCFun Version 0.99 
----- Orbital basis set information -----
Your calculation utilizes the basis: def2-TZVP
   F. Weigend and R. Ahlrichs, Phys. Chem. Chem. Phys. 7, 3297 (2005).

================================================================================
                                        WARNINGS
                       Please study these warnings very carefully!
================================================================================


INFO   : the flag for use of LIBINT has been found!

Your calculation utilizes the atom-pairwise dispersion correction
with the zero-damping scheme (D30)
Cite in your paper:
S.Grimme, J.Antony, S.Ehrlich and H.Krieg, J.Chem.Phys., 132, (2010), 154104 
   

XCFun DFT library Copyright 2009-2010 Ulf Ekstrom and contributors.
See http://admol.org/xcfun for more information. This is free soft-
ware; see the source code for copying conditions. There is ABSOLUTELY
NO WARRANTY; not even for MERCHANTABILITY or FITNESS FOR A PARTICULAR
PURPOSE. For details see the documentation. Scientific users of this 
library should cite U. Ekstrom, L. Visscher, R. Bast, A. J. Thorvald-
sen and K. Ruud; J.Chem.Theor.Comp. 2010, DOI: 10.1021/ct100117s
XCFun Version 0.99 
----- Orbital basis set information -----
Your calculation utilizes the basis: def2-TZVP
   F. Weigend and R. Ahlrichs, Phys. Chem. Chem. Phys. 7, 3297 (2005).

================================================================================
                                        WARNINGS
                       Please study these warnings very carefully!
================================================================================


WARNING: MOInp is set but Guess=PModel. MOInp will be ignored!
         To read the initial guess from a file you must also specify
         'MORead' in the simple input or 'Guess MORead' in the %scf block


INFO   : the flag for use of LIBINT has been found!

Your calculation utilizes the atom-pairwise dispersion correction
with the zero-damping scheme (D30)
Cite in your paper:
S.Grimme, J.Antony, S.Ehrlich and H.Krieg, J.Chem.Phys., 132, (2010), 154104 
   

XCFun DFT library Copyright 2009-2010 Ulf Ekstrom and contributors.
See http://admol.org/xcfun for more information. This is free soft-
ware; see the source code for copying conditions. There is ABSOLUTELY
NO WARRANTY; not even for MERCHANTABILITY or FITNESS FOR A PARTICULAR
PURPOSE. For details see the documentation. Scientific users of this 
library should cite U. Ekstrom, L. Visscher, R. Bast, A. J. Thorvald-
sen and K. Ruud; J.Chem.Theor.Comp. 2010, DOI: 10.1021/ct100117s
XCFun Version 0.99 
----- Orbital basis set information -----
Your calculation utilizes the basis: def2-TZVP
   F. Weigend and R. Ahlrichs, Phys. Chem. Chem. Phys. 7, 3297 (2005).

================================================================================
                                        WARNINGS
                       Please study these warnings very carefully!
================================================================================


WARNING: MOInp is set but Guess=PModel. MOInp will be ignored!
         To read the initial guess from a file you must also specify
         'MORead' in the simple input or 'Guess MORead' in the %scf block


INFO   : the flag for use of LIBINT has been found!

================================================================================
                                       INPUT FILE
================================================================================
NAME = 22-200.in
|  1> #Run DFT-D3 single point of the dimer
|  2> ! wB97X-D3 def2-TZVP TIGHTSCF CHELPG PMODEL PAL8
|  3> 
|  4> %base "22-200_DFT_AB"
|  5> 
|  6> %scf
|  7> MaxIter 1000
|  8> end
|  9> 
| 10> * xyz 0 1
| 11>   C                      -2.909087            -1.969851            -1.924038           
| 12>   O                      -2.827686            -3.108893            -1.172780           
| 13>   H                      -1.951877            -3.521882            -1.234771           
| 14>   H                      -2.236090            -1.175061            -1.514189           
| 15>   H                      -2.615819            -2.207722            -2.943105           
| 16>   H                      -3.949701            -1.615946            -1.922414           
| 17>   C                      -1.039465            -5.980408            -0.633928           
| 18>   O                      -0.525125            -4.704031            -0.958731           
| 19>   H                      0.396405             -4.876705            -1.164711           
| 20>   H                      -0.893255            -6.150147            0.412700            
| 21>   H                      -2.104369            -6.036551            -0.840206           
| 22>   H                      -0.600930            -6.805543            -1.238624           
| 23> *
| 24> 
| 25> #Run DFT-D3 single point of the molecule with dimer basis set
| 26> $new_job
| 27> %base "22-200_DFT_A"
| 28> ! wB97X-D3 def2-TZVP TIGHTSCF CHELPG PMODEL
| 29> 
| 30> %scf
| 31> MaxIter 1000
| 32> end
| 33> 
| 34> * xyz 0 1
| 35>   C                      -2.909087            -1.969851            -1.924038           
| 36>   O                      -2.827686            -3.108893            -1.172780           
| 37>   H                      -1.951877            -3.521882            -1.234771           
| 38>   H                      -2.236090            -1.175061            -1.514189           
| 39>   H                      -2.615819            -2.207722            -2.943105           
| 40>   H                      -3.949701            -1.615946            -1.922414           
| 41>   C                    : -1.039465            -5.980408            -0.633928           
| 42>   O                    : -0.525125            -4.704031            -0.958731           
| 43>   H                    : 0.396405             -4.876705            -1.164711           
| 44>   H                    : -0.893255            -6.150147            0.412700            
| 45>   H                    : -2.104369            -6.036551            -0.840206           
| 46>   H                    : -0.600930            -6.805543            -1.238624           
| 47> *
| 48> 
| 49> #Run DFT-D3 single point of the particle with dimer basis set
| 50> $new_job
| 51> %base "22-200_DFT_B"
| 52> ! wB97X-D3 def2-TZVP TIGHTSCF CHELPG PMODEL
| 53> 
| 54> %scf
| 55> MaxIter 1000
| 56> end
| 57> 
| 58> * xyz 0 1
| 59>   C                    : -2.909087            -1.969851            -1.924038           
| 60>   O                    : -2.827686            -3.108893            -1.172780           
| 61>   H                    : -1.951877            -3.521882            -1.234771           
| 62>   H                    : -2.236090            -1.175061            -1.514189           
| 63>   H                    : -2.615819            -2.207722            -2.943105           
| 64>   H                    : -3.949701            -1.615946            -1.922414           
| 65>   C                      -1.039465            -5.980408            -0.633928           
| 66>   O                      -0.525125            -4.704031            -0.958731           
| 67>   H                      0.396405             -4.876705            -1.164711           
| 68>   H                      -0.893255            -6.150147            0.412700            
| 69>   H                      -2.104369            -6.036551            -0.840206           
| 70>   H                      -0.600930            -6.805543            -1.238624           
| 71> *
| 72> 
| 73>                          ****END OF INPUT****
================================================================================


                 $$$$$$$$$$$$$$$$$$$$$$$$$$$$$$$$$$$$$$$$$$$$$$ 
                 $ THERE ARE  3 JOBS TO BE PROCESSED THIS RUN $
                 $$$$$$$$$$$$$$$$$$$$$$$$$$$$$$$$$$$$$$$$$$$$$$ 




                 $$$$$$$$$$$$$$$$  JOB NUMBER  1 $$$$$$$$$$$$$$


                       ****************************
                       * Single Point Calculation *
                       ****************************

---------------------------------
CARTESIAN COORDINATES (ANGSTROEM)
---------------------------------
  C     -2.909087   -1.969851   -1.924038
  O     -2.827686   -3.108893   -1.172780
  H     -1.951877   -3.521882   -1.234771
  H     -2.236090   -1.175061   -1.514189
  H     -2.615819   -2.207722   -2.943105
  H     -3.949701   -1.615946   -1.922414
  C     -1.039465   -5.980408   -0.633928
  O     -0.525125   -4.704031   -0.958731
  H      0.396405   -4.876705   -1.164711
  H     -0.893255   -6.150147    0.412700
  H     -2.104369   -6.036551   -0.840206
  H     -0.600930   -6.805543   -1.238624

----------------------------
CARTESIAN COORDINATES (A.U.)
----------------------------
  NO LB      ZA    FRAG     MASS         X           Y           Z
   0 C     6.0000    0    12.011   -5.497378   -3.722479   -3.635905
   1 O     8.0000    0    15.999   -5.343552   -5.874956   -2.216233
   2 H     1.0000    0     1.008   -3.688513   -6.655392   -2.333379
   3 H     1.0000    0     1.008   -4.225598   -2.220543   -2.861403
   4 H     1.0000    0     1.008   -4.943182   -4.171990   -5.561662
   5 H     1.0000    0     1.008   -7.463853   -3.053695   -3.632836
   6 C     6.0000    0    12.011   -1.964304  -11.301333   -1.197950
   7 O     8.0000    0    15.999   -0.992342   -8.889330   -1.811739
   8 H     1.0000    0     1.008    0.749097   -9.215637   -2.200985
   9 H     1.0000    0     1.008   -1.688007  -11.622094    0.779890
  10 H     1.0000    0     1.008   -3.976681  -11.407428   -1.587759
  11 H     1.0000    0     1.008   -1.135593  -12.860612   -2.340660

--------------------------------
INTERNAL COORDINATES (ANGSTROEM)
--------------------------------
 C      0   0   0     0.000000000000     0.00000000     0.00000000
 O      1   0   0     1.366905769660     0.00000000     0.00000000
 H      2   1   0     0.970280476297   111.92073642     0.00000000
 H      1   2   3     1.119192704100   110.77438541   293.76374754
 H      1   2   3     1.086777936358   108.47565975    54.17916285
 H      1   2   3     1.099149163397   108.89739246   172.81032229
 C      3   2   1     2.690326757305   132.90783893   196.86284056
 O      7   3   2     1.413923926715    41.16002343   192.09768970
 H      8   7   3     0.959927919990   103.65800469   194.27234774
 H      7   3   2     1.070335864393   114.18201347   283.02247494
 H      7   3   2     1.086150624430    70.87137481    24.88753177
 H      7   3   2     1.113021997476   133.61113146   116.45977730

---------------------------
INTERNAL COORDINATES (A.U.)
---------------------------
 C      0   0   0     0.000000000000     0.00000000     0.00000000
 O      1   0   0     2.583077555534     0.00000000     0.00000000
 H      2   1   0     1.833564373292   111.92073642     0.00000000
 H      1   2   3     2.114967701831   110.77438541   293.76374754
 H      1   2   3     2.053712668104   108.47565975    54.17916285
 H      1   2   3     2.077090899150   108.89739246   172.81032229
 C      3   2   1     5.083980782066   132.90783893   196.86284056
 O      7   3   2     2.671928995690    41.16002343   192.09768970
 H      8   7   3     1.814000877085   103.65800469   194.27234774
 H      7   3   2     2.022641655016   114.18201347   283.02247494
 H      7   3   2     2.052527220360    70.87137481    24.88753177
 H      7   3   2     2.103306756260   133.61113146   116.45977730

---------------------
BASIS SET INFORMATION
---------------------
There are 3 groups of distinct atoms

 Group   1 Type C   : 11s6p2d1f contracted to 5s3p2d1f pattern {62111/411/11/1}
 Group   2 Type O   : 11s6p2d1f contracted to 5s3p2d1f pattern {62111/411/11/1}
 Group   3 Type H   : 5s1p contracted to 3s1p pattern {311/1}

Atom   0C    basis set group =>   1
Atom   1O    basis set group =>   2
Atom   2H    basis set group =>   3
Atom   3H    basis set group =>   3
Atom   4H    basis set group =>   3
Atom   5H    basis set group =>   3
Atom   6C    basis set group =>   1
Atom   7O    basis set group =>   2
Atom   8H    basis set group =>   3
Atom   9H    basis set group =>   3
Atom  10H    basis set group =>   3
Atom  11H    basis set group =>   3


           ************************************************************
           *        Program running with 8 parallel MPI-processes     *
           *              working on a common directory               *
           ************************************************************
------------------------------------------------------------------------------
                           ORCA GTO INTEGRAL CALCULATION
------------------------------------------------------------------------------

                         BASIS SET STATISTICS AND STARTUP INFO

 # of primitive gaussian shells          ...  128
 # of primitive gaussian functions       ...  248
 # of contracted shells                  ...   76
 # of contracted basis functions         ...  172
 Highest angular momentum                ...    3
 Maximum contraction depth               ...    6
 Integral package used                   ... LIBINT
 Integral threshhold            Thresh   ...  2.500e-11
 Primitive cut-off              TCut     ...  2.500e-12


------------------------------ INTEGRAL EVALUATION ----------------------------


 * One electron integrals 
 Pre-screening matrix                    ... done
 Shell pair data                         ... done (   0.001 sec)



           ************************************************************
           *        Program running with 8 parallel MPI-processes     *
           *              working on a common directory               *
           ************************************************************
-------------------------------------------------------------------------------
                                 ORCA SCF
-------------------------------------------------------------------------------

------------
SCF SETTINGS
------------
Hamiltonian:
 Density Functional     Method          .... DFT(GTOs)
 Exchange Functional    Exchange        .... WB97X-D3
 Correlation Functional Correlation     .... WB97X-D3
 Gradients option       PostSCFGGA      .... off
 Hybrid DFT is turned on
   Fraction HF Exchange ScalHFX         ....  0.195728
   Scaling of DF-GGA-X  ScalDFX         ....  0.000000
   Scaling of DF-GGA-C  ScalDFC         ....  1.000000
   Scaling of DF-LDA-C  ScalLDAC        ....  1.000000
   Perturbative correction              ....  0.000000
   Density functional embedding theory  .... OFF
 Long-range corrected/Screened/Range-Separated Hybrid DFT is turned on
   Amount of maximum screened exact exchange              ....  0.804272
   Range separation parameter mu (erf(mu*r12)/r12)        ....  0.250000


General Settings:
 Integral files         IntName         .... 22-200_DFT_AB
 Hartree-Fock type      HFTyp           .... RHF
 Total Charge           Charge          ....    0
 Multiplicity           Mult            ....    1
 Number of Electrons    NEL             ....   36
 Basis Dimension        Dim             ....  172
 Nuclear Repulsion      ENuc            ....    129.4946435657 Eh

Convergence Acceleration:
 DIIS                   CNVDIIS         .... on
   Start iteration      DIISMaxIt       ....    12
   Startup error        DIISStart       ....  0.200000
   # of expansion vecs  DIISMaxEq       ....     5
   Bias factor          DIISBfac        ....   1.050
   Max. coefficient     DIISMaxC        ....  10.000
 Newton-Raphson         CNVNR           .... off
 SOSCF                  CNVSOSCF        .... on
   Start iteration      SOSCFMaxIt      ....   150
   Startup grad/error   SOSCFStart      ....  0.003300
 Level Shifting         CNVShift        .... on
   Level shift para.    LevelShift      ....    0.2500
   Turn off err/grad.   ShiftErr        ....    0.0010
 Zerner damping         CNVZerner       .... off
 Static damping         CNVDamp         .... on
   Fraction old density DampFac         ....    0.7000
   Max. Damping (<1)    DampMax         ....    0.9800
   Min. Damping (>=0)   DampMin         ....    0.0000
   Turn off err/grad.   DampErr         ....    0.1000
 Fernandez-Rico         CNVRico         .... off

SCF Procedure:
 Maximum # iterations   MaxIter         ....  1000
 SCF integral mode      SCFMode         .... Direct
   Integral package                     .... LIBINT
 Reset frequency        DirectResetFreq ....    20
 Integral Threshold     Thresh          ....  2.500e-11 Eh
 Primitive CutOff       TCut            ....  2.500e-12 Eh

Convergence Tolerance:
 Convergence Check Mode ConvCheckMode   .... Total+1el-Energy
 Convergence forced     ConvForced      .... 0
 Energy Change          TolE            ....  1.000e-08 Eh
 1-El. energy change                    ....  1.000e-05 Eh
 Orbital Gradient       TolG            ....  1.000e-05
 Orbital Rotation angle TolX            ....  1.000e-05
 DIIS Error             TolErr          ....  5.000e-07


Diagonalization of the overlap matrix:
Smallest eigenvalue                        ... 1.425e-03
Time for diagonalization                   ...    0.004 sec
Threshold for overlap eigenvalues          ... 1.000e-08
Number of eigenvalues below threshold      ... 0
Time for construction of square roots      ...    0.004 sec
Total time needed                          ...    0.008 sec

-------------------
DFT GRID GENERATION
-------------------

General Integration Accuracy     IntAcc      ...  4.340
Radial Grid Type                 RadialGrid  ... Gauss-Chebyshev
Angular Grid (max. acc.)         AngularGrid ... Lebedev-110
Angular grid pruning method      GridPruning ... 3 (G Style)
Weight generation scheme         WeightScheme... Becke
Basis function cutoff            BFCut       ...    1.0000e-11
Integration weight cutoff        WCut        ...    1.0000e-14
Grids for H and He will be reduced by one unit

# of grid points (after initial pruning)     ...  13096 (   0.0 sec)
# of grid points (after weights+screening)   ...  12515 (   0.0 sec)
nearest neighbour list constructed           ...    0.0 sec
Grid point re-assignment to atoms done       ...    0.0 sec
Grid point division into batches done        ...    0.0 sec
Reduced shell lists constructed in    0.0 sec

Total number of grid points                  ...    12515
Total number of batches                      ...      201
Average number of points per batch           ...       62
Average number of grid points per atom       ...     1043
Average number of shells per batch           ...    54.85 (72.17%)
Average number of basis functions per batch  ...   123.67 (71.90%)
Average number of large shells per batch     ...    44.44 (81.03%)
Average number of large basis fcns per batch ...    98.74 (79.84%)
Maximum spatial batch extension              ...   8.67,  7.82, 12.63 au
Average spatial batch extension              ...   0.28,  0.28,  0.33 au

Time for grid setup =    0.037 sec

------------------------------
INITIAL GUESS: MODEL POTENTIAL
------------------------------
Loading Hartree-Fock densities                     ... done
Calculating cut-offs                               ... done
Setting up the integral package                    ... done
Initializing the effective Hamiltonian             ... done
Starting the Coulomb interaction                   ... done (   0.0 sec)
Reading the grid                                   ... done
Mapping shells                                     ... done
Starting the XC term evaluation                    ... done (   0.0 sec)
  promolecular density results
     # of electrons  =     35.999608093
     EX              =    -28.883856482
     EC              =     -1.159144698
     EX+EC           =    -30.043001180
Transforming the Hamiltonian                       ... done (   0.0 sec)
Diagonalizing the Hamiltonian                      ... done (   0.0 sec)
Back transforming the eigenvectors                 ... done (   0.0 sec)
Now organizing SCF variables                       ... done
                      ------------------
                      INITIAL GUESS DONE (   0.1 sec)
                      ------------------
--------------
SCF ITERATIONS
--------------
ITER       Energy         Delta-E        Max-DP      RMS-DP      [F,P]     Damp
               ***  Starting incremental Fock matrix formation  ***
  0   -231.3099053261   0.000000000000 0.03688851  0.00105544  0.2545987 0.7000
  1   -231.3809844478  -0.071079121655 0.02203690  0.00075371  0.1273664 0.7000
                               ***Turning on DIIS***
  2   -231.4140229985  -0.033038550717 0.03508113  0.00137537  0.0495656 0.0000
  3   -231.4675869219  -0.053563923406 0.01756355  0.00048674  0.0618405 0.0000
  4   -231.4763003633  -0.008713441404 0.00417625  0.00009477  0.0064290 0.0000
                      *** Initiating the SOSCF procedure ***
                           *** Shutting down DIIS ***
                      *** Re-Reading the Fockian *** 
                      *** Removing any level shift *** 
ITER      Energy       Delta-E        Grad      Rot      Max-DP    RMS-DP
  5   -231.47648074  -0.0001803762  0.000467  0.000467  0.000800  0.000034
               *** Restarting incremental Fock matrix formation ***
  6   -231.47649834  -0.0000175977  0.000142  0.000204  0.000501  0.000020
  7   -231.47649999  -0.0000016578  0.000063  0.000125  0.000237  0.000009
  8   -231.47650014  -0.0000001425  0.000026  0.000023  0.000038  0.000001
  9   -231.47650016  -0.0000000226  0.000009  0.000007  0.000015  0.000001
 10   -231.47650016  -0.0000000025  0.000003  0.000004  0.000005  0.000000
                  ***Gradient check signals convergence***
              ***Rediagonalizing the Fockian in SOSCF/NRSCF***

               *****************************************************
               *                     SUCCESS                       *
               *           SCF CONVERGED AFTER  11 CYCLES          *
               *****************************************************

Setting up the final grid:

General Integration Accuracy     IntAcc      ...  4.670
Radial Grid Type                 RadialGrid  ... Gauss-Chebyshev
Angular Grid (max. acc.)         AngularGrid ... Lebedev-302
Angular grid pruning method      GridPruning ... 3 (G Style)
Weight generation scheme         WeightScheme... Becke
Basis function cutoff            BFCut       ...    1.0000e-11
Integration weight cutoff        WCut        ...    1.0000e-14
Grids for H and He will be reduced by one unit

# of grid points (after initial pruning)     ...  52000 (   0.0 sec)
# of grid points (after weights+screening)   ...  49150 (   0.0 sec)
nearest neighbour list constructed           ...    0.0 sec
Grid point re-assignment to atoms done       ...    0.0 sec
Grid point division into batches done        ...    0.2 sec
Reduced shell lists constructed in    0.2 sec

Total number of grid points                  ...    49150
Total number of batches                      ...      774
Average number of points per batch           ...       63
Average number of grid points per atom       ...     4096
Average number of shells per batch           ...    52.88 (69.58%)
Average number of basis functions per batch  ...   117.86 (68.52%)
Average number of large shells per batch     ...    42.93 (81.18%)
Average number of large basis fcns per batch ...    95.03 (80.63%)
Maximum spatial batch extension              ...  11.62,  9.08, 17.45 au
Average spatial batch extension              ...   0.20,  0.19,  0.21 au

Final grid set up in    0.3 sec
Final integration                            ... done (   0.1 sec)
Change in XC energy                          ...    -0.000184668
Integrated number of electrons               ...    35.999976022
Previous integrated no of electrons          ...    36.001924983

----------------
TOTAL SCF ENERGY
----------------

Total Energy       :         -231.47668483 Eh           -6298.80082 eV

Components:
Nuclear Repulsion  :          129.49464357 Eh            3523.72839 eV
Electronic Energy  :         -360.97132840 Eh           -9822.52921 eV
One Electron Energy:         -571.86992882 Eh          -15561.37189 eV
Two Electron Energy:          210.89860042 Eh            5738.84267 eV

Virial components:
Potential Energy   :         -462.06460683 Eh          -12573.41717 eV
Kinetic Energy     :          230.58792200 Eh            6274.61635 eV
Virial Ratio       :            2.00385433


DFT components:
N(Alpha)           :       17.999988011033 electrons
N(Beta)            :       17.999988011033 electrons
N(Total)           :       35.999976022066 electrons
E(XC)              :      -21.331921347944 Eh       
DFET-embed. en.    :        0.000000000000 Eh       

---------------
SCF CONVERGENCE
---------------

  Last Energy change         ...   -1.4643e-10  Tolerance :   1.0000e-08
  Last MAX-Density change    ...    2.4030e-06  Tolerance :   1.0000e-07
  Last RMS-Density change    ...    8.5247e-08  Tolerance :   5.0000e-09
  Last Orbital Gradient      ...    1.1705e-06  Tolerance :   1.0000e-05
  Last Orbital Rotation      ...    1.4883e-06  Tolerance :   1.0000e-05

             **** THE GBW FILE WAS UPDATED (22-200_DFT_AB.gbw) ****
             **** DENSITY FILE WAS UPDATED (22-200_DFT_AB.scfp.tmp) ****
             **** ENERGY FILE WAS UPDATED (22-200_DFT_AB.en.tmp) ****
----------------
ORBITAL ENERGIES
----------------

  NO   OCC          E(Eh)            E(eV) 
   0   2.0000     -19.256800      -524.0042 
   1   2.0000     -19.195537      -522.3371 
   2   2.0000     -10.322499      -280.8895 
   3   2.0000     -10.292584      -280.0755 
   4   2.0000      -1.164085       -31.6764 
   5   2.0000      -1.118296       -30.4304 
   6   2.0000      -0.808893       -22.0111 
   7   2.0000      -0.770589       -20.9688 
   8   2.0000      -0.635978       -17.3058 
   9   2.0000      -0.592702       -16.1282 
  10   2.0000      -0.562597       -15.3090 
  11   2.0000      -0.542113       -14.7516 
  12   2.0000      -0.526873       -14.3370 
  13   2.0000      -0.512198       -13.9376 
  14   2.0000      -0.459017       -12.4905 
  15   2.0000      -0.401670       -10.9300 
  16   2.0000      -0.393849       -10.7172 
  17   2.0000      -0.343319        -9.3422 
  18   0.0000       0.099926         2.7191 
  19   0.0000       0.145570         3.9612 
  20   0.0000       0.153712         4.1827 
  21   0.0000       0.182026         4.9532 
  22   0.0000       0.199963         5.4413 
  23   0.0000       0.213920         5.8211 
  24   0.0000       0.216664         5.8957 
  25   0.0000       0.217516         5.9189 
  26   0.0000       0.231887         6.3100 
  27   0.0000       0.278320         7.5735 
  28   0.0000       0.296583         8.0704 
  29   0.0000       0.311055         8.4642 
  30   0.0000       0.324368         8.8265 
  31   0.0000       0.359259         9.7759 
  32   0.0000       0.387127        10.5343 
  33   0.0000       0.437681        11.9099 
  34   0.0000       0.464801        12.6479 
  35   0.0000       0.475927        12.9506 
  36   0.0000       0.490116        13.3367 
  37   0.0000       0.503400        13.6982 
  38   0.0000       0.525859        14.3094 
  39   0.0000       0.536230        14.5916 
  40   0.0000       0.555588        15.1183 
  41   0.0000       0.566159        15.4060 
  42   0.0000       0.586638        15.9632 
  43   0.0000       0.593652        16.1541 
  44   0.0000       0.606659        16.5080 
  45   0.0000       0.632028        17.1984 
  46   0.0000       0.642381        17.4801 
  47   0.0000       0.665827        18.1181 
  48   0.0000       0.737131        20.0584 
  49   0.0000       0.752455        20.4754 
  50   0.0000       0.814546        22.1649 
  51   0.0000       0.818490        22.2722 
  52   0.0000       0.854852        23.2617 
  53   0.0000       0.880576        23.9617 
  54   0.0000       0.918060        24.9817 
  55   0.0000       0.930948        25.3324 
  56   0.0000       0.991650        26.9842 
  57   0.0000       1.017139        27.6777 
  58   0.0000       1.035749        28.1842 
  59   0.0000       1.098217        29.8840 
  60   0.0000       1.120389        30.4873 
  61   0.0000       1.164639        31.6914 
  62   0.0000       1.348912        36.7058 
  63   0.0000       1.422285        38.7024 
  64   0.0000       1.470757        40.0213 
  65   0.0000       1.537944        41.8496 
  66   0.0000       1.551580        42.2207 
  67   0.0000       1.577274        42.9198 
  68   0.0000       1.594966        43.4012 
  69   0.0000       1.618958        44.0541 
  70   0.0000       1.627780        44.2941 
  71   0.0000       1.631201        44.3872 
  72   0.0000       1.645446        44.7749 
  73   0.0000       1.661122        45.2014 
  74   0.0000       1.679699        45.7069 
  75   0.0000       1.688556        45.9480 
  76   0.0000       1.734516        47.1986 
  77   0.0000       1.744192        47.4619 
  78   0.0000       1.770618        48.1810 
  79   0.0000       1.922325        52.3091 
  80   0.0000       1.959442        53.3191 
  81   0.0000       1.993115        54.2354 
  82   0.0000       2.031238        55.2728 
  83   0.0000       2.042651        55.5833 
  84   0.0000       2.064031        56.1651 
  85   0.0000       2.087023        56.7908 
  86   0.0000       2.099462        57.1293 
  87   0.0000       2.135235        58.1027 
  88   0.0000       2.158925        58.7473 
  89   0.0000       2.192584        59.6632 
  90   0.0000       2.235688        60.8362 
  91   0.0000       2.274794        61.9003 
  92   0.0000       2.322784        63.2062 
  93   0.0000       2.374990        64.6268 
  94   0.0000       2.385704        64.9183 
  95   0.0000       2.398575        65.2685 
  96   0.0000       2.411640        65.6241 
  97   0.0000       2.423121        65.9365 
  98   0.0000       2.436305        66.2952 
  99   0.0000       2.502400        68.0938 
 100   0.0000       2.533911        68.9512 
 101   0.0000       2.550394        69.3998 
 102   0.0000       2.583787        70.3084 
 103   0.0000       2.620600        71.3101 
 104   0.0000       2.652218        72.1705 
 105   0.0000       2.656173        72.2781 
 106   0.0000       2.672782        72.7301 
 107   0.0000       2.746635        74.7397 
 108   0.0000       2.823058        76.8193 
 109   0.0000       2.861127        77.8552 
 110   0.0000       2.887040        78.5603 
 111   0.0000       2.940613        80.0181 
 112   0.0000       2.944987        80.1372 
 113   0.0000       2.960848        80.5688 
 114   0.0000       3.035037        82.5875 
 115   0.0000       3.060100        83.2695 
 116   0.0000       3.094539        84.2067 
 117   0.0000       3.142449        85.5104 
 118   0.0000       3.198242        87.0286 
 119   0.0000       3.226405        87.7950 
 120   0.0000       3.265190        88.8503 
 121   0.0000       3.345733        91.0420 
 122   0.0000       3.383546        92.0710 
 123   0.0000       3.437431        93.5373 
 124   0.0000       3.448729        93.8447 
 125   0.0000       3.493893        95.0737 
 126   0.0000       3.502860        95.3177 
 127   0.0000       3.541743        96.3757 
 128   0.0000       3.615842        98.3921 
 129   0.0000       3.630970        98.8037 
 130   0.0000       3.658244        99.5459 
 131   0.0000       3.676136       100.0327 
 132   0.0000       3.707819       100.8949 
 133   0.0000       3.726257       101.3966 
 134   0.0000       4.007950       109.0619 
 135   0.0000       4.062262       110.5398 
 136   0.0000       4.223429       114.9253 
 137   0.0000       4.233461       115.1983 
 138   0.0000       4.289400       116.7205 
 139   0.0000       4.302838       117.0862 
 140   0.0000       4.439366       120.8013 
 141   0.0000       4.473575       121.7322 
 142   0.0000       4.535232       123.4099 
 143   0.0000       4.614178       125.5582 
 144   0.0000       5.339567       145.2970 
 145   0.0000       5.381862       146.4479 
 146   0.0000       5.434069       147.8685 
 147   0.0000       5.480007       149.1186 
 148   0.0000       5.523653       150.3062 
 149   0.0000       5.612233       152.7166 
 150   0.0000       5.759952       156.7363 
 151   0.0000       5.809958       158.0970 
 152   0.0000       5.929774       161.3574 
 153   0.0000       5.934534       161.4869 
 154   0.0000       5.986376       162.8976 
 155   0.0000       6.072001       165.2275 
 156   0.0000       6.319018       171.9492 
 157   0.0000       6.383831       173.7129 
 158   0.0000       6.549669       178.2256 
 159   0.0000       6.588505       179.2823 
 160   0.0000       6.755869       183.8365 
 161   0.0000       6.787183       184.6886 
 162   0.0000       6.839786       186.1200 
 163   0.0000       6.880173       187.2190 
 164   0.0000       7.026295       191.1952 
 165   0.0000       7.108302       193.4267 
 166   0.0000       7.194752       195.7792 
 167   0.0000       7.322435       199.2536 
 168   0.0000      22.418277       610.0323 
 169   0.0000      22.531927       613.1249 
 170   0.0000      43.686336      1188.7656 
 171   0.0000      43.801152      1191.8899 

                    ********************************
                    * MULLIKEN POPULATION ANALYSIS *
                    ********************************

-----------------------
MULLIKEN ATOMIC CHARGES
-----------------------
   0 C :   -0.132607
   1 O :   -0.493975
   2 H :    0.334707
   3 H :    0.080515
   4 H :    0.084321
   5 H :    0.106229
   6 C :   -0.174691
   7 O :   -0.496910
   8 H :    0.325978
   9 H :    0.115381
  10 H :    0.142326
  11 H :    0.108726
Sum of atomic charges:   -0.0000000

--------------------------------
MULLIKEN REDUCED ORBITAL CHARGES
--------------------------------
  0 C s       :     3.219813  s :     3.219813
      pz      :     0.926760  p :     2.799689
      px      :     1.069102
      py      :     0.803827
      dz2     :     0.031211  d :     0.104498
      dxz     :     0.009366
      dyz     :     0.015303
      dx2y2   :     0.017589
      dxy     :     0.031029
      f0      :     0.000776  f :     0.008606
      f+1     :     0.000207
      f-1     :     0.002865
      f+2     :     0.000941
      f-2     :     0.001436
      f+3     :     0.001341
      f-3     :     0.001041
  1 O s       :     3.775095  s :     3.775095
      pz      :     1.741722  p :     4.686849
      px      :     1.493540
      py      :     1.451586
      dz2     :     0.005749  d :     0.030266
      dxz     :     0.002609
      dyz     :     0.007342
      dx2y2   :     0.008250
      dxy     :     0.006316
      f0      :     0.000214  f :     0.001765
      f+1     :     0.000182
      f-1     :     0.000335
      f+2     :     0.000282
      f-2     :     0.000189
      f+3     :     0.000171
      f-3     :     0.000392
  2 H s       :     0.611384  s :     0.611384
      pz      :     0.013832  p :     0.053910
      px      :     0.023909
      py      :     0.016169
  3 H s       :     0.900916  s :     0.900916
      pz      :     0.004374  p :     0.018569
      px      :     0.006577
      py      :     0.007619
  4 H s       :     0.895931  s :     0.895931
      pz      :     0.011598  p :     0.019748
      px      :     0.004478
      py      :     0.003672
  5 H s       :     0.874378  s :     0.874378
      pz      :     0.003602  p :     0.019393
      px      :     0.011744
      py      :     0.004047
  6 C s       :     3.224383  s :     3.224383
      pz      :     1.046005  p :     2.848955
      px      :     1.067290
      py      :     0.735659
      dz2     :     0.015919  d :     0.093681
      dxz     :     0.008168
      dyz     :     0.025729
      dx2y2   :     0.026152
      dxy     :     0.017713
      f0      :     0.001337  f :     0.007672
      f+1     :     0.000317
      f-1     :     0.001129
      f+2     :     0.000966
      f-2     :     0.000699
      f+3     :     0.001620
      f-3     :     0.001604
  7 O s       :     3.802912  s :     3.802912
      pz      :     1.860832  p :     4.662785
      px      :     1.359084
      py      :     1.442869
      dz2     :     0.004035  d :     0.029585
      dxz     :     0.001750
      dyz     :     0.004772
      dx2y2   :     0.012860
      dxy     :     0.006167
      f0      :     0.000278  f :     0.001628
      f+1     :     0.000299
      f-1     :     0.000251
      f+2     :     0.000206
      f-2     :     0.000100
      f+3     :     0.000282
      f-3     :     0.000213
  8 H s       :     0.626538  s :     0.626538
      pz      :     0.017296  p :     0.047484
      px      :     0.018833
      py      :     0.011355
  9 H s       :     0.863766  s :     0.863766
      pz      :     0.012830  p :     0.020853
      px      :     0.004516
      py      :     0.003507
 10 H s       :     0.837353  s :     0.837353
      pz      :     0.004595  p :     0.020320
      px      :     0.012735
      py      :     0.002990
 11 H s       :     0.872491  s :     0.872491
      pz      :     0.006088  p :     0.018783
      px      :     0.004897
      py      :     0.007797


                     *******************************
                     * LOEWDIN POPULATION ANALYSIS *
                     *******************************

----------------------
LOEWDIN ATOMIC CHARGES
----------------------
   0 C :   -0.426872
   1 O :   -0.058136
   2 H :    0.162194
   3 H :    0.092611
   4 H :    0.087687
   5 H :    0.105767
   6 C :   -0.379652
   7 O :   -0.072154
   8 H :    0.177320
   9 H :    0.095806
  10 H :    0.112040
  11 H :    0.103389

-------------------------------
LOEWDIN REDUCED ORBITAL CHARGES
-------------------------------
  0 C s       :     2.859869  s :     2.859869
      pz      :     1.018585  p :     3.046748
      px      :     1.096080
      py      :     0.932082
      dz2     :     0.134362  d :     0.453524
      dxz     :     0.029801
      dyz     :     0.094499
      dx2y2   :     0.083161
      dxy     :     0.111702
      f0      :     0.004912  f :     0.066731
      f+1     :     0.003270
      f-1     :     0.018723
      f+2     :     0.011139
      f-2     :     0.011591
      f+3     :     0.008564
      f-3     :     0.008532
  1 O s       :     3.333764  s :     3.333764
      pz      :     1.691001  p :     4.642324
      px      :     1.477272
      py      :     1.474052
      dz2     :     0.015502  d :     0.076952
      dxz     :     0.005157
      dyz     :     0.017697
      dx2y2   :     0.018085
      dxy     :     0.020511
      f0      :     0.000378  f :     0.005095
      f+1     :     0.000382
      f-1     :     0.001144
      f+2     :     0.000833
      f-2     :     0.000720
      f+3     :     0.000706
      f-3     :     0.000933
  2 H s       :     0.666749  s :     0.666749
      pz      :     0.039771  p :     0.171056
      px      :     0.087813
      py      :     0.043473
  3 H s       :     0.852092  s :     0.852092
      pz      :     0.013441  p :     0.055297
      px      :     0.020073
      py      :     0.021783
  4 H s       :     0.851758  s :     0.851758
      pz      :     0.033850  p :     0.060555
      px      :     0.015057
      py      :     0.011649
  5 H s       :     0.837087  s :     0.837087
      pz      :     0.011126  p :     0.057145
      px      :     0.034450
      py      :     0.011569
  6 C s       :     2.858935  s :     2.858935
      pz      :     1.089954  p :     3.058001
      px      :     1.087027
      py      :     0.881020
      dz2     :     0.081947  d :     0.405774
      dxz     :     0.019166
      dyz     :     0.110939
      dx2y2   :     0.122684
      dxy     :     0.071039
      f0      :     0.007384  f :     0.056943
      f+1     :     0.003043
      f-1     :     0.007609
      f+2     :     0.007707
      f-2     :     0.009069
      f+3     :     0.011262
      f-3     :     0.010869
  7 O s       :     3.364738  s :     3.364738
      pz      :     1.764752  p :     4.631443
      px      :     1.352719
      py      :     1.513972
      dz2     :     0.008889  d :     0.071189
      dxz     :     0.004618
      dyz     :     0.012918
      dx2y2   :     0.029675
      dxy     :     0.015088
      f0      :     0.000487  f :     0.004784
      f+1     :     0.000439
      f-1     :     0.000570
      f+2     :     0.000528
      f-2     :     0.000370
      f+3     :     0.001094
      f-3     :     0.001297
  8 H s       :     0.665051  s :     0.665051
      pz      :     0.047421  p :     0.157629
      px      :     0.074828
      py      :     0.035380
  9 H s       :     0.839751  s :     0.839751
      pz      :     0.038634  p :     0.064444
      px      :     0.014962
      py      :     0.010848
 10 H s       :     0.826133  s :     0.826133
      pz      :     0.014344  p :     0.061827
      px      :     0.038256
      py      :     0.009226
 11 H s       :     0.839021  s :     0.839021
      pz      :     0.018734  p :     0.057591
      px      :     0.015557
      py      :     0.023300


                      *****************************
                      * MAYER POPULATION ANALYSIS *
                      *****************************

  NA   - Mulliken gross atomic population
  ZA   - Total nuclear charge
  QA   - Mulliken gross atomic charge
  VA   - Mayer's total valence
  BVA  - Mayer's bonded valence
  FA   - Mayer's free valence

  ATOM       NA         ZA         QA         VA         BVA        FA
  0 C      6.1326     6.0000    -0.1326     3.9675     3.9675     0.0000
  1 O      8.4940     8.0000    -0.4940     1.8500     1.8500    -0.0000
  2 H      0.6653     1.0000     0.3347     0.9128     0.9128     0.0000
  3 H      0.9195     1.0000     0.0805     0.9608     0.9608    -0.0000
  4 H      0.9157     1.0000     0.0843     0.9636     0.9636     0.0000
  5 H      0.8938     1.0000     0.1062     0.9567     0.9567     0.0000
  6 C      6.1747     6.0000    -0.1747     3.8781     3.8781    -0.0000
  7 O      8.4969     8.0000    -0.4969     1.8884     1.8884    -0.0000
  8 H      0.6740     1.0000     0.3260     0.9073     0.9073    -0.0000
  9 H      0.8846     1.0000     0.1154     0.9584     0.9584    -0.0000
 10 H      0.8577     1.0000     0.1423     0.9672     0.9672    -0.0000
 11 H      0.8913     1.0000     0.1087     0.9591     0.9591    -0.0000

  Mayer bond orders larger than 0.1
B(  0-C ,  1-O ) :   1.0176 B(  0-C ,  3-H ) :   0.9782 B(  0-C ,  4-H ) :   0.9861 
B(  0-C ,  5-H ) :   0.9727 B(  1-O ,  2-H ) :   0.8481 B(  6-C ,  7-O ) :   0.9500 
B(  6-C ,  9-H ) :   0.9761 B(  6-C , 10-H ) :   0.9738 B(  6-C , 11-H ) :   0.9748 
B(  7-O ,  8-H ) :   0.8922 

-------
TIMINGS
-------

Total SCF time: 0 days 0 hours 0 min 18 sec 

Total time                  ....      18.055 sec
Sum of individual times     ....      17.502 sec  ( 96.9%)

Fock matrix formation       ....      16.711 sec  ( 92.6%)
  XC integration            ....       6.529 sec  ( 39.1% of F)
    Basis function eval.    ....       0.065 sec  (  1.0% of XC)
    Density eval.           ....       0.140 sec  (  2.1% of XC)
    XC-Functional eval.     ....       0.136 sec  (  2.1% of XC)
    XC-Potential eval.      ....       0.076 sec  (  1.2% of XC)
Diagonalization             ....       0.135 sec  (  0.7%)
Density matrix formation    ....       0.005 sec  (  0.0%)
Population analysis         ....       0.073 sec  (  0.4%)
Initial guess               ....       0.095 sec  (  0.5%)
Orbital Transformation      ....       0.000 sec  (  0.0%)
Orbital Orthonormalization  ....       0.000 sec  (  0.0%)
DIIS solution               ....       0.069 sec  (  0.4%)
SOSCF solution              ....       0.103 sec  (  0.6%)
Grid generation             ....       0.311 sec  (  1.7%)


-------------------------------------------------------------------------------
                          DFT DISPERSION CORRECTION                            
                                                                               
                              DFTD3 V3.1  Rev 1                                
                              USING zero damping                               
-------------------------------------------------------------------------------
The omegaB97X-D3 functional is recognized. Fit by Chai et al.
Active option DFTDOPT                   ...         3   

molecular C6(AA) [au] = 834.729790 


            DFT-D V3
 parameters
 s6 scaling factor         :     1.0000 
 rs6 scaling factor        :     1.2810 
 s8 scaling factor         :     1.0000 
 rs8 scaling factor        :     1.0940 
 Damping factor alpha6     :    14.0000 
 Damping factor alpha8     :    16.0000 
 ad hoc parameters k1-k3   :    16.0000     1.3333    -4.0000 

 Edisp/kcal,au: -1.001119826618  -0.001595385825 
 E6   /kcal   :  -0.435294176 
 E8   /kcal   :  -0.565825650 
 % E8         :  56.519273249 

-------------------------   ----------------
Dispersion correction           -0.001595386
-------------------------   ----------------


-------------------------   --------------------
FINAL SINGLE POINT ENERGY      -231.478280216792
-------------------------   --------------------


                            ***************************************
                            *     ORCA property calculations      *
                            ***************************************

                                    ---------------------
                                    Active property flags
                                    ---------------------
   (+) Dipole Moment


------------------------------------------------------------------------------
                       ORCA ELECTRIC PROPERTIES CALCULATION
------------------------------------------------------------------------------

Dipole Moment Calculation                       ... on
Quadrupole Moment Calculation                   ... off
Polarizability Calculation                      ... off
GBWName                                         ... 22-200_DFT_AB.gbw
Electron density file                           ... 22-200_DFT_AB.scfp.tmp
The origin for moment calculation is the CENTER OF MASS  = (-3.395131, -7.464607 -2.222078)

-------------
DIPOLE MOMENT
-------------
                                X             Y             Z
Electronic contribution:      0.64819       0.03774       0.70508
Nuclear contribution   :      0.39512      -0.73870      -0.97088
                        -----------------------------------------
Total Dipole Moment    :      1.04331      -0.70097      -0.26580
                        -----------------------------------------
Magnitude (a.u.)       :      1.28472
Magnitude (Debye)      :      3.26549



--------------------
Rotational spectrum 
--------------------
 
Rotational constants in cm-1:     0.703367     0.074198     0.069551 
Rotational constants in MHz : 21086.398368  2224.386396  2085.091362 

 Dipole components along the rotational axes: 
x,y,z [a.u.] :     1.064608     0.616028     0.370972 
x,y,z [Debye]:     2.706018     1.565819     0.942935 

 
------------------------------------------------------------------------------
                      ORCA CHELPG CHARGES GENERATION
------------------------------------------------------------------------------

GBW file                           ... 22-200_DFT_AB.gbw

Reading the GBW file               ... done

Grid spacing                       ...     0.300000
Point Cut-Off                      ...     2.800000
Van-der-Waals Radii                ...        COSMO
Total charge                       ...            0


Number of points X direction       ...           33
Number of points Y direction       ...           37
Number of points Z direction       ...           29
Maximum number of possible points  ...        35409
Final number of points             ...         9957


CHELPG Charges            
--------------------------------
  0   C   :      -0.115083
  1   O   :      -0.547954
  2   H   :       0.447059
  3   H   :       0.050060
  4   H   :       0.050492
  5   H   :       0.117789
  6   C   :      -0.023321
  7   O   :      -0.614180
  8   H   :       0.427862
  9   H   :       0.069023
 10   H   :       0.083738
 11   H   :       0.054514
--------------------------------
Total charge:    -0.000000
--------------------------------

CHELPG charges calculated...

Timings for individual parts in CHELPG calculation:
Grid generation                 ...        0.002 sec (=   0.000 min)
Potential calculation           ...        2.197 sec (=   0.037 min)
Fit to the potential            ...        0.003 sec (=   0.000 min)
------------------------------------------------------------------------------


Timings for individual modules:

Sum of individual times         ...       27.046 sec (=   0.451 min)
GTO integral calculation        ...        4.373 sec (=   0.073 min)  16.2 %
SCF iterations                  ...       20.441 sec (=   0.341 min)  75.6 %
CHELPG charge generation        ...        2.232 sec (=   0.037 min)   8.3 %


                 $$$$$$$$$$$$$$$$  JOB NUMBER  2 $$$$$$$$$$$$$$


                       ****************************
                       * Single Point Calculation *
                       ****************************

---------------------------------
CARTESIAN COORDINATES (ANGSTROEM)
---------------------------------
  C     -2.909087   -1.969851   -1.924038
  O     -2.827686   -3.108893   -1.172780
  H     -1.951877   -3.521882   -1.234771
  H     -2.236090   -1.175061   -1.514189
  H     -2.615819   -2.207722   -2.943105
  H     -3.949701   -1.615946   -1.922414
  C     -1.039465   -5.980408   -0.633928
  O     -0.525125   -4.704031   -0.958731
  H      0.396405   -4.876705   -1.164711
  H     -0.893255   -6.150147    0.412700
  H     -2.104369   -6.036551   -0.840206
  H     -0.600930   -6.805543   -1.238624

----------------------------
CARTESIAN COORDINATES (A.U.)
----------------------------
  NO LB      ZA    FRAG     MASS         X           Y           Z
   0 C     6.0000    0    12.011   -5.497378   -3.722479   -3.635905
   1 O     8.0000    0    15.999   -5.343552   -5.874956   -2.216233
   2 H     1.0000    0     1.008   -3.688513   -6.655392   -2.333379
   3 H     1.0000    0     1.008   -4.225598   -2.220543   -2.861403
   4 H     1.0000    0     1.008   -4.943182   -4.171990   -5.561662
   5 H     1.0000    0     1.008   -7.463853   -3.053695   -3.632836
   6 C     0.0000    0     0.000   -1.964304  -11.301333   -1.197950
   7 O     0.0000    0     0.000   -0.992342   -8.889330   -1.811739
   8 H     0.0000    0     0.000    0.749097   -9.215637   -2.200985
   9 H     0.0000    0     0.000   -1.688007  -11.622094    0.779890
  10 H     0.0000    0     0.000   -3.976681  -11.407428   -1.587759
  11 H     0.0000    0     0.000   -1.135593  -12.860612   -2.340660

--------------------------------
INTERNAL COORDINATES (ANGSTROEM)
--------------------------------
 C      0   0   0     0.000000000000     0.00000000     0.00000000
 O      1   0   0     1.366905769660     0.00000000     0.00000000
 H      2   1   0     0.970280476297   111.92073642     0.00000000
 H      1   2   3     1.119192704100   110.77438541   293.76374754
 H      1   2   3     1.086777936358   108.47565975    54.17916285
 H      1   2   3     1.099149163397   108.89739246   172.81032229
 C      3   2   1     2.690326757305   132.90783893   196.86284056
 O      7   3   2     1.413923926715    41.16002343   192.09768970
 H      8   7   3     0.959927919990   103.65800469   194.27234774
 H      7   3   2     1.070335864393   114.18201347   283.02247494
 H      7   3   2     1.086150624430    70.87137481    24.88753177
 H      7   3   2     1.113021997476   133.61113146   116.45977730

---------------------------
INTERNAL COORDINATES (A.U.)
---------------------------
 C      0   0   0     0.000000000000     0.00000000     0.00000000
 O      1   0   0     2.583077555534     0.00000000     0.00000000
 H      2   1   0     1.833564373292   111.92073642     0.00000000
 H      1   2   3     2.114967701831   110.77438541   293.76374754
 H      1   2   3     2.053712668104   108.47565975    54.17916285
 H      1   2   3     2.077090899150   108.89739246   172.81032229
 C      3   2   1     5.083980782066   132.90783893   196.86284056
 O      7   3   2     2.671928995690    41.16002343   192.09768970
 H      8   7   3     1.814000877085   103.65800469   194.27234774
 H      7   3   2     2.022641655016   114.18201347   283.02247494
 H      7   3   2     2.052527220360    70.87137481    24.88753177
 H      7   3   2     2.103306756260   133.61113146   116.45977730

---------------------
BASIS SET INFORMATION
---------------------
There are 3 groups of distinct atoms

 Group   1 Type C   : 11s6p2d1f contracted to 5s3p2d1f pattern {62111/411/11/1}
 Group   2 Type O   : 11s6p2d1f contracted to 5s3p2d1f pattern {62111/411/11/1}
 Group   3 Type H   : 5s1p contracted to 3s1p pattern {311/1}

Atom   0C    basis set group =>   1
Atom   1O    basis set group =>   2
Atom   2H    basis set group =>   3
Atom   3H    basis set group =>   3
Atom   4H    basis set group =>   3
Atom   5H    basis set group =>   3
Atom   6C    basis set group =>   1
Atom   7O    basis set group =>   2
Atom   8H    basis set group =>   3
Atom   9H    basis set group =>   3
Atom  10H    basis set group =>   3
Atom  11H    basis set group =>   3


           ************************************************************
           *        Program running with 8 parallel MPI-processes     *
           *              working on a common directory               *
           ************************************************************
------------------------------------------------------------------------------
                           ORCA GTO INTEGRAL CALCULATION
------------------------------------------------------------------------------

                         BASIS SET STATISTICS AND STARTUP INFO

 # of primitive gaussian shells          ...  128
 # of primitive gaussian functions       ...  248
 # of contracted shells                  ...   76
 # of contracted basis functions         ...  172
 Highest angular momentum                ...    3
 Maximum contraction depth               ...    6
 Integral package used                   ... LIBINT
 Integral threshhold            Thresh   ...  2.500e-11
 Primitive cut-off              TCut     ...  2.500e-12


------------------------------ INTEGRAL EVALUATION ----------------------------


 * One electron integrals 
 Pre-screening matrix                    ... done
 Shell pair data                         ... done (   0.001 sec)



           ************************************************************
           *        Program running with 8 parallel MPI-processes     *
           *              working on a common directory               *
           ************************************************************
-------------------------------------------------------------------------------
                                 ORCA SCF
-------------------------------------------------------------------------------

------------
SCF SETTINGS
------------
Hamiltonian:
 Density Functional     Method          .... DFT(GTOs)
 Exchange Functional    Exchange        .... WB97X-D3
 Correlation Functional Correlation     .... WB97X-D3
 Gradients option       PostSCFGGA      .... off
 Hybrid DFT is turned on
   Fraction HF Exchange ScalHFX         ....  0.195728
   Scaling of DF-GGA-X  ScalDFX         ....  0.000000
   Scaling of DF-GGA-C  ScalDFC         ....  1.000000
   Scaling of DF-LDA-C  ScalLDAC        ....  1.000000
   Perturbative correction              ....  0.000000
   Density functional embedding theory  .... OFF
 Long-range corrected/Screened/Range-Separated Hybrid DFT is turned on
   Amount of maximum screened exact exchange              ....  0.804272
   Range separation parameter mu (erf(mu*r12)/r12)        ....  0.250000


General Settings:
 Integral files         IntName         .... 22-200_DFT_A
 Hartree-Fock type      HFTyp           .... RHF
 Total Charge           Charge          ....    0
 Multiplicity           Mult            ....    1
 Number of Electrons    NEL             ....   18
 Basis Dimension        Dim             ....  172
 Nuclear Repulsion      ENuc            ....     41.0332504156 Eh

Convergence Acceleration:
 DIIS                   CNVDIIS         .... on
   Start iteration      DIISMaxIt       ....    12
   Startup error        DIISStart       ....  0.200000
   # of expansion vecs  DIISMaxEq       ....     5
   Bias factor          DIISBfac        ....   1.050
   Max. coefficient     DIISMaxC        ....  10.000
 Newton-Raphson         CNVNR           .... off
 SOSCF                  CNVSOSCF        .... on
   Start iteration      SOSCFMaxIt      ....   150
   Startup grad/error   SOSCFStart      ....  0.003300
 Level Shifting         CNVShift        .... on
   Level shift para.    LevelShift      ....    0.2500
   Turn off err/grad.   ShiftErr        ....    0.0010
 Zerner damping         CNVZerner       .... off
 Static damping         CNVDamp         .... on
   Fraction old density DampFac         ....    0.7000
   Max. Damping (<1)    DampMax         ....    0.9800
   Min. Damping (>=0)   DampMin         ....    0.0000
   Turn off err/grad.   DampErr         ....    0.1000
 Fernandez-Rico         CNVRico         .... off

SCF Procedure:
 Maximum # iterations   MaxIter         ....  1000
 SCF integral mode      SCFMode         .... Direct
   Integral package                     .... LIBINT
 Reset frequency        DirectResetFreq ....    20
 Integral Threshold     Thresh          ....  2.500e-11 Eh
 Primitive CutOff       TCut            ....  2.500e-12 Eh

Convergence Tolerance:
 Convergence Check Mode ConvCheckMode   .... Total+1el-Energy
 Convergence forced     ConvForced      .... 0
 Energy Change          TolE            ....  1.000e-08 Eh
 1-El. energy change                    ....  1.000e-05 Eh
 Orbital Gradient       TolG            ....  1.000e-05
 Orbital Rotation angle TolX            ....  1.000e-05
 DIIS Error             TolErr          ....  5.000e-07


Diagonalization of the overlap matrix:
Smallest eigenvalue                        ... 1.425e-03
Time for diagonalization                   ...    0.004 sec
Threshold for overlap eigenvalues          ... 1.000e-08
Number of eigenvalues below threshold      ... 0
Time for construction of square roots      ...    0.006 sec
Total time needed                          ...    0.010 sec

-------------------
DFT GRID GENERATION
-------------------

General Integration Accuracy     IntAcc      ...  4.340
Radial Grid Type                 RadialGrid  ... Gauss-Chebyshev
Angular Grid (max. acc.)         AngularGrid ... Lebedev-110
Angular grid pruning method      GridPruning ... 3 (G Style)
Weight generation scheme         WeightScheme... Becke
Basis function cutoff            BFCut       ...    1.0000e-11
Integration weight cutoff        WCut        ...    1.0000e-14
Grids for H and He will be reduced by one unit

# of grid points (after initial pruning)     ...  13096 (   0.0 sec)
# of grid points (after weights+screening)   ...  12515 (   0.0 sec)
nearest neighbour list constructed           ...    0.0 sec
Grid point re-assignment to atoms done       ...    0.0 sec
Grid point division into batches done        ...    0.0 sec
Reduced shell lists constructed in    0.0 sec

Total number of grid points                  ...    12515
Total number of batches                      ...      201
Average number of points per batch           ...       62
Average number of grid points per atom       ...     1043
Average number of shells per batch           ...    54.85 (72.17%)
Average number of basis functions per batch  ...   123.67 (71.90%)
Average number of large shells per batch     ...    44.44 (81.03%)
Average number of large basis fcns per batch ...    98.74 (79.84%)
Maximum spatial batch extension              ...   8.67,  7.82, 12.63 au
Average spatial batch extension              ...   0.28,  0.28,  0.33 au

Time for grid setup =    0.040 sec

------------------------------
INITIAL GUESS: MODEL POTENTIAL
------------------------------
Loading Hartree-Fock densities                     ... done
Calculating cut-offs                               ... done
Setting up the integral package                    ... done
Initializing the effective Hamiltonian             ... done
Starting the Coulomb interaction                   ... done (   0.0 sec)
Reading the grid                                   ... done
Mapping shells                                     ... done
Starting the XC term evaluation                    ... done (   0.0 sec)
  promolecular density results
     # of electrons  =     18.000334970
     EX              =    -14.439046591
     EC              =     -0.576656063
     EX+EC           =    -15.015702654
Transforming the Hamiltonian                       ... done (   0.0 sec)
Diagonalizing the Hamiltonian                      ... done (   0.0 sec)
Back transforming the eigenvectors                 ... done (   0.0 sec)
Now organizing SCF variables                       ... done
                      ------------------
                      INITIAL GUESS DONE (   0.1 sec)
                      ------------------
--------------
SCF ITERATIONS
--------------
ITER       Energy         Delta-E        Max-DP      RMS-DP      [F,P]     Damp
               ***  Starting incremental Fock matrix formation  ***
  0   -115.6438714662   0.000000000000 0.03799557  0.00077480  0.2622643 0.7000
  1   -115.6829776898  -0.039106223608 0.02307941  0.00054913  0.1319641 0.7000
                               ***Turning on DIIS***
  2   -115.7008126370  -0.017834947208 0.03412937  0.00099059  0.0521527 0.0000
  3   -115.7295794286  -0.028766791571 0.01695786  0.00035284  0.0620291 0.0000
  4   -115.7344637289  -0.004884300367 0.00414074  0.00006800  0.0065505 0.0000
                      *** Initiating the SOSCF procedure ***
                           *** Shutting down DIIS ***
                      *** Re-Reading the Fockian *** 
                      *** Removing any level shift *** 
ITER      Energy       Delta-E        Grad      Rot      Max-DP    RMS-DP
  5   -115.73456163  -0.0000978987  0.000423  0.000423  0.000775  0.000023
               *** Restarting incremental Fock matrix formation ***
  6   -115.73457023  -0.0000086013  0.000121  0.000180  0.000427  0.000014
  7   -115.73457104  -0.0000008065  0.000048  0.000107  0.000201  0.000007
  8   -115.73457110  -0.0000000630  0.000025  0.000020  0.000039  0.000001
  9   -115.73457111  -0.0000000152  0.000009  0.000007  0.000017  0.000001
 10   -115.73457112  -0.0000000015  0.000003  0.000003  0.000004  0.000000
                  ***Gradient check signals convergence***
              ***Rediagonalizing the Fockian in SOSCF/NRSCF***

               *****************************************************
               *                     SUCCESS                       *
               *           SCF CONVERGED AFTER  11 CYCLES          *
               *****************************************************

Setting up the final grid:

General Integration Accuracy     IntAcc      ...  4.670
Radial Grid Type                 RadialGrid  ... Gauss-Chebyshev
Angular Grid (max. acc.)         AngularGrid ... Lebedev-302
Angular grid pruning method      GridPruning ... 3 (G Style)
Weight generation scheme         WeightScheme... Becke
Basis function cutoff            BFCut       ...    1.0000e-11
Integration weight cutoff        WCut        ...    1.0000e-14
Grids for H and He will be reduced by one unit

# of grid points (after initial pruning)     ...  52000 (   0.0 sec)
# of grid points (after weights+screening)   ...  49150 (   0.0 sec)
nearest neighbour list constructed           ...    0.0 sec
Grid point re-assignment to atoms done       ...    0.0 sec
Grid point division into batches done        ...    0.2 sec
Reduced shell lists constructed in    0.2 sec

Total number of grid points                  ...    49150
Total number of batches                      ...      774
Average number of points per batch           ...       63
Average number of grid points per atom       ...     4096
Average number of shells per batch           ...    52.88 (69.58%)
Average number of basis functions per batch  ...   117.86 (68.52%)
Average number of large shells per batch     ...    42.93 (81.18%)
Average number of large basis fcns per batch ...    95.03 (80.63%)
Maximum spatial batch extension              ...  11.62,  9.08, 17.45 au
Average spatial batch extension              ...   0.20,  0.19,  0.21 au

Final grid set up in    0.3 sec
Final integration                            ... done (   0.2 sec)
Change in XC energy                          ...    -0.000088251
Integrated number of electrons               ...    17.999954594
Previous integrated no of electrons          ...    18.000949825

----------------
TOTAL SCF ENERGY
----------------

Total Energy       :         -115.73465937 Eh           -3149.30019 eV

Components:
Nuclear Repulsion  :           41.03325042 Eh            1116.57151 eV
Electronic Energy  :         -156.76790978 Eh           -4265.87170 eV
One Electron Energy:         -238.46217048 Eh           -6488.88555 eV
Two Electron Energy:           81.69426070 Eh            2223.01385 eV

Virial components:
Potential Energy   :         -231.02738084 Eh           -6286.57464 eV
Kinetic Energy     :          115.29272147 Eh            3137.27445 eV
Virial Ratio       :            2.00383318


DFT components:
N(Alpha)           :        8.999977296941 electrons
N(Beta)            :        8.999977296941 electrons
N(Total)           :       17.999954593881 electrons
E(XC)              :      -10.663038478559 Eh       
DFET-embed. en.    :        0.000000000000 Eh       

---------------
SCF CONVERGENCE
---------------

  Last Energy change         ...   -2.3823e-10  Tolerance :   1.0000e-08
  Last MAX-Density change    ...    1.9612e-06  Tolerance :   1.0000e-07
  Last RMS-Density change    ...    5.0576e-08  Tolerance :   5.0000e-09
  Last Orbital Gradient      ...    1.1331e-06  Tolerance :   1.0000e-05
  Last Orbital Rotation      ...    7.4443e-07  Tolerance :   1.0000e-05

             **** THE GBW FILE WAS UPDATED (22-200_DFT_A.gbw) ****
             **** DENSITY FILE WAS UPDATED (22-200_DFT_A.scfp.tmp) ****
             **** ENERGY FILE WAS UPDATED (22-200_DFT_A.en.tmp) ****
----------------
ORBITAL ENERGIES
----------------

  NO   OCC          E(Eh)            E(eV) 
   0   2.0000     -19.227521      -523.2074 
   1   2.0000     -10.311232      -280.5829 
   2   2.0000      -1.147029       -31.2122 
   3   2.0000      -0.791477       -21.5372 
   4   2.0000      -0.616543       -16.7770 
   5   2.0000      -0.547412       -14.8958 
   6   2.0000      -0.535003       -14.5582 
   7   2.0000      -0.424515       -11.5516 
   8   2.0000      -0.368371       -10.0239 
   9   0.0000       0.073980         2.0131 
  10   0.0000       0.129867         3.5339 
  11   0.0000       0.160011         4.3541 
  12   0.0000       0.170185         4.6310 
  13   0.0000       0.196370         5.3435 
  14   0.0000       0.204054         5.5526 
  15   0.0000       0.206458         5.6180 
  16   0.0000       0.229450         6.2436 
  17   0.0000       0.256813         6.9882 
  18   0.0000       0.281118         7.6496 
  19   0.0000       0.304943         8.2979 
  20   0.0000       0.325695         8.8626 
  21   0.0000       0.333457         9.0738 
  22   0.0000       0.344789         9.3822 
  23   0.0000       0.359685         9.7875 
  24   0.0000       0.434803        11.8316 
  25   0.0000       0.454693        12.3728 
  26   0.0000       0.474814        12.9204 
  27   0.0000       0.485766        13.2184 
  28   0.0000       0.518424        14.1070 
  29   0.0000       0.536153        14.5895 
  30   0.0000       0.551723        15.0132 
  31   0.0000       0.566855        15.4249 
  32   0.0000       0.617507        16.8032 
  33   0.0000       0.627595        17.0777 
  34   0.0000       0.641606        17.4590 
  35   0.0000       0.688797        18.7431 
  36   0.0000       0.710413        19.3313 
  37   0.0000       0.770591        20.9688 
  38   0.0000       0.777741        21.1634 
  39   0.0000       0.810955        22.0672 
  40   0.0000       0.841073        22.8868 
  41   0.0000       0.859172        23.3792 
  42   0.0000       0.898327        24.4447 
  43   0.0000       0.987603        26.8741 
  44   0.0000       1.007121        27.4052 
  45   0.0000       1.019386        27.7389 
  46   0.0000       1.059763        28.8376 
  47   0.0000       1.131896        30.8005 
  48   0.0000       1.152575        31.3632 
  49   0.0000       1.170549        31.8523 
  50   0.0000       1.186065        32.2745 
  51   0.0000       1.209117        32.9018 
  52   0.0000       1.254113        34.1262 
  53   0.0000       1.354855        36.8675 
  54   0.0000       1.384176        37.6653 
  55   0.0000       1.398186        38.0466 
  56   0.0000       1.466615        39.9086 
  57   0.0000       1.526809        41.5466 
  58   0.0000       1.566590        42.6291 
  59   0.0000       1.578798        42.9613 
  60   0.0000       1.613449        43.9042 
  61   0.0000       1.623786        44.1855 
  62   0.0000       1.643052        44.7097 
  63   0.0000       1.715780        46.6887 
  64   0.0000       1.722531        46.8725 
  65   0.0000       1.804032        49.0902 
  66   0.0000       1.860997        50.6403 
  67   0.0000       1.927339        52.4456 
  68   0.0000       1.960283        53.3420 
  69   0.0000       1.983330        53.9691 
  70   0.0000       2.007683        54.6318 
  71   0.0000       2.055782        55.9407 
  72   0.0000       2.093750        56.9738 
  73   0.0000       2.142863        58.3103 
  74   0.0000       2.173930        59.1557 
  75   0.0000       2.200709        59.8843 
  76   0.0000       2.215339        60.2824 
  77   0.0000       2.243590        61.0512 
  78   0.0000       2.299287        62.5668 
  79   0.0000       2.321125        63.1610 
  80   0.0000       2.366304        64.3904 
  81   0.0000       2.382667        64.8357 
  82   0.0000       2.414573        65.7039 
  83   0.0000       2.430836        66.1464 
  84   0.0000       2.507132        68.2225 
  85   0.0000       2.519766        68.5663 
  86   0.0000       2.554570        69.5134 
  87   0.0000       2.609490        71.0078 
  88   0.0000       2.624993        71.4297 
  89   0.0000       2.634137        71.6785 
  90   0.0000       2.667469        72.5855 
  91   0.0000       2.741214        74.5922 
  92   0.0000       2.798432        76.1492 
  93   0.0000       2.850671        77.5707 
  94   0.0000       2.870602        78.1131 
  95   0.0000       2.935362        79.8752 
  96   0.0000       3.009704        81.8982 
  97   0.0000       3.058259        83.2195 
  98   0.0000       3.098648        84.3185 
  99   0.0000       3.114878        84.7601 
 100   0.0000       3.128881        85.1412 
 101   0.0000       3.144501        85.5662 
 102   0.0000       3.197750        87.0152 
 103   0.0000       3.250143        88.4409 
 104   0.0000       3.319282        90.3223 
 105   0.0000       3.323616        90.4402 
 106   0.0000       3.338799        90.8533 
 107   0.0000       3.385879        92.1345 
 108   0.0000       3.418512        93.0224 
 109   0.0000       3.475312        94.5680 
 110   0.0000       3.514704        95.6400 
 111   0.0000       3.629913        98.7750 
 112   0.0000       3.655066        99.4594 
 113   0.0000       3.673311        99.9559 
 114   0.0000       3.684260       100.2538 
 115   0.0000       3.704697       100.8099 
 116   0.0000       3.740562       101.7859 
 117   0.0000       4.008158       109.0675 
 118   0.0000       4.098202       111.5177 
 119   0.0000       4.175608       113.6241 
 120   0.0000       4.208752       114.5260 
 121   0.0000       4.260792       115.9420 
 122   0.0000       4.274537       116.3161 
 123   0.0000       4.287143       116.6591 
 124   0.0000       4.330881       117.8493 
 125   0.0000       4.444995       120.9545 
 126   0.0000       4.524811       123.1264 
 127   0.0000       4.544086       123.6509 
 128   0.0000       4.560408       124.0950 
 129   0.0000       4.579764       124.6217 
 130   0.0000       4.662168       126.8640 
 131   0.0000       5.024735       136.7300 
 132   0.0000       5.092612       138.5770 
 133   0.0000       5.111587       139.0934 
 134   0.0000       5.342709       145.3825 
 135   0.0000       5.355978       145.7436 
 136   0.0000       5.429711       147.7499 
 137   0.0000       5.463882       148.6798 
 138   0.0000       5.581717       151.8862 
 139   0.0000       5.774894       157.1429 
 140   0.0000       5.902798       160.6233 
 141   0.0000       5.908432       160.7766 
 142   0.0000       5.965983       162.3427 
 143   0.0000       6.046128       164.5235 
 144   0.0000       6.070743       165.1933 
 145   0.0000       6.381763       173.6566 
 146   0.0000       6.541015       177.9901 
 147   0.0000       6.617709       180.0770 
 148   0.0000       6.739530       183.3919 
 149   0.0000       6.757354       183.8769 
 150   0.0000       6.817966       185.5263 
 151   0.0000       6.853263       186.4868 
 152   0.0000       7.065704       192.2676 
 153   0.0000       7.086635       192.8371 
 154   0.0000       7.235369       196.8844 
 155   0.0000       7.283034       198.1814 
 156   0.0000       7.425445       202.0566 
 157   0.0000       8.092044       220.1957 
 158   0.0000       8.858469       241.0512 
 159   0.0000       9.398337       255.7417 
 160   0.0000       9.510975       258.8068 
 161   0.0000       9.581570       260.7278 
 162   0.0000       9.774782       265.9854 
[...]
  82   0.0000       2.422065        65.9077 
  83   0.0000       2.428773        66.0903 
  84   0.0000       2.527586        68.7791 
  85   0.0000       2.577613        70.1404 
  86   0.0000       2.608297        70.9754 
  87   0.0000       2.658891        72.3521 
  88   0.0000       2.663481        72.4770 
  89   0.0000       2.686093        73.0923 
  90   0.0000       2.697737        73.4092 
  91   0.0000       2.744269        74.6754 
  92   0.0000       2.838088        77.2283 
  93   0.0000       2.885819        78.5271 
  94   0.0000       2.924688        79.5848 
  95   0.0000       2.946974        80.1913 
  96   0.0000       2.966257        80.7159 
  97   0.0000       2.999685        81.6256 
  98   0.0000       3.101595        84.3987 
  99   0.0000       3.117557        84.8330 
 100   0.0000       3.136484        85.3481 
 101   0.0000       3.198969        87.0484 
 102   0.0000       3.238787        88.1319 
 103   0.0000       3.270946        89.0070 
 104   0.0000       3.335461        90.7625 
 105   0.0000       3.341251        90.9201 
 106   0.0000       3.390943        92.2723 
 107   0.0000       3.404589        92.6436 
 108   0.0000       3.420864        93.0864 
 109   0.0000       3.467758        94.3625 
 110   0.0000       3.523133        95.8693 
 111   0.0000       3.620590        98.5213 
 112   0.0000       3.629331        98.7591 
 113   0.0000       3.644725        99.1780 
 114   0.0000       3.671492        99.9064 
 115   0.0000       3.707537       100.8872 
 116   0.0000       3.789703       103.1231 
 117   0.0000       4.028600       109.6238 
 118   0.0000       4.151592       112.9706 
 119   0.0000       4.204026       114.3974 
 120   0.0000       4.251776       115.6967 
 121   0.0000       4.302669       117.0816 
 122   0.0000       4.313951       117.3886 
 123   0.0000       4.316086       117.4467 
 124   0.0000       4.361428       118.6805 
 125   0.0000       4.454298       121.2076 
 126   0.0000       4.520811       123.0175 
 127   0.0000       4.556452       123.9874 
 128   0.0000       4.567820       124.2967 
 129   0.0000       4.599637       125.1625 
 130   0.0000       4.635735       126.1448 
 131   0.0000       5.008739       136.2947 
 132   0.0000       5.050534       137.4320 
 133   0.0000       5.143877       139.9720 
 134   0.0000       5.338450       145.2666 
 135   0.0000       5.387581       146.6035 
 136   0.0000       5.467000       148.7646 
 137   0.0000       5.525749       150.3633 
 138   0.0000       5.560910       151.3201 
 139   0.0000       5.785341       157.4271 
 140   0.0000       5.833625       158.7410 
 141   0.0000       5.860866       159.4823 
 142   0.0000       5.908377       160.7751 
 143   0.0000       6.008310       163.4944 
 144   0.0000       6.020856       163.8358 
 145   0.0000       6.345782       172.6775 
 146   0.0000       6.562673       178.5794 
 147   0.0000       6.634921       180.5454 
 148   0.0000       6.720938       182.8860 
 149   0.0000       6.811134       185.3404 
 150   0.0000       6.833356       185.9451 
 151   0.0000       6.912523       188.0993 
 152   0.0000       7.046031       191.7323 
 153   0.0000       7.212585       196.2644 
 154   0.0000       7.274302       197.9438 
 155   0.0000       7.380799       200.8417 
 156   0.0000       7.576477       206.1664 
 157   0.0000       8.164314       222.1623 
 158   0.0000       8.939576       243.2582 
 159   0.0000       9.337667       254.0908 
 160   0.0000       9.594526       261.0803 
 161   0.0000       9.648447       262.5476 
 162   0.0000       9.858505       268.2636 
 163   0.0000       9.920864       269.9604 
 164   0.0000      10.039814       273.1972 
 165   0.0000      10.227837       278.3136 
 166   0.0000      11.330315       308.3136 
 167   0.0000      19.195625       522.3395 
 168   0.0000      22.430628       610.3684 
 169   0.0000      43.713919      1189.5162 
 170   0.0000      66.038733      1797.0053 
 171   0.0000     126.516454      3442.6877 

                    ********************************
                    * MULLIKEN POPULATION ANALYSIS *
                    ********************************

-----------------------
MULLIKEN ATOMIC CHARGES
-----------------------
   0 C :    0.000410
   1 O :    0.000702
   2 H :   -0.008703
   3 H :   -0.000241
   4 H :   -0.000692
   5 H :   -0.000103
   6 C :   -0.170662
   7 O :   -0.458195
   8 H :    0.310640
   9 H :    0.106129
  10 H :    0.119547
  11 H :    0.101168
Sum of atomic charges:   -0.0000000

--------------------------------
MULLIKEN REDUCED ORBITAL CHARGES
--------------------------------
  0 C s       :    -0.001172  s :    -0.001172
      pz      :    -0.000025  p :     0.000746
      px      :     0.000437
      py      :     0.000333
      dz2     :    -0.000009  d :     0.000017
      dxz     :     0.000004
      dyz     :     0.000002
      dx2y2   :     0.000001
      dxy     :     0.000018
      f0      :     0.000000  f :    -0.000001
      f+1     :    -0.000000
      f-1     :    -0.000000
      f+2     :    -0.000000
      f-2     :    -0.000000
      f+3     :     0.000000
      f-3     :    -0.000000
  1 O s       :    -0.000617  s :    -0.000617
      pz      :     0.000123  p :    -0.000161
      px      :    -0.000389
      py      :     0.000106
      dz2     :     0.000014  d :     0.000075
      dxz     :     0.000004
      dyz     :     0.000002
      dx2y2   :     0.000026
      dxy     :     0.000029
      f0      :     0.000000  f :     0.000001
      f+1     :     0.000000
      f-1     :     0.000000
      f+2     :    -0.000000
      f-2     :     0.000000
      f+3     :    -0.000000
      f-3     :     0.000000
  2 H s       :     0.008403  s :     0.008403
      pz      :    -0.000058  p :     0.000300
      px      :     0.000251
      py      :     0.000107
  3 H s       :     0.000242  s :     0.000242
      pz      :     0.000000  p :    -0.000001
      px      :     0.000000
      py      :    -0.000001
  4 H s       :     0.000693  s :     0.000693
      pz      :    -0.000002  p :    -0.000001
      px      :     0.000000
      py      :     0.000000
  5 H s       :     0.000103  s :     0.000103
      pz      :     0.000000  p :    -0.000000
      px      :    -0.000000
      py      :     0.000000
  6 C s       :     3.221633  s :     3.221633
      pz      :     1.040306  p :     2.841683
      px      :     1.050256
      py      :     0.751121
      dz2     :     0.015847  d :     0.099676
      dxz     :     0.008280
      dyz     :     0.027480
      dx2y2   :     0.029325
      dxy     :     0.018744
      f0      :     0.001349  f :     0.007670
      f+1     :     0.000296
      f-1     :     0.001115
      f+2     :     0.001013
      f-2     :     0.000684
      f+3     :     0.001585
      f-3     :     0.001628
  7 O s       :     3.812254  s :     3.812254
      pz      :     1.854843  p :     4.613278
      px      :     1.331846
      py      :     1.426590
      dz2     :     0.004368  d :     0.031058
      dxz     :     0.001768
      dyz     :     0.005036
      dx2y2   :     0.013563
      dxy     :     0.006324
      f0      :     0.000272  f :     0.001605
      f+1     :     0.000287
      f-1     :     0.000244
      f+2     :     0.000204
      f-2     :     0.000104
      f+3     :     0.000299
      f-3     :     0.000195
  8 H s       :     0.641641  s :     0.641641
      pz      :     0.017561  p :     0.047718
      px      :     0.018651
      py      :     0.011506
  9 H s       :     0.873194  s :     0.873194
      pz      :     0.012717  p :     0.020677
      px      :     0.004432
      py      :     0.003529
 10 H s       :     0.860126  s :     0.860126
      pz      :     0.004615  p :     0.020326
      px      :     0.012600
      py      :     0.003111
 11 H s       :     0.880180  s :     0.880180
      pz      :     0.006094  p :     0.018652
      px      :     0.004868
      py      :     0.007690


                     *******************************
                     * LOEWDIN POPULATION ANALYSIS *
                     *******************************

----------------------
LOEWDIN ATOMIC CHARGES
----------------------
   0 C :   -0.001422
   1 O :   -0.004946
   2 H :   -0.044051
   3 H :   -0.000069
   4 H :   -0.000214
   5 H :   -0.000020
   6 C :   -0.381991
   7 O :   -0.036093
   8 H :    0.170722
   9 H :    0.091870
  10 H :    0.105989
  11 H :    0.100225

-------------------------------
LOEWDIN REDUCED ORBITAL CHARGES
-------------------------------
  0 C s       :     0.000106  s :     0.000106
      pz      :     0.000097  p :     0.001305
      px      :     0.000677
      py      :     0.000530
      dz2     :     0.000001  d :     0.000010
      dxz     :     0.000003
      dyz     :     0.000001
      dx2y2   :     0.000000
      dxy     :     0.000005
      f0      :     0.000000  f :     0.000001
      f+1     :     0.000000
      f-1     :     0.000000
      f+2     :     0.000000
      f-2     :     0.000000
      f+3     :     0.000000
      f-3     :     0.000000
  1 O s       :     0.000134  s :     0.000134
      pz      :     0.000434  p :     0.004745
      px      :     0.003420
      py      :     0.000891
      dz2     :     0.000009  d :     0.000063
      dxz     :     0.000005
      dyz     :     0.000002
      dx2y2   :     0.000026
      dxy     :     0.000020
      f0      :     0.000000  f :     0.000003
      f+1     :     0.000001
      f-1     :     0.000000
      f+2     :     0.000000
      f-2     :     0.000000
      f+3     :     0.000000
      f-3     :     0.000002
  2 H s       :     0.039576  s :     0.039576
      pz      :     0.000338  p :     0.004476
      px      :     0.002718
      py      :     0.001420
  3 H s       :     0.000068  s :     0.000068
      pz      :     0.000000  p :     0.000001
      px      :     0.000000
      py      :     0.000001
  4 H s       :     0.000213  s :     0.000213
      pz      :     0.000000  p :     0.000001
      px      :     0.000000
      py      :     0.000000
  5 H s       :     0.000020  s :     0.000020
      pz      :     0.000000  p :     0.000000
      px      :     0.000000
      py      :     0.000000
  6 C s       :     2.858137  s :     2.858137
      pz      :     1.086778  p :     3.053912
      px      :     1.080055
      py      :     0.887080
      dz2     :     0.083518  d :     0.413067
      dxz     :     0.019063
      dyz     :     0.112719
      dx2y2   :     0.126606
      dxy     :     0.071161
      f0      :     0.007413  f :     0.056875
      f+1     :     0.003046
      f-1     :     0.007527
      f+2     :     0.007707
      f-2     :     0.009094
      f+3     :     0.011211
      f-3     :     0.010877
  7 O s       :     3.365879  s :     3.365879
      pz      :     1.759429  p :     4.594028
      px      :     1.335729
      py      :     1.498871
      dz2     :     0.009287  d :     0.071406
      dxz     :     0.004558
      dyz     :     0.012766
      dx2y2   :     0.030501
      dxy     :     0.014294
      f0      :     0.000489  f :     0.004779
      f+1     :     0.000430
      f-1     :     0.000562
      f+2     :     0.000532
      f-2     :     0.000372
      f+3     :     0.001153
      f-3     :     0.001242
  8 H s       :     0.671368  s :     0.671368
      pz      :     0.047900  p :     0.157910
      px      :     0.074209
      py      :     0.035801
  9 H s       :     0.844001  s :     0.844001
      pz      :     0.038162  p :     0.064130
      px      :     0.014864
      py      :     0.011104
 10 H s       :     0.833257  s :     0.833257
      pz      :     0.014374  p :     0.060753
      px      :     0.036995
      py      :     0.009385
 11 H s       :     0.842506  s :     0.842506
      pz      :     0.018629  p :     0.057269
      px      :     0.015435
      py      :     0.023206


                      *****************************
                      * MAYER POPULATION ANALYSIS *
                      *****************************

  NA   - Mulliken gross atomic population
  ZA   - Total nuclear charge
  QA   - Mulliken gross atomic charge
  VA   - Mayer's total valence
  BVA  - Mayer's bonded valence
  FA   - Mayer's free valence

  ATOM       NA         ZA         QA         VA         BVA        FA
  0 C     -0.0004     0.0000     0.0004    -0.0008    -0.0008     0.0000
  1 O     -0.0007     0.0000     0.0007    -0.0014    -0.0014     0.0000
  2 H      0.0087     0.0000    -0.0087     0.0174     0.0174    -0.0000
  3 H      0.0002     0.0000    -0.0002     0.0005     0.0005    -0.0000
  4 H      0.0007     0.0000    -0.0007     0.0014     0.0014     0.0000
  5 H      0.0001     0.0000    -0.0001     0.0002     0.0002     0.0000
  6 C      6.1707     6.0000    -0.1707     3.9314     3.9314    -0.0000
  7 O      8.4582     8.0000    -0.4582     1.9031     1.9031    -0.0000
  8 H      0.6894     1.0000     0.3106     0.9150     0.9150    -0.0000
  9 H      0.8939     1.0000     0.1061     0.9571     0.9571    -0.0000
 10 H      0.8805     1.0000     0.1195     0.9549     0.9549    -0.0000
 11 H      0.8988     1.0000     0.1012     0.9603     0.9603    -0.0000

  Mayer bond orders larger than 0.1
B(  6-C ,  7-O ) :   0.9922 B(  6-C ,  9-H ) :   0.9765 B(  6-C , 10-H ) :   0.9786 
B(  6-C , 11-H ) :   0.9756 B(  7-O ,  8-H ) :   0.9009 

-------
TIMINGS
-------

Total SCF time: 0 days 0 hours 0 min 9 sec 

Total time                  ....       9.325 sec
Sum of individual times     ....       9.040 sec  ( 96.9%)

Fock matrix formation       ....       8.518 sec  ( 91.3%)
  XC integration            ....       1.164 sec  ( 13.7% of F)
    Basis function eval.    ....       0.061 sec  (  5.2% of XC)
    Density eval.           ....       0.058 sec  (  5.0% of XC)
    XC-Functional eval.     ....       0.081 sec  (  6.9% of XC)
    XC-Potential eval.      ....       0.070 sec  (  6.0% of XC)
Diagonalization             ....       0.047 sec  (  0.5%)
Density matrix formation    ....       0.005 sec  (  0.0%)
Population analysis         ....       0.030 sec  (  0.3%)
Initial guess               ....       0.095 sec  (  1.0%)
Orbital Transformation      ....       0.000 sec  (  0.0%)
Orbital Orthonormalization  ....       0.000 sec  (  0.0%)
DIIS solution               ....       0.026 sec  (  0.3%)
SOSCF solution              ....       0.022 sec  (  0.2%)
Grid generation             ....       0.298 sec  (  3.2%)


-------------------------------------------------------------------------------
                          DFT DISPERSION CORRECTION                            
                                                                               
                              DFTD3 V3.1  Rev 1                                
                              USING zero damping                               
-------------------------------------------------------------------------------
The omegaB97X-D3 functional is recognized. Fit by Chai et al.
Active option DFTDOPT                   ...         3   

molecular C6(AA) [au] = 208.675065 


            DFT-D V3
 parameters
 s6 scaling factor         :     1.0000 
 rs6 scaling factor        :     1.2810 
 s8 scaling factor         :     1.0000 
 rs8 scaling factor        :     1.0940 
 Damping factor alpha6     :    14.0000 
 Damping factor alpha8     :    16.0000 
 ad hoc parameters k1-k3   :    16.0000     1.3333    -4.0000 

 Edisp/kcal,au: -0.144580937985  -0.000230404366 
 E6   /kcal   :  -0.027444944 
 E8   /kcal   :  -0.117135994 
 % E8         :  81.017591394 

-------------------------   ----------------
Dispersion correction           -0.000230404
-------------------------   ----------------


-------------------------   --------------------
FINAL SINGLE POINT ENERGY      -115.735005962043
-------------------------   --------------------


                            ***************************************
                            *     ORCA property calculations      *
                            ***************************************

                                    ---------------------
                                    Active property flags
                                    ---------------------
   (+) Dipole Moment


------------------------------------------------------------------------------
                       ORCA ELECTRIC PROPERTIES CALCULATION
------------------------------------------------------------------------------

Dipole Moment Calculation                       ... on
Quadrupole Moment Calculation                   ... off
Polarizability Calculation                      ... off
GBWName                                         ... 22-200_DFT_B.gbw
Electron density file                           ... 22-200_DFT_B.scfp.tmp
The origin for moment calculation is the CENTER OF MASS  = (-1.422175, -10.093856 -1.521968)

-------------
DIPOLE MOMENT
-------------
                                X             Y             Z
Electronic contribution:      0.54656       1.72270      -0.37507
Nuclear contribution   :     -0.17660      -2.33901       0.36430
                        -----------------------------------------
Total Dipole Moment    :      0.36996      -0.61631      -0.01077
                        -----------------------------------------
Magnitude (a.u.)       :      0.71890
Magnitude (Debye)      :      1.82730



--------------------
Rotational spectrum 
--------------------
 
Rotational constants in cm-1:     4.294608     0.835089     0.806555 
Rotational constants in MHz : 128749.109296 25035.346273 24179.898901 

 Dipole components along the rotational axes: 
x,y,z [a.u.] :    -0.387470    -0.604416     0.037008 
x,y,z [Debye]:    -0.984869    -1.536303     0.094066 

 
------------------------------------------------------------------------------
                      ORCA CHELPG CHARGES GENERATION
------------------------------------------------------------------------------

GBW file                           ... 22-200_DFT_B.gbw

Reading the GBW file               ... done

Grid spacing                       ...     0.300000
Point Cut-Off                      ...     2.800000
Van-der-Waals Radii                ...        COSMO
Total charge                       ...            0


Number of points X direction       ...           33
Number of points Y direction       ...           37
Number of points Z direction       ...           29
Maximum number of possible points  ...        35409
Final number of points             ...         5920


CHELPG Charges            
--------------------------------
  0   C   :       0.077858
  1   O   :      -0.000520
  2   H   :       0.001744
  3   H   :      -0.070204
  4   H   :      -0.065995
  5   H   :       0.044040
  6   C   :       0.014942
  7   O   :      -0.544481
  8   H   :       0.390215
  9   H   :       0.041180
 10   H   :       0.081575
 11   H   :       0.029646
--------------------------------
Total charge:     0.000000
--------------------------------

CHELPG charges calculated...

Timings for individual parts in CHELPG calculation:
Grid generation                 ...        0.001 sec (=   0.000 min)
Potential calculation           ...        1.219 sec (=   0.020 min)
Fit to the potential            ...        0.002 sec (=   0.000 min)
------------------------------------------------------------------------------


Timings for individual modules:

Sum of individual times         ...       12.868 sec (=   0.214 min)
GTO integral calculation        ...        1.711 sec (=   0.029 min)  13.3 %
SCF iterations                  ...        9.907 sec (=   0.165 min)  77.0 %
CHELPG charge generation        ...        1.250 sec (=   0.021 min)   9.7 %



                             ****ORCA TERMINATED NORMALLY****
TOTAL RUN TIME: 0 days 0 hours 1 minutes 7 seconds 772 msec
