LAMMPS data file via vdw_self_gen.py, on 2021-08-05 13:23:30.186357

7500 atoms
8 atom types
7000 bonds
9 bond types
12500 angles
15 angle types
15000 dihedrals
12 dihedral types

-45.8027781448333755  45.8027781448333826 xlo xhi
-45.8027781448333755  45.8027781448333826 ylo yhi
-45.8027781448333755  45.8027781448333826 zlo zhi

Masses

1  1.007940
2  1.007940
3  12.011000
4  12.011000
5  12.011000
6  12.011000
7  12.011000
8  14.006740

Atoms

1         0    3   -0.1079060000000000  -14.9493686352797273  4.8864304245831924  -37.7951853609239805 0 0 0
2         0    4   -0.0058890000000000  -15.2988264793142399  5.6379869283922819  -36.5205763558463445 0 0 0
3         0    5   -0.0280880000000000  -15.2126519796420894  4.7309536069018767  -35.2931385997412335 0 0 0
4         0    6    0.2690400000000000  -15.5643729531869788  5.4904898398253543  -34.0143261831824049 0 0 0
5         0    7    0.0640950000000000  -15.4950866492980150  4.6101664121115036  -32.8405679186698407 0 0 0
6         0    8   -0.3612230000000000  -15.4418315776401638  3.9161556209606427  -31.9120330232518619 0 0 0
7         0    1    0.0285690000000000  -15.0276385653730760  5.5516168225962952  -38.6608290580890070 0 0 0
8         0    1    0.0285690000000000  -15.6290715102195268  4.0428692734488134  -37.9524878662931329 0 0 0
9         0    1    0.0285690000000000  -13.9257805165964363  4.5005105859401393  -37.7547561878911040 0 0 0
10        0    2    0.0140440000000000  -16.3121731354476118  6.0462896822136116  -36.6108263814708863 0 0 0
11        0    2    0.0140440000000000  -14.6155508272023660  6.4874122624075463  -36.4051777264604226 0 0 0
12        0    2    0.0140440000000000  -14.1996315334748022  4.3161681783025685  -35.2116202357444124 0 0 0
13        0    2    0.0140440000000000  -15.8926936652732103  3.8783140821749997  -35.4175466596791253 0 0 0
14        0    2    0.0140440000000000  -16.5737346382923825  5.9100434948584297  -34.0961458512920004 0 0 0
15        0    2    0.0140440000000000  -14.8754780579262107  6.3325563600050980  -33.8805276145202825 0 0 0
16        1    3   -0.1079060000000000   13.9273993193224364 -37.0955277601595981 -26.3917038440608529 0 0 0
17        1    4   -0.0058890000000000   14.5447123968333738 -36.3527611466554603 -25.2174771192765981 0 0 0
18        1    5   -0.0280880000000000   15.5740388187683383 -35.3232466050998610 -25.6836593386202132 0 0 0
19        1    6    0.2690400000000000   16.1917001826624691 -34.5788908294283530 -24.5002773006135115 0 0 0
20        1    7    0.0640950000000000   17.1909942341453004 -33.6023420115739810 -24.9533139413151979 0 0 0
21        1    8   -0.3612230000000000   17.9815301439065856 -32.8308690799028824 -25.3090478643204406 0 0 0
22        1    1    0.0285690000000000   13.2022859137023403 -37.8333973539436172 -26.0343564667666563 0 0 0
23        1    1    0.0285690000000000   14.6932590686373867 -37.6237131821507660 -26.9686046123696244 0 0 0
24        1    1    0.0285690000000000   13.4067001263633294 -36.4048357312377888 -27.0626122940267244 0 0 0
25        1    2    0.0140440000000000   15.0204859454283284 -37.0761255667684253 -24.5450850479580822 0 0 0
26        1    2    0.0140440000000000   13.7503997242873339 -35.8548804982858726 -24.6492446873336064 0 0 0
27        1    2    0.0140440000000000   15.0965370870478690 -34.6066556746593008 -26.3643884730152962 0 0 0
28        1    2    0.0140440000000000   16.3625137557017375 -35.8259532859009511 -26.2585693190569991 0 0 0
29        1    2    0.0140440000000000   16.6643384175886773 -35.2935327738278488 -23.8165882418369783 0 0 0
30        1    2    0.0140440000000000   15.4069955897714372 -34.0630135234613292 -23.9348893230406574 0 0 0
31        2    3   -0.1079060000000000  -24.8726529880312732 -5.5916663669595481   7.1564605449215826  0 0 0
32        2    4   -0.0058890000000000  -25.1201756682085033 -5.8907130165243888   5.6864640472448320  0 0 0
33        2    5   -0.0280880000000000  -25.5851677133343038 -4.6455708593406424   4.9313863411949566  0 0 0
34        2    6    0.2690400000000000  -25.8324546656082035 -4.9506462041444026   3.4543141268709787  0 0 0
35        2    7    0.0640950000000000  -26.2939397403240278 -3.7545359566343492   2.7374946276830880  0 0 0
36        2    8   -0.3612230000000000  -26.6595308925801611 -2.8109533099339412   2.1694637912508670  0 0 0
37        2    1    0.0285690000000000  -24.5511019388248002 -6.4982398441746181   7.6786363674798483  0 0 0
38        2    1    0.0285690000000000  -25.7831410743097784 -5.2252608732813393   7.6413254240862134  0 0 0
39        2    1    0.0285690000000000  -24.0907021639664656 -4.8350592488320219   7.2764599371830787  0 0 0
40        2    2    0.0140440000000000  -25.8761403174259392 -6.6801895010606138   5.6029656586502590  0 0 0
41        2    2    0.0140440000000000  -24.1972937380755155 -6.2760251608111854   5.2375438394137275  0 0 0
42        2    2    0.0140440000000000  -24.8304889601689531 -3.8540492106693334   5.0254930838090726  0 0 0
43        2    2    0.0140440000000000  -26.5048158822041842 -4.2595809618993812   5.3898481861368932  0 0 0
44        2    2    0.0140440000000000  -26.5819570170539912 -5.7447539871600926   3.3585550905812487  0 0 0
45        2    2    0.0140440000000000  -24.9102551134953387 -5.3207190732963880   2.9915525082157095  0 0 0
46        3    3   -0.1079060000000000  -23.7958367754156654  26.1509989673190049 -34.3458194699694985 0 0 0
47        3    4   -0.0058890000000000  -25.1224549691042505  25.4623958435864637 -34.6242004771524847 0 0 0
48        3    5   -0.0280880000000000  -25.4753532183168012  25.5050016244900810 -36.1109373432240517 0 0 0
49        3    6    0.2690400000000000  -26.8092524824469898  24.8115269901305808 -36.3862005150303958 0 0 0
50        3    7    0.0640950000000000  -27.1505031662704788  24.8693736879143366 -37.8136738503839922 0 0 0
51        3    8   -0.3612230000000000  -27.4224485197237797  24.9147514431230590 -38.9409052893384739 0 0 0
52        3    1    0.0285690000000000  -23.5687722861006073  26.1175078241796044 -33.2756521010391424 0 0 0
53        3    1    0.0285690000000000  -23.8262271915909132  27.2010000410676902 -34.6538935841551918 0 0 0
54        3    1    0.0285690000000000  -22.9783346840516067  25.6586892095342591 -34.8821241497973986 0 0 0
55        3    2    0.0140440000000000  -25.9106953006312715  25.9522463946763366 -34.0407184562202758 0 0 0
56        3    2    0.0140440000000000  -25.0657791217398831  24.4217970544222034 -34.2841300920622700 0 0 0
57        3    2    0.0140440000000000  -24.6793398119565630  25.0225848338475494 -36.6927786590490257 0 0 0
58        3    2    0.0140440000000000  -25.5229581471752383  26.5486473812944546 -36.4477837826480311 0 0 0
59        3    2    0.0140440000000000  -27.6044744513671674  25.2885766648146237 -35.8017551652066857 0 0 0
60        3    2    0.0140440000000000  -26.7573877477202231  23.7647199132113016 -36.0651720877791107 0 0 0
61        4    3   -0.1079060000000000   6.7357951677520376   35.3059746558972094 -34.1953636012982543 0 0 0
62        4    4   -0.0058890000000000   5.3289492230863553   35.1119459870160853 -34.7382479744661836 0 0 0
63        4    5   -0.0280880000000000   5.1105816231111483   35.9052179408932091 -36.0265701912555372 0 0 0
64        4    6    0.2690400000000000   3.6954351465771422   35.7070438680720272 -36.5688354546781937 0 0 0
65        4    7    0.0640950000000000   3.4866282022668207   36.4838240762511816 -37.7978556176490628 0 0 0
66        4    8   -0.3612230000000000   3.3192652874099986   37.0974702917030541 -38.7684699127695467 0 0 0
67        4    1    0.0285690000000000   6.8660663982328334   34.7380726147566108 -33.2688352343944729 0 0 0
68        4    1    0.0285690000000000   6.9304990772561901   36.3609165353962140 -33.9773647237715650 0 0 0
69        4    1    0.0285690000000000   7.4848688240661403   34.9593776312287474 -34.9144327471438984 0 0 0
70        4    2    0.0140440000000000   4.6042687065189547   35.4287010104215128 -33.9791484714660470 0 0 0
71        4    2    0.0140440000000000   5.1591967947934174   34.0450032800016871 -34.9240522573485421 0 0 0
72        4    2    0.0140440000000000   5.8441513700324892   35.5925314049254951 -36.7808945090567647 0 0 0
73        4    2    0.0140440000000000   5.2895318244080043   36.9714447710630694 -35.8366612899850878 0 0 0
74        4    2    0.0140440000000000   2.9614102982970207   36.0137337727837661 -35.8147269987149670 0 0 0
75        4    2    0.0140440000000000   3.5213156309137998   34.6444871826461664 -36.7742860390578983 0 0 0
76        5    3   -0.1079060000000000  -25.2763498724237223  15.3059642902706194  33.4279052437844371 0 0 0
77        5    4   -0.0058890000000000  -26.0128471720367642  15.1421972289325719  34.7478818179263413 0 0 0
78        5    5   -0.0280880000000000  -25.0798842878216384  15.3520569804637912  35.9404748235926661 0 0 0
79        5    6    0.2690400000000000  -25.8243409225351925  15.1868225265449421  37.2650298520339547 0 0 0
80        5    7    0.0640950000000000  -24.9196162728754480  15.3740839226207537  38.4069076347400582 0 0 0
81        5    8   -0.3612230000000000  -24.2063465142803551  15.5207552681387977  39.3104550329310030 0 0 0
82        5    1    0.0285690000000000  -25.9603221603424856  15.1414188468579152  32.5894275500374277 0 0 0
83        5    1    0.0285690000000000  -24.4563980398679135  14.5855905876495626  33.3437850145860324 0 0 0
84        5    1    0.0285690000000000  -24.8597443559865496  16.3138683663691744  33.3337219455939788 0 0 0
85        5    2    0.0140440000000000  -26.4524925521509005  14.1389432243596218  34.7917109572363756 0 0 0
86        5    2    0.0140440000000000  -26.8393722592826443  15.8610724826304317  34.7900778873406225 0 0 0
87        5    2    0.0140440000000000  -24.6339403174868501  16.3536930973850794  35.8879230928799018 0 0 0
88        5    2    0.0140440000000000  -24.2502276543184117  14.6351632172523356  35.8888858572083151 0 0 0
89        5    2    0.0140440000000000  -26.2749482999283721  14.1889280875915400  37.3168991015437399 0 0 0
90        5    2    0.0140440000000000  -26.6429871922741910  15.9133325970998065  37.3246592116211744 0 0 0
91        6    3   -0.1079060000000000  -34.3316228751718882  5.6946270788806705   37.3027722090153517 0 0 0
92        6    4   -0.0058890000000000  -34.7744488754366969  4.7883727119985426   36.1651456292465099 0 0 0
93        6    5   -0.0280880000000000  -36.0144551000238025  5.3381875024343586   35.4602859304388431 0 0 0
94        6    6    0.2690400000000000  -36.4558347416773287  4.4243725637568696   34.3174428095846906 0 0 0
95        6    7    0.0640950000000000  -37.6565558803459766  4.9495886423259590   33.6541968440735673 0 0 0
96        6    8   -0.3612230000000000  -38.6057074381957293  5.3623144242983614   33.1293798454667581 0 0 0
97        6    1    0.0285690000000000  -33.4499920698921400  5.2767923856275809   37.7988361452129951 0 0 0
98        6    1    0.0285690000000000  -35.1236668115282811  5.8012803790970811   38.0508544027173627 0 0 0
99        6    1    0.0285690000000000  -34.0722922215417228  6.6913681707391905   36.9318866680617646 0 0 0
100       6    2    0.0140440000000000  -34.9855037056217881  3.7890988676857718   36.5634360937669953 0 0 0
101       6    2    0.0140440000000000  -33.9525902995005566  4.6848511100294772   35.4471361463105481 0 0 0
102       6    2    0.0140440000000000  -35.8026100905351683  6.3426273544681075   35.0715380746232768 0 0 0
103       6    2    0.0140440000000000  -36.8314639440305953  5.4472256018180332   36.1852241763587799 0 0 0
104       6    2    0.0140440000000000  -36.6626075893504222  3.4193281855450048   34.7030093099317511 0 0 0
105       6    2    0.0140440000000000  -35.6463933802039321  4.3279285960173421   33.5846007382468486 0 0 0
106       7    3   -0.1079060000000000  -37.6213514661847057  26.1959059167003794  35.0725643527708826 0 0 0
107       7    4   -0.0058890000000000  -36.6483486063306785  25.2397901030608836  35.7439018719252743 0 0 0
108       7    5   -0.0280880000000000  -35.1970545134344874  25.6515683850288774  35.4970759449562792 0 0 0
109       7    6    0.2690400000000000  -34.2225932302542688  24.6880458566587357  36.1738430201054513 0 0 0
110       7    7    0.0640950000000000  -32.8298764434719743  25.0797828889264665  35.9201494211225949 0 0 0
111       7    8   -0.3612230000000000  -31.7288374823550683  25.3870050636289690  35.7201697362201642 0 0 0
112       7    1    0.0285690000000000  -38.6523803216596349  25.8763239955464677  35.2536307255451860 0 0 0
113       7    1    0.0285690000000000  -37.4597893268757289  26.2247291616148246  33.9902509102809063 0 0 0
114       7    1    0.0285690000000000  -37.5066601962668429  27.2114956010964590  35.4646418733620195 0 0 0
115       7    2    0.0140440000000000  -36.8178840267533474  24.2269373379665680  35.3603465710064526 0 0 0
116       7    2    0.0140440000000000  -36.8515410926866664  25.2174258020958177  36.8208970019192776 0 0 0
117       7    2    0.0140440000000000  -35.0336139433026119  26.6697129273678932  35.8733358162424238 0 0 0
118       7    2    0.0140440000000000  -35.0014652105197399  25.6799780733039960  34.4173232265538545 0 0 0
119       7    2    0.0140440000000000  -34.3880611404494445  23.6698068451250911  35.8032483291199739 0 0 0
120       7    2    0.0140440000000000  -34.4062880225108572  24.6713099154901130  37.2543662219252951 0 0 0
121       8    3   -0.1079060000000000   34.8132861358924544 -23.5525619511296718  26.2281797612601828 0 0 0
122       8    4   -0.0058890000000000   35.1778300367340648 -25.0268287229047353  26.3005075498280618 0 0 0
123       8    5   -0.0280880000000000   35.8198641654172221 -25.5102565743249912  25.0001888866238282 0 0 0
124       8    6    0.2690400000000000   36.1849019408853110 -26.9923983793223812  25.0774366792161558 0 0 0
125       8    7    0.0640950000000000   36.7868857479447371 -27.4548372743649267  23.8199613684485563 0 0 0
126       8    8   -0.3612230000000000   37.2618642391354840 -27.8224681785759991  22.8270328291895019 0 0 0
127       8    1    0.0285690000000000   34.3465085454566506 -23.2312858940786349  27.1645763186719940 0 0 0
128       8    1    0.0285690000000000   34.1069682689971216 -23.3622513474507159  25.4137889231905412 0 0 0
129       8    1    0.0285690000000000   35.7028133209026919 -22.9362961265992951  26.0630764686108449 0 0 0
130       8    2    0.0140440000000000   34.2734854828146567 -25.6105796565923001  26.5081693581010818 0 0 0
131       8    2    0.0140440000000000   35.8667154596767332 -25.1862201215015240  27.1382050576496177 0 0 0
132       8    2    0.0140440000000000   36.7192916986662397 -24.9170528407524401  24.7903268778914274 0 0 0
133       8    2    0.0140440000000000   35.1291612304257583 -25.3410465742891340  24.1639917506672219 0 0 0
134       8    2    0.0140440000000000   35.2887170726369916 -27.5858548965838928  25.2923617427675325 0 0 0
135       8    2    0.0140440000000000   36.8874516774699046 -27.1598793351407970  25.9020143014950222 0 0 0
136       9    3   -0.1079060000000000   16.7470595635124759 -37.2569034088122280  5.1178144922633058  0 0 0
137       9    4   -0.0058890000000000   15.8301562708329850 -36.2431693867398721  4.4520684720975652  0 0 0
138       9    5   -0.0280880000000000   15.0742890805761753 -35.4073680159315103  5.4849478431027796  0 0 0
139       9    6    0.2690400000000000   14.1541877241421084 -34.3896467474079230  4.8114338918122943  0 0 0
140       9    7    0.0640950000000000   13.4190852651584720 -33.6004238460021938  5.8085447078668313  0 0 0
141       9    8   -0.3612230000000000   12.8366199641271255 -32.9763862145715549  6.5946587839098090  0 0 0
142       9    1    0.0285690000000000   17.2693564757680349 -37.8500375084631600  4.3606249441450036  0 0 0
143       9    1    0.0285690000000000   16.1781563018932957 -37.9427751900534957  5.7536324463319044  0 0 0
144       9    1    0.0285690000000000   17.4993884061115139 -36.7579538354648250  5.7369686834386826  0 0 0
145       9    2    0.0140440000000000   15.1177032182581783 -36.7718796582040213  3.8081711603116211  0 0 0
146       9    2    0.0140440000000000   16.4268275127621024 -35.5879880504075814  3.8067571487221068  0 0 0
147       9    2    0.0140440000000000   15.7906524075643837 -34.8873751297941794  6.1340499937023454  0 0 0
148       9    2    0.0140440000000000   14.4849909394048577 -36.0688270122171630  6.1331205945701619  0 0 0
149       9    2    0.0140440000000000   13.4415772522666721 -34.9068263183507241  4.1585615109652636  0 0 0
150       9    2    0.0140440000000000   14.7438403417885748 -33.7181847006356250  4.1766089014826528  0 0 0
151       10   3   -0.1079060000000000   13.6655059517688802 -36.0703383608594947 -34.1789744831325635 0 0 0
152       10   4   -0.0058890000000000   14.9534411999141454 -36.3538626882321267 -34.9355607844709581 0 0 0
153       10   5   -0.0280880000000000   15.2994029395894948 -35.2186598791071575 -35.8990772568966037 0 0 0
154       10   6    0.2690400000000000   16.5946953818076999 -35.5076773917987296 -36.6571343098879794 0 0 0
155       10   7    0.0640950000000000   16.9135611723681691 -34.4209852955858651 -37.5924969606490293 0 0 0
156       10   8   -0.3612230000000000   17.1668460975386381 -33.5639646374779872 -38.3327850607544747 0 0 0
157       10   1    0.0285690000000000   13.4322953421681248 -36.8996005919831731 -33.5037892492141722 0 0 0
158       10   1    0.0285690000000000   12.8242164309178488 -35.9467716205297663 -34.8683935827305689 0 0 0
159       10   1    0.0285690000000000   13.7555014024822029 -35.1589902985242233 -33.5792688847522953 0 0 0
160       10   2    0.0140440000000000   14.8444374463677704 -37.2927241026084602 -35.4908850840546251 0 0 0
161       10   2    0.0140440000000000   15.7691568826839728 -36.4945034374225017 -34.2168578117134246 0 0 0
162       10   2    0.0140440000000000   15.3979477723742928 -34.2785747916539947 -35.3410167188905291 0 0 0
163       10   2    0.0140440000000000   14.4761199279652644 -35.0770289701888061 -36.6111685341286019 0 0 0
164       10   2    0.0140440000000000   16.4999913151188906 -36.4490022278995482 -37.2107311230944404 0 0 0
165       10   2    0.0140440000000000   17.4207714611015412 -35.6330607291842298 -35.9476051786857482 0 0 0
166       11   3   -0.1079060000000000   4.9781106310756122   23.3511128777185775 -36.2981206893232766 0 0 0
167       11   4   -0.0058890000000000   4.9092081911269112   24.4716562381755516 -35.2728299451414458 0 0 0
168       11   5   -0.0280880000000000   5.1855938869001026   25.8331438315528139 -35.9105614059082328 0 0 0
169       11   6    0.2690400000000000   5.1150255804962983   26.9564417859080834 -34.8765469239146029 0 0 0
170       11   7    0.0640950000000000   5.3968112731391429   28.2600066491685453 -35.4920092407907148 0 0 0
171       11   8   -0.3612230000000000   5.6200606774513044   29.2907786816236069 -35.9760886283737094 0 0 0
172       11   1    0.0285690000000000   4.7875828623903756   22.3861014904851459 -35.8181307640439641 0 0 0
173       11   1    0.0285690000000000   5.9664134400506708   23.3080626479624691 -36.7668847318755496 0 0 0
174       11   1    0.0285690000000000   4.2301661196033260   23.4928187980877503 -37.0847589266921389 0 0 0
175       11   2    0.0140440000000000   5.6400096458403661   24.2775670166321227 -34.4791132077159475 0 0 0
176       11   2    0.0140440000000000   3.9167377324448327   24.4725735250653962 -34.8073115183008568 0 0 0
177       11   2    0.0140440000000000   4.4582918768216491   26.0196716135934309 -36.7112747081974362 0 0 0
178       11   2    0.0140440000000000   6.1769387606525452   25.8239923467979189 -36.3818148518495192 0 0 0
179       11   2    0.0140440000000000   5.8369516506908177   26.7689767986020506 -34.0732970458518452 0 0 0
180       11   2    0.0140440000000000   4.1200612460383947   26.9769135722380504 -34.4170024350767889 0 0 0
181       12   3   -0.1079060000000000   25.3158747916149771 -7.1359431212431321   4.2837987825793533  0 0 0
182       12   4   -0.0058890000000000   26.0352833648462507 -5.9320262215150459   4.8708434847192166  0 0 0
183       12   5   -0.0280880000000000   25.0688328887481475 -4.7797431281591551   5.1446245757680833  0 0 0
184       12   6    0.2690400000000000   25.7960869696336239 -3.5719728378140556   5.7348419566500146  0 0 0
185       12   7    0.0640950000000000   24.8652111683603465 -2.4627804903919439   5.9810958334195936  0 0 0
186       12   8   -0.3612230000000000   24.1316197626668263 -1.5848942663767311   6.1755786349134967  0 0 0
187       12   1    0.0285690000000000   26.0276984866684415 -7.9436131973736295   4.0865319283341499  0 0 0
188       12   1    0.0285690000000000   24.8246528877325190 -6.8780992402911423   3.3401075903444672  0 0 0
189       12   1    0.0285690000000000   24.5559677529030296 -7.5141375787481692   4.9750379028760081  0 0 0
190       12   2    0.0140440000000000   26.8157938358959029 -5.6051294561300429   4.1739435200451691  0 0 0
191       12   2    0.0140440000000000   26.5339565471843457 -6.2293209681947426   5.8007073184677100  0 0 0
192       12   2    0.0140440000000000   24.2832446908748700 -5.1135239689177814   5.8348014759210169  0 0 0
193       12   2    0.0140440000000000   24.5666941291497558 -4.4915329731221965   4.2120368901628309  0 0 0
194       12   2    0.0140440000000000   26.5846231872277876 -3.2406245093850963   5.0493132134965215  0 0 0
195       12   2    0.0140440000000000   26.2842774101047354 -3.8546216170594079   6.6747004670247101  0 0 0
196       13   3   -0.1079060000000000   15.1942879416886711 -6.1739540528145120   33.7079556611161948 0 0 0
197       13   4   -0.0058890000000000   15.7597047883456280 -5.1688639450567599   34.6987552088573352 0 0 0
198       13   5   -0.0280880000000000   14.9586705370125337 -5.1532050111649035   36.0006145951892691 0 0 0
199       13   6    0.2690400000000000   15.5306114514684772 -4.1418623028279953   36.9936068639230484 0 0 0
200       13   7    0.0640950000000000   14.7476218551973215 -4.1201189956265525   38.2361578341142376 0 0 0
201       13   8   -0.3612230000000000   14.1298336367956523 -4.1007067265769637   39.2183110878961756 0 0 0
202       13   1    0.0285690000000000   15.7760987745880996 -6.1606348979143890   32.7809945554954538 0 0 0
203       13   1    0.0285690000000000   14.1544867514210431 -5.9382721466041870   33.4597561125608323 0 0 0
204       13   1    0.0285690000000000   15.2288898064706935 -7.1890572536661583   34.1162073961698695 0 0 0
205       13   2    0.0140440000000000   15.7495281365650044 -4.1715219000118067   34.2438563933564524 0 0 0
206       13   2    0.0140440000000000   16.8061452823779547 -5.4197447893148496   34.9078651152073718 0 0 0
207       13   2    0.0140440000000000   14.9627015592959136 -6.1555441705839717   36.4480546248630333 0 0 0
208       13   2    0.0140440000000000   13.9104642175345816 -4.9093410536949227   35.7844616383425844 0 0 0
209       13   2    0.0140440000000000   15.5323837621128593 -3.1410991109952442   36.5463925621753489 0 0 0
210       13   2    0.0140440000000000   16.5724622232925256 -4.3940372178690321   37.2227553737887931 0 0 0
211       14   3   -0.1079060000000000  -23.4581380887667876 -34.6762177615214853  25.3811809453719697 0 0 0
212       14   4   -0.0058890000000000  -24.8696274573631975 -34.8770953584549588  25.9093211089550550 0 0 0
213       14   5   -0.0280880000000000  -25.5972018700573223 -35.9905141152535748  25.1558802806202912 0 0 0
214       14   6    0.2690400000000000  -27.0153129723329570 -36.1891789501984249  25.6901623353993358 0 0 0
215       14   7    0.0640950000000000  -27.7146206908650719 -37.2492851182469380  24.9521772271031743 0 0 0
216       14   8   -0.3612230000000000  -28.2692418256549054 -38.0858846008425971  24.3698020598225540 0 0 0
217       14   1    0.0285690000000000  -22.9605617893510612 -33.8687166430360094  25.9273475009248209 0 0 0
218       14   1    0.0285690000000000  -23.4703374028343035 -34.4108106726576679  24.3192272053168246 0 0 0
219       14   1    0.0285690000000000  -22.8612376362246685 -35.5858998294854416  25.5015539555520867 0 0 0
220       14   2    0.0140440000000000  -25.4262049028148418 -33.9376005929751585  25.8128909049181523 0 0 0
221       14   2    0.0140440000000000  -24.8228619321751474 -35.1186576849467968  26.9775750518795476 0 0 0
222       14   2    0.0140440000000000  -25.0320330908557587 -36.9271658383160144  25.2462706589800128 0 0 0
223       14   2    0.0140440000000000  -25.6341229226010761 -35.7472949916168332  24.0861095049508336 0 0 0
224       14   2    0.0140440000000000  -27.5795368470980620 -35.2532066033497102  25.6056760999550903 0 0 0
225       14   2    0.0140440000000000  -26.9787784446162533 -36.4482162621543964  26.7546430338618073 0 0 0
226       15   3   -0.1079060000000000  -37.4670077274478501  16.2105841635141665 -36.3795420653863815 0 0 0
227       15   4   -0.0058890000000000  -36.0577703887993763  15.6530683069032293 -36.5012477430944102 0 0 0
228       15   5   -0.0280880000000000  -35.5465991404588735  15.1232422470770356 -35.1615734405122424 0 0 0
229       15   6    0.2690400000000000  -34.1300420097120139  14.5636063372936455 -35.2886075812427791 0 0 0
230       15   7    0.0640950000000000  -33.6384760631776842  14.0704757878581095 -33.9952926257036410 0 0 0
231       15   8   -0.3612230000000000  -33.2478293946937740  13.6811249216348685 -32.9742807666766993 0 0 0
232       15   1    0.0285690000000000  -37.8080218948539084  16.5930273574956892 -37.3466949372249388 0 0 0
233       15   1    0.0285690000000000  -37.5030751209990996  17.0325194600448349 -35.6574222667799106 0 0 0
234       15   1    0.0285690000000000  -38.1685001444424543  15.4357832843281262 -36.0541296146233705 0 0 0
235       15   2    0.0140440000000000  -35.3902592393222903  16.4412647771333980 -36.8685389641173344 0 0 0
236       15   2    0.0140440000000000  -36.0521793619442192  14.8493226468488100 -37.2466788350555476 0 0 0
237       15   2    0.0140440000000000  -36.2226940738038650  14.3413768046309098 -34.7921350954344959 0 0 0
238       15   2    0.0140440000000000  -35.5618144901775182  15.9298507062164738 -34.4172082710707699 0 0 0
239       15   2    0.0140440000000000  -33.4545069456423860  15.3416113124145017 -35.6626281352229313 0 0 0
240       15   2    0.0140440000000000  -34.1169690275807511  13.7470326107731733 -36.0197646809106118 0 0 0
241       16   3   -0.1079060000000000   5.4127716776598795  -13.5335758125928738 -36.9447046080424215 0 0 0
242       16   4   -0.0058890000000000   5.3033646356879984  -15.0153531474718722 -36.6222885600456038 0 0 0
243       16   5   -0.0280880000000000   4.9869566697323950  -15.2459314824665046 -35.1446354998481496 0 0 0
244       16   6    0.2690400000000000   4.8776002264256642  -16.7365416446971125 -34.8251254974035547 0 0 0
245       16   7    0.0640950000000000   4.5890629321692504  -16.9522126091450218 -33.4011484408056347 0 0 0
246       16   8   -0.3612230000000000   4.3620088123118084  -17.1248473839211428 -32.2762894300430503 0 0 0
247       16   1    0.0285690000000000   5.6495948916713781  -13.3927662371192202 -38.0039616898031269 0 0 0
248       16   1    0.0285690000000000   6.2037892108711787  -13.0605900041361878 -36.3540175680196427 0 0 0
249       16   1    0.0285690000000000   4.4710813259144073  -13.0161510523579800 -36.7354388069058473 0 0 0
250       16   2    0.0140440000000000   6.2464976935962193  -15.5099897161598506 -36.8822161488031313 0 0 0
251       16   2    0.0140440000000000   4.5198924915503609  -15.4620500967106977 -37.2454571515207249 0 0 0
252       16   2    0.0140440000000000   4.0473235191375547  -14.7410364801449276 -34.8856505606452387 0 0 0
253       16   2    0.0140440000000000   5.7702269276812768  -14.7899283764312308 -34.5253802301904216 0 0 0
254       16   2    0.0140440000000000   5.8132676062531150  -17.2433343171875215 -35.0882195496678406 0 0 0
255       16   2    0.0140440000000000   4.0845249540598765  -17.1895823636246732 -35.4312112813116968 0 0 0
256       17   3   -0.1079060000000000  -24.0977780384260321 -23.7084672020869647  25.3113913667517600 0 0 0
257       17   4   -0.0058890000000000  -25.0023383066569096 -24.7941939699163676  24.7505400622540073 0 0 0
258       17   5   -0.0280880000000000  -25.5844332419015963 -25.6683700403746258  25.8612698313700626 0 0 0
259       17   6    0.2690400000000000  -26.4931544435944133 -26.7580329524909999  25.2930932350093656 0 0 0
260       17   7    0.0640950000000000  -27.0368855905314582 -27.6042456498223601  26.3634945165508690 0 0 0
261       17   8   -0.3612230000000000  -27.4668415992057362 -28.2745779033919327  27.2075659787679243 0 0 0
262       17   1    0.0285690000000000  -23.6847697150908694 -23.1023209106659735  24.4990189553833844 0 0 0
263       17   1    0.0285690000000000  -23.2623175735845358 -24.1430128695914235  25.8695234000914738 0 0 0
264       17   1    0.0285690000000000  -24.6517295550891085 -23.0446317474375881  25.9827790959642577 0 0 0
265       17   2    0.0140440000000000  -24.4286405222116834 -25.4139748382995023  24.0516336459800399 0 0 0
266       17   2    0.0140440000000000  -25.8134836846635451 -24.3271608294627413  24.1799008768167631 0 0 0
267       17   2    0.0140440000000000  -26.1497236430118782 -25.0431748932999412  26.5644628420626212 0 0 0
268       17   2    0.0140440000000000  -24.7681079596464961 -26.1270264846694644  26.4341358875803536 0 0 0
269       17   2    0.0140440000000000  -25.9316550123278056 -27.3800628073644354  24.5864617983796414 0 0 0
270       17   2    0.0140440000000000  -27.3179589876693427 -26.3005647747370723  24.7345463806489931 0 0 0
271       18   3   -0.1079060000000000  -13.9648772537990258 -35.3422126467043896 -3.3347528496710241  0 0 0