
                                 *****************
                                 * O   R   C   A *
                                 *****************

           --- An Ab Initio, DFT and Semiempirical electronic structure package ---

                  #######################################################
                  #                        -***-                        #
                  #          Department of theory and spectroscopy      #
                  #               Directorship: Frank Neese             #
                  #        Max Planck Institute fuer Kohlenforschung    #
                  #                Kaiser Wilhelm Platz 1               #
                  #                 D-45470 Muelheim/Ruhr               #
                  #                      Germany                        #
                  #                                                     #
                  #                  All rights reserved                #
                  #                        -***-                        #
                  #######################################################


                         Program Version 4.1.2  - RELEASE  -


 With contributions from (in alphabetic order):
   Daniel Aravena         : Magnetic Properties
   Michael Atanasov       : Ab Initio Ligand Field Theory
   Alexander A. Auer      : GIAO ZORA
   Ute Becker             : Parallelization
   Giovanni Bistoni       : ED, Open-shell LED
   Martin Brehm           : Molecular dynamics
   Dmytro Bykov           : SCF Hessian
   Vijay G. Chilkuri      : MRCI spin determinant printing
   Dipayan Datta          : RHF DLPNO-CCSD density
   Achintya Kumar Dutta   : EOM-CC, STEOM-CC
   Dmitry Ganyushin       : Spin-Orbit,Spin-Spin,Magnetic field MRCI
   Miquel Garcia          : C-PCM Hessian
   Yang Guo               : DLPNO-NEVPT2, CIM, IAO-localization
   Andreas Hansen         : Spin unrestricted coupled pair/coupled cluster methods
   Benjamin Helmich-Paris : CASSCF linear response (MC-RPA)
   Lee Huntington         : MR-EOM, pCC
   Robert Izsak           : Overlap fitted RIJCOSX, COSX-SCS-MP3, EOM
   Christian Kollmar      : KDIIS, OOCD, Brueckner-CCSD(T), CCSD density
   Simone Kossmann        : Meta GGA functionals, TD-DFT gradient, OOMP2, MP2 Hessian
   Martin Krupicka        : AUTO-CI
   Lucas Lang             : DCDCAS
   Dagmar Lenk            : GEPOL surface, SMD
   Dimitrios Liakos       : Extrapolation schemes; parallel MDCI
   Dimitrios Manganas     : ROCIS; embedding schemes
   Dimitrios Pantazis     : SARC Basis sets
   Taras Petrenko         : DFT Hessian,TD-DFT gradient, ASA, ECA, R-Raman, ABS, FL, XAS/XES, NRVS
   Peter Pinski           : DLPNO-MP2, DLPNO-MP2 Gradient
   Christoph Reimann      : Effective Core Potentials
   Marius Retegan         : Local ZFS, SOC
   Christoph Riplinger    : Optimizer, TS searches, QM/MM, DLPNO-CCSD(T), (RO)-DLPNO pert. Triples
   Tobias Risthaus        : Range-separated hybrids, TD-DFT gradient, RPA, STAB
   Michael Roemelt        : Restricted open shell CIS
   Masaaki Saitow         : Open-shell DLPNO
   Barbara Sandhoefer     : DKH picture change effects
   Avijit Sen             : IP-ROCIS
   Kantharuban Sivalingam : CASSCF convergence, NEVPT2, FIC-MRCI
   Bernardo de Souza      : ESD, SOC TD-DFT
   Georgi Stoychev        : AutoAux, RI-MP2 NMR
   Willem Van den Heuvel  : Paramagnetic NMR
   Boris Wezisla          : Elementary symmetry handling
   Frank Wennmohs         : Technical directorship


 We gratefully acknowledge several colleagues who have allowed us to
 interface, adapt or use parts of their codes:
   Stefan Grimme, W. Hujo, H. Kruse,             : VdW corrections, initial TS optimization,
                  C. Bannwarth                     DFT functionals, gCP, sTDA/sTD-DF
   Ed Valeev                                     : LibInt (2-el integral package), F12 methods
   Garnet Chan, S. Sharma, J. Yang, R. Olivares  : DMRG
   Ulf Ekstrom                                   : XCFun DFT Library
   Mihaly Kallay                                 : mrcc  (arbitrary order and MRCC methods)
   Andreas Klamt, Michael Diedenhofen            : otool_cosmo (COSMO solvation model)
   Jiri Pittner, Ondrej Demel                    : Mk-CCSD
   Frank Weinhold                                : gennbo (NPA and NBO analysis)
   Christopher J. Cramer and Donald G. Truhlar   : smd solvation model
   Lars Goerigk                                  : TD-DFT with DH, B97 family of functionals
   V. Asgeirsson, H. Jonsson                     : NEB implementation
   FAccTs GmbH                                   : IRC, NEB, NEB-TS, Multilevel


 Your calculation uses the libint2 library for the computation of 2-el integrals
 For citations please refer to: http://libint.valeyev.net

 This ORCA versions uses:
   CBLAS   interface :  Fast vector & matrix operations
   LAPACKE interface :  Fast linear algebra routines
   SCALAPACK package :  Parallel linear algebra routines


Your calculation utilizes the atom-pairwise dispersion correction
with the zero-damping scheme (D30)
Cite in your paper:
S.Grimme, J.Antony, S.Ehrlich and H.Krieg, J.Chem.Phys., 132, (2010), 154104 
   

XCFun DFT library Copyright 2009-2010 Ulf Ekstrom and contributors.
See http://admol.org/xcfun for more information. This is free soft-
ware; see the source code for copying conditions. There is ABSOLUTELY
NO WARRANTY; not even for MERCHANTABILITY or FITNESS FOR A PARTICULAR
PURPOSE. For details see the documentation. Scientific users of this 
library should cite U. Ekstrom, L. Visscher, R. Bast, A. J. Thorvald-
sen and K. Ruud; J.Chem.Theor.Comp. 2010, DOI: 10.1021/ct100117s
XCFun Version 0.99 
----- Orbital basis set information -----
Your calculation utilizes the basis: def2-TZVP
   F. Weigend and R. Ahlrichs, Phys. Chem. Chem. Phys. 7, 3297 (2005).

================================================================================
                                        WARNINGS
                       Please study these warnings very carefully!
================================================================================


WARNING: Geometry Optimization
  ===> : Switching off AutoStart
         For restart on a previous wavefunction, please use MOREAD

INFO   : the flag for use of LIBINT has been found!

================================================================================
                                       INPUT FILE
================================================================================
NAME = bonds_angles_[1[8[6]]]-[8[6[1][1][1]][1]]_6.in
|  1> #Run DFT geometry optimization
|  2> ! wB97X-D3 def2-TZVP TIGHTSCF Grid5 FinalGrid6 Opt CHELPG PAL4
|  3> 
|  4> %base "6_geo_opt"
|  5> %geom MaxIter 500
|  6> end
|  7> 
|  8> %geom
|  9>   Constraints
| 10>     { B 2 1 C }
| 11>   end
| 12> end
| 13> 
| 14> 
| 15> * xyz 0 1
| 16>   C                    3.011347             -1.180819            0.598444            
| 17>   O                    4.394712             -1.127972            0.874259            
| 18>   H                    4.772157             -0.379100            0.412541            
| 19>   H                    2.806474             -1.318887            -0.469398           
| 20>   H                    2.611671             -2.040187            1.135850            
| 21>   H                    2.484797             -0.284413            0.945611            
| 22> *
| 23> 
| 24>                          ****END OF INPUT****
================================================================================

                       *****************************
                       * Geometry Optimization Run *
                       *****************************

Geometry optimization settings:
Update method            Update   .... BFGS
Choice of coordinates    CoordSys .... Z-matrix Internals
Initial Hessian          InHess   .... Almoef's Model

Convergence Tolerances:
Energy Change            TolE     ....  5.0000e-06 Eh
Max. Gradient            TolMAXG  ....  3.0000e-04 Eh/bohr
RMS Gradient             TolRMSG  ....  1.0000e-04 Eh/bohr
Max. Displacement        TolMAXD  ....  4.0000e-03 bohr
RMS Displacement         TolRMSD  ....  2.0000e-03 bohr

------------------------------------------------------------------------------
                        ORCA OPTIMIZATION COORDINATE SETUP
------------------------------------------------------------------------------

The optimization will be done in new redundant internal coordinates
Making redundant internal coordinates   ...  (new redundants) done
Evaluating the initial hessian          ...  (Almloef) done
Evaluating the coordinates              ...  done
Calculating the B-matrix                .... done
Calculating the G-matrix                .... done
Diagonalizing the G-matrix              .... done
Imposing constraints:
 Iter   0:  RMS(Cart)=    0.0000000000 RMS(Int)=    0.0000000000
CONVERGED
The first mode is                       ....    3
The number of degrees of freedom        ....   12
Storing new coordinates                 .... done

    -----------------------------------------------------------------
                    Redundant Internal Coordinates


    -----------------------------------------------------------------
         Definition                    Initial Value    Approx d2E/dq
    -----------------------------------------------------------------
      1. B(O   1,C   0)                  1.4116         0.516942   
      2. B(H   2,O   1)                  0.9573         0.525105 C 
      3. B(H   3,C   0)                  1.0960         0.352187   
      4. B(H   4,C   0)                  1.0895         0.360732   
      5. B(H   5,C   0)                  1.0960         0.352186   
      6. A(O   1,C   0,H   4)          107.0169         0.340286   
      7. A(O   1,C   0,H   3)          112.2262         0.338926   
      8. A(O   1,C   0,H   5)          112.2281         0.338926   
      9. A(H   3,C   0,H   5)          108.7730         0.288819   
     10. A(H   4,C   0,H   5)          108.2173         0.289907   
     11. A(H   3,C   0,H   4)          108.2177         0.289907   
     12. A(C   0,O   1,H   2)          108.7500         0.359386   
     13. D(H   2,O   1,C   0,H   5)    -61.4304         0.021176   
     14. D(H   2,O   1,C   0,H   3)     61.4271         0.021176   
     15. D(H   2,O   1,C   0,H   4)    179.9981         0.021176   
    -----------------------------------------------------------------

Number of atoms                         .... 6
Number of degrees of freedom            .... 15

         *************************************************************
         *                GEOMETRY OPTIMIZATION CYCLE   1            *
         *************************************************************
---------------------------------
CARTESIAN COORDINATES (ANGSTROEM)
---------------------------------
  C      3.011347   -1.180819    0.598444
  O      4.394712   -1.127972    0.874259
  H      4.772157   -0.379100    0.412541
  H      2.806474   -1.318887   -0.469398
  H      2.611671   -2.040187    1.135850
  H      2.484797   -0.284413    0.945611

----------------------------
CARTESIAN COORDINATES (A.U.)
----------------------------
  NO LB      ZA    FRAG     MASS         X           Y           Z
   0 C     6.0000    0    12.011    5.690621   -2.231425    1.130895
   1 O     8.0000    0    15.999    8.304802   -2.131558    1.652110
   2 H     1.0000    0     1.008    9.018070   -0.716395    0.779590
   3 H     1.0000    0     1.008    5.303467   -2.492335   -0.887034
   4 H     1.0000    0     1.008    4.935343   -3.855395    2.146445
   5 H     1.0000    0     1.008    4.695586   -0.537463    1.786946

--------------------------------
INTERNAL COORDINATES (ANGSTROEM)
--------------------------------
 C      0   0   0     0.000000000000     0.00000000     0.00000000
 O      1   0   0     1.411582602209     0.00000000     0.00000000
 H      2   1   0     0.957317874028   108.74996649     0.00000000
 H      1   2   3     1.096048473252   112.22624862    61.42712740
 H      1   2   3     1.089522589594   107.01693843   179.99805853
 H      1   2   3     1.096049061505   112.22812224   298.56961200

---------------------------
INTERNAL COORDINATES (A.U.)
---------------------------
 C      0   0   0     0.000000000000     0.00000000     0.00000000
 O      1   0   0     2.667504533583     0.00000000     0.00000000
 H      2   1   0     1.809068605020   108.74996649     0.00000000
 H      1   2   3     2.071231443948   112.22624862    61.42712740
 H      1   2   3     2.058899311054   107.01693843   179.99805853
 H      1   2   3     2.071232555585   112.22812224   298.56961200

---------------------
BASIS SET INFORMATION
---------------------
There are 3 groups of distinct atoms

 Group   1 Type C   : 11s6p2d1f contracted to 5s3p2d1f pattern {62111/411/11/1}
 Group   2 Type O   : 11s6p2d1f contracted to 5s3p2d1f pattern {62111/411/11/1}
 Group   3 Type H   : 5s1p contracted to 3s1p pattern {311/1}

Atom   0C    basis set group =>   1
Atom   1O    basis set group =>   2
Atom   2H    basis set group =>   3
Atom   3H    basis set group =>   3
Atom   4H    basis set group =>   3
Atom   5H    basis set group =>   3


           ************************************************************
           *        Program running with 4 parallel MPI-processes     *
           *              working on a common directory               *
           ************************************************************
------------------------------------------------------------------------------
                           ORCA GTO INTEGRAL CALCULATION
------------------------------------------------------------------------------

                         BASIS SET STATISTICS AND STARTUP INFO

 # of primitive gaussian shells          ...   64
 # of primitive gaussian functions       ...  124
 # of contracted shells                  ...   38
 # of contracted basis functions         ...   86
 Highest angular momentum                ...    3
 Maximum contraction depth               ...    6
 Integral package used                   ... LIBINT
 Integral threshhold            Thresh   ...  2.500e-11
 Primitive cut-off              TCut     ...  2.500e-12


------------------------------ INTEGRAL EVALUATION ----------------------------


 * One electron integrals 
 Pre-screening matrix                    ... done
 Shell pair data                         ... done (   0.000 sec)



           ************************************************************
           *        Program running with 4 parallel MPI-processes     *
           *              working on a common directory               *
           ************************************************************
-------------------------------------------------------------------------------
                                 ORCA SCF
-------------------------------------------------------------------------------

------------
SCF SETTINGS
------------
Hamiltonian:
 Density Functional     Method          .... DFT(GTOs)
 Exchange Functional    Exchange        .... WB97X-D3
 Correlation Functional Correlation     .... WB97X-D3
 Gradients option       PostSCFGGA      .... off
 Hybrid DFT is turned on
   Fraction HF Exchange ScalHFX         ....  0.195728
   Scaling of DF-GGA-X  ScalDFX         ....  0.000000
   Scaling of DF-GGA-C  ScalDFC         ....  1.000000
   Scaling of DF-LDA-C  ScalLDAC        ....  1.000000
   Perturbative correction              ....  0.000000
   Density functional embedding theory  .... OFF
 Long-range corrected/Screened/Range-Separated Hybrid DFT is turned on
   Amount of maximum screened exact exchange              ....  0.804272
   Range separation parameter mu (erf(mu*r12)/r12)        ....  0.250000


General Settings:
 Integral files         IntName         .... 6_geo_opt
 Hartree-Fock type      HFTyp           .... RHF
 Total Charge           Charge          ....    0
 Multiplicity           Mult            ....    1
 Number of Electrons    NEL             ....   18
 Basis Dimension        Dim             ....   86
 Nuclear Repulsion      ENuc            ....     40.4392533832 Eh

Convergence Acceleration:
 DIIS                   CNVDIIS         .... on
   Start iteration      DIISMaxIt       ....    12
   Startup error        DIISStart       ....  0.200000
   # of expansion vecs  DIISMaxEq       ....     5
   Bias factor          DIISBfac        ....   1.050
   Max. coefficient     DIISMaxC        ....  10.000
 Newton-Raphson         CNVNR           .... off
 SOSCF                  CNVSOSCF        .... on
   Start iteration      SOSCFMaxIt      ....   150
   Startup grad/error   SOSCFStart      ....  0.003300
 Level Shifting         CNVShift        .... on
   Level shift para.    LevelShift      ....    0.2500
   Turn off err/grad.   ShiftErr        ....    0.0010
 Zerner damping         CNVZerner       .... off
 Static damping         CNVDamp         .... on
   Fraction old density DampFac         ....    0.7000
   Max. Damping (<1)    DampMax         ....    0.9800
   Min. Damping (>=0)   DampMin         ....    0.0000
   Turn off err/grad.   DampErr         ....    0.1000
 Fernandez-Rico         CNVRico         .... off

SCF Procedure:
 Maximum # iterations   MaxIter         ....   125
 SCF integral mode      SCFMode         .... Direct
   Integral package                     .... LIBINT
 Reset frequency        DirectResetFreq ....    20
 Integral Threshold     Thresh          ....  2.500e-11 Eh
 Primitive CutOff       TCut            ....  2.500e-12 Eh

Convergence Tolerance:
 Convergence Check Mode ConvCheckMode   .... Total+1el-Energy
 Convergence forced     ConvForced      .... 0
 Energy Change          TolE            ....  1.000e-08 Eh
 1-El. energy change                    ....  1.000e-05 Eh
 Orbital Gradient       TolG            ....  1.000e-05
 Orbital Rotation angle TolX            ....  1.000e-05
 DIIS Error             TolErr          ....  5.000e-07


Diagonalization of the overlap matrix:
Smallest eigenvalue                        ... 1.650e-03
Time for diagonalization                   ...    0.039 sec
Threshold for overlap eigenvalues          ... 1.000e-08
Number of eigenvalues below threshold      ... 0
Time for construction of square roots      ...    0.005 sec
Total time needed                          ...    0.044 sec

-------------------
DFT GRID GENERATION
-------------------

General Integration Accuracy     IntAcc      ...  5.010
Radial Grid Type                 RadialGrid  ... Gauss-Chebyshev
Angular Grid (max. acc.)         AngularGrid ... Lebedev-434
Angular grid pruning method      GridPruning ... 3 (G Style)
Weight generation scheme         WeightScheme... Becke
Basis function cutoff            BFCut       ...    1.0000e-11
Integration weight cutoff        WCut        ...    1.0000e-14
Grids for H and He will be reduced by one unit

# of grid points (after initial pruning)     ...  48308 (   0.0 sec)
# of grid points (after weights+screening)   ...  46676 (   0.0 sec)
nearest neighbour list constructed           ...    0.0 sec
Grid point re-assignment to atoms done       ...    0.0 sec
Grid point division into batches done        ...    0.3 sec
Reduced shell lists constructed in    0.4 sec

Total number of grid points                  ...    46676
Total number of batches                      ...      733
Average number of points per batch           ...       63
Average number of grid points per atom       ...     7779
Average number of shells per batch           ...    33.11 (87.13%)
Average number of basis functions per batch  ...    76.77 (89.27%)
Average number of large shells per batch     ...    30.61 (92.44%)
Average number of large basis fcns per batch ...    72.21 (94.05%)
Maximum spatial batch extension              ...  15.77, 14.99, 16.58 au
Average spatial batch extension              ...   0.40,  0.40,  0.43 au

Time for grid setup =    0.448 sec

------------------------------
INITIAL GUESS: MODEL POTENTIAL
------------------------------
Loading Hartree-Fock densities                     ... done
Calculating cut-offs                               ... done
Setting up the integral package                    ... done
Initializing the effective Hamiltonian             ... done
Starting the Coulomb interaction                   ... done (   0.0 sec)
Reading the grid                                   ... done
Mapping shells                                     ... done
Starting the XC term evaluation                    ... done (   0.1 sec)
  promolecular density results
     # of electrons  =     17.998045203
     EX              =    -14.430335768
     EC              =     -0.575123322
     EX+EC           =    -15.005459091
Transforming the Hamiltonian                       ... done (   0.0 sec)
Diagonalizing the Hamiltonian                      ... done (   0.0 sec)
Back transforming the eigenvectors                 ... done (   0.0 sec)
Now organizing SCF variables                       ... done
                      ------------------
                      INITIAL GUESS DONE (   0.6 sec)
                      ------------------
--------------
SCF ITERATIONS
--------------
ITER       Energy         Delta-E        Max-DP      RMS-DP      [F,P]     Damp
               ***  Starting incremental Fock matrix formation  ***
  0   -115.6512001814   0.000000000000 0.03697237  0.00147475  0.2523844 0.7000
  1   -115.6882713115  -0.037071130063 0.02203141  0.00104085  0.1262695 0.7000
                               ***Turning on DIIS***
  2   -115.7053373914  -0.017066079853 0.03156732  0.00188127  0.0491071 0.0000
  3   -115.7330769681  -0.027739576709 0.01774252  0.00068029  0.0611341 0.0000
  4   -115.7376014040  -0.004524435906 0.00406500  0.00013180  0.0065551 0.0000
                      *** Initiating the SOSCF procedure ***
                           *** Shutting down DIIS ***
                      *** Re-Reading the Fockian *** 
                      *** Removing any level shift *** 
ITER      Energy       Delta-E        Grad      Rot      Max-DP    RMS-DP
  5   -115.73769557  -0.0000941662  0.000489  0.000489  0.000678  0.000043
               *** Restarting incremental Fock matrix formation ***
  6   -115.73770371  -0.0000081399  0.000152  0.000203  0.000490  0.000026
  7   -115.73770443  -0.0000007222  0.000056  0.000109  0.000208  0.000011
  8   -115.73770449  -0.0000000574  0.000019  0.000017  0.000030  0.000001
  9   -115.73770450  -0.0000000056  0.000010  0.000008  0.000015  0.000001
 10   -115.73770450  -0.0000000015  0.000003  0.000003  0.000003  0.000000
                  ***Gradient check signals convergence***
              ***Rediagonalizing the Fockian in SOSCF/NRSCF***

               *****************************************************
               *                     SUCCESS                       *
               *           SCF CONVERGED AFTER  11 CYCLES          *
               *****************************************************

Setting up the final grid:

General Integration Accuracy     IntAcc      ...  5.340
Radial Grid Type                 RadialGrid  ... Gauss-Chebyshev
Angular Grid (max. acc.)         AngularGrid ... Lebedev-590
Angular grid pruning method      GridPruning ... 3 (G Style)
Weight generation scheme         WeightScheme... Becke
Basis function cutoff            BFCut       ...    1.0000e-11
Integration weight cutoff        WCut        ...    1.0000e-14
Grids for H and He will be reduced by one unit

# of grid points (after initial pruning)     ...  77324 (   0.0 sec)
# of grid points (after weights+screening)   ...  74512 (   0.0 sec)
nearest neighbour list constructed           ...    0.0 sec
Grid point re-assignment to atoms done       ...    0.0 sec
Grid point division into batches done        ...    0.8 sec
Reduced shell lists constructed in    0.8 sec

Total number of grid points                  ...    74512
Total number of batches                      ...     1167
Average number of points per batch           ...       63
Average number of grid points per atom       ...    12419
Average number of shells per batch           ...    32.93 (86.65%)
Average number of basis functions per batch  ...    76.35 (88.78%)
Average number of large shells per batch     ...    30.32 (92.08%)
Average number of large basis fcns per batch ...    71.53 (93.68%)
Maximum spatial batch extension              ...  13.18, 14.25, 15.48 au
Average spatial batch extension              ...   0.34,  0.36,  0.37 au

Final grid set up in    0.9 sec
Final integration                            ... done (   0.2 sec)
Change in XC energy                          ...    -0.000107576
Integrated number of electrons               ...    18.000000746
Previous integrated no of electrons          ...    18.000002273

----------------
TOTAL SCF ENERGY
----------------

Total Energy       :         -115.73781207 Eh           -3149.38598 eV

Components:
Nuclear Repulsion  :           40.43925338 Eh            1100.40803 eV
Electronic Energy  :         -156.17706546 Eh           -4249.79401 eV
One Electron Energy:         -237.29749613 Eh           -6457.19315 eV
Two Electron Energy:           81.12043068 Eh            2207.39914 eV

Virial components:
Potential Energy   :         -230.98878272 Eh           -6285.52433 eV
Kinetic Energy     :          115.25097065 Eh            3136.13835 eV
Virial Ratio       :            2.00422418


DFT components:
N(Alpha)           :        9.000000372765 electrons
N(Beta)            :        9.000000372765 electrons
N(Total)           :       18.000000745530 electrons
E(XC)              :      -10.655692938623 Eh       
DFET-embed. en.    :        0.000000000000 Eh       

---------------
SCF CONVERGENCE
---------------

  Last Energy change         ...   -7.9538e-11  Tolerance :   1.0000e-08
  Last MAX-Density change    ...    1.8627e-06  Tolerance :   1.0000e-07
  Last RMS-Density change    ...    7.7856e-08  Tolerance :   5.0000e-09
  Last Orbital Gradient      ...    1.3503e-06  Tolerance :   1.0000e-05
  Last Orbital Rotation      ...    7.8066e-07  Tolerance :   1.0000e-05

             **** THE GBW FILE WAS UPDATED (6_geo_opt.gbw) ****
             **** DENSITY FILE WAS UPDATED (6_geo_opt.scfp.tmp) ****
             **** ENERGY FILE WAS UPDATED (6_geo_opt.en.tmp) ****
----------------
ORBITAL ENERGIES
----------------

  NO   OCC          E(Eh)            E(eV) 
   0   2.0000     -19.228069      -523.2223 
   1   2.0000     -10.315119      -280.6887 
   2   2.0000      -1.136839       -30.9350 
   3   2.0000      -0.795364       -21.6429 
   4   2.0000      -0.611615       -16.6429 
   5   2.0000      -0.541778       -14.7425 
   6   2.0000      -0.526330       -14.3222 
   7   2.0000      -0.433806       -11.8045 
   8   2.0000      -0.373615       -10.1666 
   9   0.0000       0.116663         3.1746 
  10   0.0000       0.156686         4.2636 
  11   0.0000       0.202571         5.5122 
  12   0.0000       0.205113         5.5814 
  13   0.0000       0.226375         6.1600 
  14   0.0000       0.304327         8.2812 
  15   0.0000       0.313362         8.5270 
  16   0.0000       0.404501        11.0070 
  17   0.0000       0.452636        12.3168 
  18   0.0000       0.485057        13.1991 
  19   0.0000       0.535845        14.5811 
  20   0.0000       0.543640        14.7932 
  21   0.0000       0.567655        15.4467 
  22   0.0000       0.598568        16.2879 
  23   0.0000       0.603503        16.4222 
  24   0.0000       0.671359        18.2686 
  25   0.0000       0.779009        21.1979 
  26   0.0000       0.832201        22.6453 
  27   0.0000       0.861294        23.4370 
  28   0.0000       0.989577        26.9278 
  29   0.0000       1.013930        27.5904 
  30   0.0000       1.109763        30.1982 
  31   0.0000       1.382672        37.6244 
  32   0.0000       1.512900        41.1681 
  33   0.0000       1.553585        42.2752 
  34   0.0000       1.602836        43.6154 
  35   0.0000       1.613071        43.8939 
  36   0.0000       1.624154        44.1955 
  37   0.0000       1.660319        45.1796 
  38   0.0000       1.687977        45.9322 
  39   0.0000       1.774591        48.2891 
  40   0.0000       1.952100        53.1193 
  41   0.0000       2.030716        55.2586 
  42   0.0000       2.055231        55.9257 
  43   0.0000       2.094175        56.9854 
  44   0.0000       2.114669        57.5431 
  45   0.0000       2.268586        61.7314 
  46   0.0000       2.333473        63.4970 
  47   0.0000       2.345571        63.8262 
  48   0.0000       2.381018        64.7908 
  49   0.0000       2.429490        66.1098 
  50   0.0000       2.497630        67.9640 
  51   0.0000       2.596348        70.6502 
  52   0.0000       2.639899        71.8353 
  53   0.0000       2.707376        73.6715 
  54   0.0000       2.842008        77.3350 
  55   0.0000       2.871317        78.1325 
  56   0.0000       2.888457        78.5989 
  57   0.0000       2.992901        81.4410 
  58   0.0000       3.096065        84.2482 
  59   0.0000       3.173059        86.3433 
  60   0.0000       3.299279        89.7780 
  61   0.0000       3.408365        92.7463 
  62   0.0000       3.441864        93.6579 
  63   0.0000       3.488295        94.9213 
  64   0.0000       3.612597        98.3037 
  65   0.0000       3.645252        99.1923 
  66   0.0000       3.667023        99.7848 
  67   0.0000       4.005751       109.0020 
  68   0.0000       4.223781       114.9349 
  69   0.0000       4.273388       116.2848 
  70   0.0000       4.455788       121.2481 
  71   0.0000       4.564397       124.2036 
  72   0.0000       5.346086       145.4744 
  73   0.0000       5.425402       147.6327 
  74   0.0000       5.554505       151.1458 
  75   0.0000       5.826118       158.5367 
  76   0.0000       5.834148       158.7552 
  77   0.0000       5.985668       162.8783 
  78   0.0000       6.380179       173.6135 
  79   0.0000       6.530955       177.7163 
  80   0.0000       6.745087       183.5432 
  81   0.0000       6.804023       185.1469 
  82   0.0000       7.039420       191.5524 
  83   0.0000       7.216115       196.3605 
  84   0.0000      22.406106       609.7011 
  85   0.0000      43.664225      1188.1640 

                    ********************************
                    * MULLIKEN POPULATION ANALYSIS *
                    ********************************

-----------------------
MULLIKEN ATOMIC CHARGES
-----------------------
   0 C :   -0.150851
   1 O :   -0.477617
   2 H :    0.312981
   3 H :    0.098628
   4 H :    0.118227
   5 H :    0.098632
Sum of atomic charges:   -0.0000000

--------------------------------
MULLIKEN REDUCED ORBITAL CHARGES
--------------------------------
  0 C s       :     3.223098  s :     3.223098
      pz      :     1.047260  p :     2.826089
      px      :     0.702189
      py      :     1.076640
      dz2     :     0.011108  d :     0.094243
      dxz     :     0.032492
      dyz     :     0.002645
      dx2y2   :     0.012741
      dxy     :     0.035258
      f0      :     0.001356  f :     0.007420
      f+1     :     0.000956
      f-1     :     0.000175
      f+2     :     0.001464
      f-2     :     0.000123
      f+3     :     0.001361
      f-3     :     0.001986
  1 O s       :     3.792732  s :     3.792732
      pz      :     1.759412  p :     4.652623
      px      :     1.313627
      py      :     1.579584
      dz2     :     0.003136  d :     0.030577
      dxz     :     0.006477
      dyz     :     0.005835
      dx2y2   :     0.008936
      dxy     :     0.006192
      f0      :     0.000269  f :     0.001685
      f+1     :     0.000233
      f-1     :     0.000087
      f+2     :     0.000287
      f-2     :     0.000235
      f+3     :     0.000367
      f-3     :     0.000206
  2 H s       :     0.639302  s :     0.639302
      pz      :     0.017016  p :     0.047717
      px      :     0.012727
      py      :     0.017975
  3 H s       :     0.882007  s :     0.882007
      pz      :     0.012072  p :     0.019365
      px      :     0.003007
      py      :     0.004285
  4 H s       :     0.861554  s :     0.861554
      pz      :     0.006297  p :     0.020219
      px      :     0.004194
      py      :     0.009729
  5 H s       :     0.882004  s :     0.882004
      pz      :     0.004929  p :     0.019364
      px      :     0.004977
      py      :     0.009458


                     *******************************
                     * LOEWDIN POPULATION ANALYSIS *
                     *******************************

----------------------
LOEWDIN ATOMIC CHARGES
----------------------
   0 C :   -0.385135
   1 O :   -0.076008
   2 H :    0.165657
   3 H :    0.093398
   4 H :    0.108692
   5 H :    0.093396

-------------------------------
LOEWDIN REDUCED ORBITAL CHARGES
-------------------------------
  0 C s       :     2.862937  s :     2.862937
      pz      :     1.096641  p :     3.052239
      px      :     0.846049
      py      :     1.109548
      dz2     :     0.072411  d :     0.412939
      dxz     :     0.114037
      dyz     :     0.020708
      dx2y2   :     0.082141
      dxy     :     0.123642
      f0      :     0.007821  f :     0.057021
      f+1     :     0.007163
      f-1     :     0.000855
      f+2     :     0.012527
      f-2     :     0.004830
      f+3     :     0.011734
      f-3     :     0.012091
  1 O s       :     3.366172  s :     3.366172
      pz      :     1.699038  p :     4.633621
      px      :     1.381172
      py      :     1.553411
      dz2     :     0.006131  d :     0.071569
      dxz     :     0.017864
      dyz     :     0.008087
      dx2y2   :     0.019340
      dxy     :     0.020147
      f0      :     0.000484  f :     0.004646
      f+1     :     0.000622
      f-1     :     0.000072
      f+2     :     0.001051
      f-2     :     0.000560
      f+3     :     0.000890
      f-3     :     0.000966
  2 H s       :     0.675169  s :     0.675169
      pz      :     0.055790  p :     0.159174
      px      :     0.033929
      py      :     0.069454
  3 H s       :     0.846777  s :     0.846777
      pz      :     0.036183  p :     0.059825
      px      :     0.009713
      py      :     0.013929
  4 H s       :     0.831713  s :     0.831713
      pz      :     0.019212  p :     0.059595
      px      :     0.011608
      py      :     0.028775
  5 H s       :     0.846779  s :     0.846779
      pz      :     0.015605  p :     0.059824
      px      :     0.015203
      py      :     0.029017


                      *****************************
                      * MAYER POPULATION ANALYSIS *
                      *****************************

  NA   - Mulliken gross atomic population
  ZA   - Total nuclear charge
  QA   - Mulliken gross atomic charge
  VA   - Mayer's total valence
  BVA  - Mayer's bonded valence
  FA   - Mayer's free valence

  ATOM       NA         ZA         QA         VA         BVA        FA
  0 C      6.1509     6.0000    -0.1509     3.9349     3.9349    -0.0000
  1 O      8.4776     8.0000    -0.4776     1.8881     1.8881    -0.0000
  2 H      0.6870     1.0000     0.3130     0.9136     0.9136    -0.0000
  3 H      0.9014     1.0000     0.0986     0.9596     0.9596     0.0000
  4 H      0.8818     1.0000     0.1182     0.9598     0.9598    -0.0000
  5 H      0.9014     1.0000     0.0986     0.9596     0.9596    -0.0000

  Mayer bond orders larger than 0.1
B(  0-C ,  1-O ) :   0.9986 B(  0-C ,  3-H ) :   0.9755 B(  0-C ,  4-H ) :   0.9749 
B(  0-C ,  5-H ) :   0.9755 B(  1-O ,  2-H ) :   0.9002 

-------
TIMINGS
-------

Total SCF time: 0 days 0 hours 0 min 8 sec 

Total time                  ....       8.800 sec
Sum of individual times     ....       8.421 sec  ( 95.7%)

Fock matrix formation       ....       6.806 sec  ( 77.3%)
  XC integration            ....       1.945 sec  ( 28.6% of F)
    Basis function eval.    ....       0.407 sec  ( 20.9% of XC)
    Density eval.           ....       0.265 sec  ( 13.6% of XC)
    XC-Functional eval.     ....       0.677 sec  ( 34.8% of XC)
    XC-Potential eval.      ....       0.272 sec  ( 14.0% of XC)
Diagonalization             ....       0.019 sec  (  0.2%)
Density matrix formation    ....       0.002 sec  (  0.0%)
Population analysis         ....       0.032 sec  (  0.4%)
Initial guess               ....       0.182 sec  (  2.1%)
Orbital Transformation      ....       0.000 sec  (  0.0%)
Orbital Orthonormalization  ....       0.000 sec  (  0.0%)
DIIS solution               ....       0.016 sec  (  0.2%)
SOSCF solution              ....       0.032 sec  (  0.4%)
Grid generation             ....       1.333 sec  ( 15.1%)


-------------------------------------------------------------------------------
                          DFT DISPERSION CORRECTION                            
                                                                               
                              DFTD3 V3.1  Rev 1                                
                              USING zero damping                               
-------------------------------------------------------------------------------
The omegaB97X-D3 functional is recognized. Fit by Chai et al.
Active option DFTDOPT                   ...         3   

molecular C6(AA) [au] = 208.715503 


            DFT-D V3
 parameters
 s6 scaling factor         :     1.0000 
 rs6 scaling factor        :     1.2810 
 s8 scaling factor         :     1.0000 
 rs8 scaling factor        :     1.0940 
 Damping factor alpha6     :    14.0000 
 Damping factor alpha8     :    16.0000 
 ad hoc parameters k1-k3   :    16.0000     1.3333    -4.0000 

 Edisp/kcal,au: -0.150129854831  -0.000239247127 
 E6   /kcal   :  -0.029600555 
 E8   /kcal   :  -0.120529300 
 % E8         :  80.283365118 

-------------------------   ----------------
Dispersion correction           -0.000239247
-------------------------   ----------------


-------------------------   --------------------
FINAL SINGLE POINT ENERGY      -115.738051319790
-------------------------   --------------------



           ************************************************************
           *        Program running with 4 parallel MPI-processes     *
           *              working on a common directory               *
           ************************************************************
------------------------------------------------------------------------------
                         ORCA SCF GRADIENT CALCULATION
------------------------------------------------------------------------------

Gradient of the Kohn-Sham DFT energy:
Kohn-Sham wavefunction type      ... RKS
Hartree-Fock exchange scaling    ...    0.196
Number of operators              ...    1
Number of atoms                  ...    6
Basis set dimensions             ...   86
Integral neglect threshold       ... 2.5e-11
Integral primitive cutoff        ... 2.5e-12

Nuclear repulsion gradient       ... done
One Electron Gradient            ... done
Pre-screening matrix             ... done
Starting the two electron gradient:
Two electron gradient done
Exchange-correlation gradient    ... done
Dispersion correction            ... done

------------------
CARTESIAN GRADIENT
------------------

   1   C   :   -0.000095741    0.000036782   -0.000048029
   2   O   :    0.000117966    0.000124561   -0.000065962
   3   H   :   -0.000084322   -0.000150492    0.000089239
   4   H   :    0.000008891    0.000004560    0.000000339
   5   H   :    0.000041463   -0.000015749    0.000015907
   6   H   :    0.000011743    0.000000337    0.000008505

Difference to translation invariance:
           :    0.0000000000    0.0000000000    0.0000000000

Norm of the cartesian gradient     ...    0.0002947215
RMS gradient                       ...    0.0000694665
MAX gradient                       ...    0.0001504916

-------
TIMINGS
-------

Total SCF gradient time            ...        1.608 sec

One electron gradient       ....       0.005 sec  (  0.3%)
Prescreening matrices       ....       0.024 sec  (  1.5%)
Two electron gradient       ....       0.838 sec  ( 52.1%)
XC gradient                 ....       0.405 sec  ( 25.2%)
------------------------------------------------------------------------------
                         ORCA GEOMETRY RELAXATION STEP
------------------------------------------------------------------------------

Reading the OPT-File                    .... done
Getting information on internals        .... done
Copying old internal coords+grads       .... done
Making the new internal coordinates     .... (new redundants).... done
Validating the new internal coordinates .... (new redundants).... done
Calculating the B-matrix                .... done
Calculating the G,G- and P matrices     .... done
Transforming gradient to internals      .... done
Projecting the internal gradient        .... done
Number of atoms                         ....   6
Number of internal coordinates          ....  15
Current Energy                          ....  -115.738051320 Eh
Current gradient norm                   ....     0.000294721 Eh/bohr
Maximum allowed component of the step   ....  0.300
Current trust radius                    ....  0.300
Evaluating the initial hessian          ....  (Almloef) done
Projecting the Hessian                  .... done
Forming the augmented Hessian           .... done
Diagonalizing the augmented Hessian     .... done
Last element of RFO vector              ....  0.999999961
Lowest eigenvalues of augmented Hessian:
 -0.000000024  0.021176482  0.181846418  0.192338674  0.313380824
Length of the computed step             ....  0.000278800
The final length of the internal step   ....  0.000278800
Converting the step to cartesian space:
 Initial RMS(Int)=    0.0000719858
Transforming coordinates:
 Iter   0:  RMS(Cart)=    0.0000681388 RMS(Int)=    1.6223020795
 Iter   1:  RMS(Cart)=    0.0000000067 RMS(Int)=    0.0000000072
Imposing constraints:
 Iter   0:  RMS(Cart)=    0.0000000010 RMS(Int)=    0.0000000000
CONVERGED
done
Storing new coordinates                 .... done

                                .--------------------.
          ----------------------|Geometry convergence|-------------------------
          Item                value                   Tolerance       Converged
          ---------------------------------------------------------------------
          RMS gradient        0.0000231092            0.0001000000      YES
          MAX gradient        0.0000668222            0.0003000000      YES
          RMS step            0.0000719858            0.0020000000      YES
          MAX step            0.0002142820            0.0040000000      YES
          ........................................................
          Max(Bonds)      0.0000      Max(Angles)    0.01
          Max(Dihed)        0.00      Max(Improp)    0.00
          ---------------------------------------------------------------------

                    ***********************HURRAY********************
                    ***        THE OPTIMIZATION HAS CONVERGED     ***
                    *************************************************


    ---------------------------------------------------------------------------
                         Redundant Internal Coordinates

                          --- Optimized Parameters ---  
                            (Angstroem and degrees)

        Definition                    OldVal   dE/dq     Step     FinalVal
    ----------------------------------------------------------------------------
     1. B(O   1,C   0)                1.4116  0.000037 -0.0000    1.4115   
     2. B(H   2,O   1)                0.9573 -0.000195  0.0000    0.9573 C 
     3. B(H   3,C   0)                1.0960 -0.000002  0.0000    1.0961   
     4. B(H   4,C   0)                1.0895  0.000005 -0.0000    1.0895   
     5. B(H   5,C   0)                1.0960 -0.000003  0.0000    1.0961   
     6. A(O   1,C   0,H   4)          107.02 -0.000067    0.01    107.03   
     7. A(O   1,C   0,H   3)          112.23 -0.000001    0.00    112.23   
     8. A(O   1,C   0,H   5)          112.23 -0.000001    0.00    112.23   
     9. A(H   3,C   0,H   5)          108.77  0.000016   -0.00    108.77   
    10. A(H   4,C   0,H   5)          108.22  0.000027   -0.00    108.21   
    11. A(H   3,C   0,H   4)          108.22  0.000027   -0.00    108.21   
    12. A(C   0,O   1,H   2)          108.75 -0.000015    0.00    108.75   
    13. D(H   2,O   1,C   0,H   5)    -61.43 -0.000011    0.00    -61.43   
    14. D(H   2,O   1,C   0,H   3)     61.43  0.000009   -0.00     61.43   
    15. D(H   2,O   1,C   0,H   4)    180.00 -0.000001    0.00    180.00   
    ----------------------------------------------------------------------------
                 *******************************************************
                 *** FINAL ENERGY EVALUATION AT THE STATIONARY POINT ***
                 ***               (AFTER    1 CYCLES)               ***
                 *******************************************************
---------------------------------
CARTESIAN COORDINATES (ANGSTROEM)
---------------------------------
  C      3.011395   -1.180854    0.598477
  O      4.394731   -1.127949    0.874232
  H      4.772159   -0.379058    0.412530
  H      2.806484   -1.318897   -0.469364
  H      2.611564   -2.040178    1.135824
  H      2.484825   -0.284441    0.945609

----------------------------
CARTESIAN COORDINATES (A.U.)
----------------------------
  NO LB      ZA    FRAG     MASS         X           Y           Z
   0 C     6.0000    0    12.011    5.690712   -2.231491    1.130958
   1 O     8.0000    0    15.999    8.304839   -2.131514    1.652059
   2 H     1.0000    0     1.008    9.018073   -0.716316    0.779568
   3 H     1.0000    0     1.008    5.303486   -2.492355   -0.886970
   4 H     1.0000    0     1.008    4.935140   -3.855377    2.146397
   5 H     1.0000    0     1.008    4.695640   -0.537516    1.786942

--------------------------------
INTERNAL COORDINATES (ANGSTROEM)
--------------------------------
 C      0   0   0     0.000000000000     0.00000000     0.00000000
 O      1   0   0     1.411544847870     0.00000000     0.00000000
 H      2   1   0     0.957317876663   108.75236747     0.00000000
 H      1   2   3     1.096051965066   112.22637680    61.42638903
 H      1   2   3     1.089515383124   107.02921562   180.00014279
 H      1   2   3     1.096053124035   112.22824876   298.57438420

---------------------------
INTERNAL COORDINATES (A.U.)
---------------------------
 C      0   0   0     0.000000000000     0.00000000     0.00000000
 O      1   0   0     2.667433188222     0.00000000     0.00000000
 H      2   1   0     1.809068610000   108.75236747     0.00000000
 H      1   2   3     2.071238042521   112.22637680    61.42638903
 H      1   2   3     2.058885692798   107.02921562   180.00014279
 H      1   2   3     2.071240232654   112.22824876   298.57438420

---------------------
BASIS SET INFORMATION
---------------------
There are 3 groups of distinct atoms

 Group   1 Type C   : 11s6p2d1f contracted to 5s3p2d1f pattern {62111/411/11/1}
 Group   2 Type O   : 11s6p2d1f contracted to 5s3p2d1f pattern {62111/411/11/1}
 Group   3 Type H   : 5s1p contracted to 3s1p pattern {311/1}

Atom   0C    basis set group =>   1
Atom   1O    basis set group =>   2
Atom   2H    basis set group =>   3
Atom   3H    basis set group =>   3
Atom   4H    basis set group =>   3
Atom   5H    basis set group =>   3


           ************************************************************
           *        Program running with 4 parallel MPI-processes     *
           *              working on a common directory               *
           ************************************************************
------------------------------------------------------------------------------
                           ORCA GTO INTEGRAL CALCULATION
------------------------------------------------------------------------------

                         BASIS SET STATISTICS AND STARTUP INFO

 # of primitive gaussian shells          ...   64
 # of primitive gaussian functions       ...  124
 # of contracted shells                  ...   38
 # of contracted basis functions         ...   86
 Highest angular momentum                ...    3
 Maximum contraction depth               ...    6
 Integral package used                   ... LIBINT
 Integral threshhold            Thresh   ...  2.500e-11
 Primitive cut-off              TCut     ...  2.500e-12


------------------------------ INTEGRAL EVALUATION ----------------------------


 * One electron integrals 
 Pre-screening matrix                    ... done
 Shell pair data                         ... done (   0.000 sec)



           ************************************************************
           *        Program running with 4 parallel MPI-processes     *
           *              working on a common directory               *
           ************************************************************
-------------------------------------------------------------------------------
                                 ORCA SCF
-------------------------------------------------------------------------------

------------
SCF SETTINGS
------------
Hamiltonian:
 Density Functional     Method          .... DFT(GTOs)
 Exchange Functional    Exchange        .... WB97X-D3
 Correlation Functional Correlation     .... WB97X-D3
 Gradients option       PostSCFGGA      .... off
 Hybrid DFT is turned on
   Fraction HF Exchange ScalHFX         ....  0.195728
   Scaling of DF-GGA-X  ScalDFX         ....  0.000000
   Scaling of DF-GGA-C  ScalDFC         ....  1.000000
   Scaling of DF-LDA-C  ScalLDAC        ....  1.000000
   Perturbative correction              ....  0.000000
   Density functional embedding theory  .... OFF
 Long-range corrected/Screened/Range-Separated Hybrid DFT is turned on
   Amount of maximum screened exact exchange              ....  0.804272
   Range separation parameter mu (erf(mu*r12)/r12)        ....  0.250000


General Settings:
 Integral files         IntName         .... 6_geo_opt
 Hartree-Fock type      HFTyp           .... RHF
 Total Charge           Charge          ....    0
 Multiplicity           Mult            ....    1
 Number of Electrons    NEL             ....   18
 Basis Dimension        Dim             ....   86
 Nuclear Repulsion      ENuc            ....     40.4396913137 Eh

Convergence Acceleration:
 DIIS                   CNVDIIS         .... on
   Start iteration      DIISMaxIt       ....    12
   Startup error        DIISStart       ....  0.200000
   # of expansion vecs  DIISMaxEq       ....     5
   Bias factor          DIISBfac        ....   1.050
   Max. coefficient     DIISMaxC        ....  10.000
 Newton-Raphson         CNVNR           .... off
 SOSCF                  CNVSOSCF        .... on
   Start iteration      SOSCFMaxIt      ....   150
   Startup grad/error   SOSCFStart      ....  0.003300
 Level Shifting         CNVShift        .... on
   Level shift para.    LevelShift      ....    0.2500
   Turn off err/grad.   ShiftErr        ....    0.0010
 Zerner damping         CNVZerner       .... off
 Static damping         CNVDamp         .... on
   Fraction old density DampFac         ....    0.7000
   Max. Damping (<1)    DampMax         ....    0.9800
   Min. Damping (>=0)   DampMin         ....    0.0000
   Turn off err/grad.   DampErr         ....    0.1000
 Fernandez-Rico         CNVRico         .... off

SCF Procedure:
 Maximum # iterations   MaxIter         ....   125
 SCF integral mode      SCFMode         .... Direct
   Integral package                     .... LIBINT
 Reset frequency        DirectResetFreq ....    20
 Integral Threshold     Thresh          ....  2.500e-11 Eh
 Primitive CutOff       TCut            ....  2.500e-12 Eh

Convergence Tolerance:
 Convergence Check Mode ConvCheckMode   .... Total+1el-Energy
 Convergence forced     ConvForced      .... 0
 Energy Change          TolE            ....  1.000e-08 Eh
 1-El. energy change                    ....  1.000e-05 Eh
 Orbital Gradient       TolG            ....  1.000e-05
 Orbital Rotation angle TolX            ....  1.000e-05
 DIIS Error             TolErr          ....  5.000e-07


Diagonalization of the overlap matrix:
Smallest eigenvalue                        ... 1.650e-03
Time for diagonalization                   ...    0.002 sec
Threshold for overlap eigenvalues          ... 1.000e-08
Number of eigenvalues below threshold      ... 0
Time for construction of square roots      ...    0.004 sec
Total time needed                          ...    0.006 sec

---------------------
INITIAL GUESS: MOREAD
---------------------
Guess MOs are being read from file: 6_geo_opt.gbw
Input Geometry matches current geometry (good)
Input basis set matches current basis set (good)
MOs were renormalized
MOs were reorthogonalized (Cholesky)
                      ------------------
                      INITIAL GUESS DONE (   0.0 sec)
                      ------------------
-------------------
DFT GRID GENERATION
-------------------

General Integration Accuracy     IntAcc      ...  5.010
Radial Grid Type                 RadialGrid  ... Gauss-Chebyshev
Angular Grid (max. acc.)         AngularGrid ... Lebedev-434
Angular grid pruning method      GridPruning ... 3 (G Style)
Weight generation scheme         WeightScheme... Becke
Basis function cutoff            BFCut       ...    1.0000e-11
Integration weight cutoff        WCut        ...    1.0000e-14
Grids for H and He will be reduced by one unit

# of grid points (after initial pruning)     ...  48308 (   0.0 sec)
# of grid points (after weights+screening)   ...  46677 (   0.0 sec)
nearest neighbour list constructed           ...    0.0 sec
Grid point re-assignment to atoms done       ...    0.0 sec
Grid point division into batches done        ...    0.3 sec
Reduced shell lists constructed in    0.3 sec

Total number of grid points                  ...    46677
Total number of batches                      ...      733
Average number of points per batch           ...       63
Average number of grid points per atom       ...     7780
Average number of shells per batch           ...    33.14 (87.21%)
Average number of basis functions per batch  ...    76.85 (89.36%)
Average number of large shells per batch     ...    30.60 (92.33%)
Average number of large basis fcns per batch ...    72.26 (94.04%)
Maximum spatial batch extension              ...  15.77, 14.99, 16.58 au
Average spatial batch extension              ...   0.40,  0.41,  0.42 au

Time for grid setup =    0.385 sec

--------------
SCF ITERATIONS
--------------
ITER       Energy         Delta-E        Max-DP      RMS-DP      [F,P]     Damp
               ***  Starting incremental Fock matrix formation  ***
                      *** Initiating the SOSCF procedure ***
                      *** Re-Reading the Fockian *** 
                      *** Removing any level shift *** 
ITER      Energy       Delta-E        Grad      Rot      Max-DP    RMS-DP
  0   -115.73770449 -115.7377044918  0.000009  0.000009  0.000011  0.000001
               *** Restarting incremental Fock matrix formation ***
  1   -115.73770449  -0.0000000025  0.000004  0.000004  0.000005  0.000000
  2   -115.73770449  -0.0000000003  0.000003  0.000003  0.000003  0.000000
                  ***Gradient check signals convergence***
              ***Rediagonalizing the Fockian in SOSCF/NRSCF***

               *****************************************************
               *                     SUCCESS                       *
               *           SCF CONVERGED AFTER   3 CYCLES          *
               *****************************************************

Setting up the final grid:

General Integration Accuracy     IntAcc      ...  5.340
Radial Grid Type                 RadialGrid  ... Gauss-Chebyshev
Angular Grid (max. acc.)         AngularGrid ... Lebedev-590
Angular grid pruning method      GridPruning ... 3 (G Style)
Weight generation scheme         WeightScheme... Becke
Basis function cutoff            BFCut       ...    1.0000e-11
Integration weight cutoff        WCut        ...    1.0000e-14
Grids for H and He will be reduced by one unit

# of grid points (after initial pruning)     ...  77324 (   0.0 sec)
# of grid points (after weights+screening)   ...  74512 (   0.0 sec)
nearest neighbour list constructed           ...    0.0 sec
Grid point re-assignment to atoms done       ...    0.0 sec
Grid point division into batches done        ...    0.8 sec
Reduced shell lists constructed in    0.8 sec

Total number of grid points                  ...    74512
Total number of batches                      ...     1167
Average number of points per batch           ...       63
Average number of grid points per atom       ...    12419
Average number of shells per batch           ...    32.93 (86.65%)
Average number of basis functions per batch  ...    76.37 (88.80%)
Average number of large shells per batch     ...    30.31 (92.05%)
Average number of large basis fcns per batch ...    71.51 (93.63%)
Maximum spatial batch extension              ...  13.18, 14.25, 15.48 au
Average spatial batch extension              ...   0.34,  0.36,  0.37 au

Final grid set up in    0.9 sec
Final integration                            ... done (   0.2 sec)
Change in XC energy                          ...    -0.000107595
Integrated number of electrons               ...    18.000000745
Previous integrated no of electrons          ...    18.000002272

----------------
TOTAL SCF ENERGY
----------------

Total Energy       :         -115.73781209 Eh           -3149.38598 eV

Components:
Nuclear Repulsion  :           40.43969131 Eh            1100.41994 eV
Electronic Energy  :         -156.17750340 Eh           -4249.80592 eV
One Electron Energy:         -237.29836748 Eh           -6457.21686 eV
Two Electron Energy:           81.12086407 Eh            2207.41093 eV

Virial components:
Potential Energy   :         -230.98886400 Eh           -6285.52654 eV
Kinetic Energy     :          115.25105191 Eh            3136.14056 eV
Virial Ratio       :            2.00422348


DFT components:
N(Alpha)           :        9.000000372718 electrons
N(Beta)            :        9.000000372718 electrons
N(Total)           :       18.000000745435 electrons
E(XC)              :      -10.655709292049 Eh       
DFET-embed. en.    :        0.000000000000 Eh       

---------------
SCF CONVERGENCE
---------------

  Last Energy change         ...   -7.1680e-11  Tolerance :   1.0000e-08
  Last MAX-Density change    ...    8.7711e-07  Tolerance :   1.0000e-07
  Last RMS-Density change    ...    5.8946e-08  Tolerance :   5.0000e-09
  Last Orbital Gradient      ...    7.8987e-07  Tolerance :   1.0000e-05
  Last Orbital Rotation      ...    7.3581e-07  Tolerance :   1.0000e-05

             **** THE GBW FILE WAS UPDATED (6_geo_opt.gbw) ****
             **** DENSITY FILE WAS UPDATED (6_geo_opt.scfp.tmp) ****
             **** ENERGY FILE WAS UPDATED (6_geo_opt.en.tmp) ****
----------------
ORBITAL ENERGIES
----------------

  NO   OCC          E(Eh)            E(eV) 
   0   2.0000     -19.228064      -523.2222 
   1   2.0000     -10.315112      -280.6885 
   2   2.0000      -1.136847       -30.9352 
   3   2.0000      -0.795364       -21.6430 
   4   2.0000      -0.611620       -16.6430 
   5   2.0000      -0.541774       -14.7424 
   6   2.0000      -0.526344       -14.3226 
   7   2.0000      -0.433797       -11.8042 
   8   2.0000      -0.373610       -10.1664 
   9   0.0000       0.116664         3.1746 
  10   0.0000       0.156684         4.2636 
  11   0.0000       0.202581         5.5125 
  12   0.0000       0.205116         5.5815 
  13   0.0000       0.226378         6.1601 
  14   0.0000       0.304341         8.2815 
  15   0.0000       0.313359         8.5269 
  16   0.0000       0.404518        11.0075 
  17   0.0000       0.452648        12.3172 
  18   0.0000       0.485039        13.1986 
  19   0.0000       0.535841        14.5810 
  20   0.0000       0.543644        14.7933 
  21   0.0000       0.567665        15.4470 
  22   0.0000       0.598570        16.2879 
  23   0.0000       0.603522        16.4227 
  24   0.0000       0.671350        18.2684 
  25   0.0000       0.779014        21.1981 
  26   0.0000       0.832194        22.6451 
  27   0.0000       0.861309        23.4374 
  28   0.0000       0.989580        26.9278 
  29   0.0000       1.013916        27.5901 
  30   0.0000       1.109775        30.1985 
  31   0.0000       1.382681        37.6247 
  32   0.0000       1.512908        41.1683 
  33   0.0000       1.553593        42.2754 
  34   0.0000       1.602831        43.6152 
  35   0.0000       1.613067        43.8938 
  36   0.0000       1.624180        44.1962 
  37   0.0000       1.660312        45.1794 
  38   0.0000       1.687990        45.9326 
  39   0.0000       1.774607        48.2895 
  40   0.0000       1.952115        53.1197 
  41   0.0000       2.030666        55.2572 
  42   0.0000       2.055233        55.9257 
  43   0.0000       2.094196        56.9860 
  44   0.0000       2.114645        57.5424 
  45   0.0000       2.268574        61.7310 
  46   0.0000       2.333495        63.4976 
  47   0.0000       2.345592        63.8268 
  48   0.0000       2.381057        64.7919 
  49   0.0000       2.429526        66.1108 
  50   0.0000       2.497663        67.9649 
  51   0.0000       2.596314        70.6493 
  52   0.0000       2.639910        71.8356 
  53   0.0000       2.707409        73.6724 
  54   0.0000       2.842087        77.3371 
  55   0.0000       2.871346        78.1333 
  56   0.0000       2.888405        78.5975 
  57   0.0000       2.992875        81.4403 
  58   0.0000       3.096077        84.2485 
  59   0.0000       3.173068        86.3436 
  60   0.0000       3.299193        89.7756 
  61   0.0000       3.408284        92.7441 
  62   0.0000       3.441959        93.6605 
  63   0.0000       3.488315        94.9219 
  64   0.0000       3.612607        98.3040 
  65   0.0000       3.645293        99.1935 
  66   0.0000       3.667042        99.7853 
  67   0.0000       4.005795       109.0032 
  68   0.0000       4.223804       114.9355 
  69   0.0000       4.273423       116.2857 
  70   0.0000       4.455692       121.2456 
  71   0.0000       4.564392       124.2034 
  72   0.0000       5.346101       145.4748 
  73   0.0000       5.425411       147.6329 
  74   0.0000       5.554523       151.1463 
  75   0.0000       5.826182       158.5385 
  76   0.0000       5.834198       158.7566 
  77   0.0000       5.985716       162.8796 
  78   0.0000       6.380184       173.6136 
  79   0.0000       6.530961       177.7165 
  80   0.0000       6.745075       183.5428 
  81   0.0000       6.804050       185.1476 
  82   0.0000       7.039415       191.5522 
  83   0.0000       7.216119       196.3606 
  84   0.0000      22.406224       609.7043 
  85   0.0000      43.664227      1188.1640 

                    ********************************
                    * MULLIKEN POPULATION ANALYSIS *
                    ********************************

-----------------------
MULLIKEN ATOMIC CHARGES
-----------------------
   0 C :   -0.150853
   1 O :   -0.477615
   2 H :    0.312992
   3 H :    0.098622
   4 H :    0.118227
   5 H :    0.098626
Sum of atomic charges:    0.0000000

--------------------------------
MULLIKEN REDUCED ORBITAL CHARGES
--------------------------------
  0 C s       :     3.223083  s :     3.223083
      pz      :     1.047267  p :     2.826099
      px      :     0.702186
      py      :     1.076645
      dz2     :     0.011108  d :     0.094250
      dxz     :     0.032496
      dyz     :     0.002645
      dx2y2   :     0.012739
      dxy     :     0.035262
      f0      :     0.001356  f :     0.007421
      f+1     :     0.000956
      f-1     :     0.000175
      f+2     :     0.001464
      f-2     :     0.000123
      f+3     :     0.001361
      f-3     :     0.001986
  1 O s       :     3.792721  s :     3.792721
      pz      :     1.759424  p :     4.652631
      px      :     1.313644
      py      :     1.579563
      dz2     :     0.003136  d :     0.030577
      dxz     :     0.006477
      dyz     :     0.005835
      dx2y2   :     0.008937
      dxy     :     0.006192
      f0      :     0.000269  f :     0.001686
      f+1     :     0.000233
      f-1     :     0.000087
      f+2     :     0.000287
      f-2     :     0.000235
      f+3     :     0.000367
      f-3     :     0.000206
  2 H s       :     0.639291  s :     0.639291
      pz      :     0.017016  p :     0.047717
      px      :     0.012726
      py      :     0.017975
  3 H s       :     0.882013  s :     0.882013
      pz      :     0.012072  p :     0.019365
      px      :     0.003007
      py      :     0.004286
  4 H s       :     0.861553  s :     0.861553
      pz      :     0.006297  p :     0.020220
      px      :     0.004195
      py      :     0.009728
  5 H s       :     0.882010  s :     0.882010
      pz      :     0.004929  p :     0.019364
      px      :     0.004977
      py      :     0.009458


                     *******************************
                     * LOEWDIN POPULATION ANALYSIS *
                     *******************************

----------------------
LOEWDIN ATOMIC CHARGES
----------------------
   0 C :   -0.385169
   1 O :   -0.075980
   2 H :    0.165667
   3 H :    0.093398
   4 H :    0.108688
   5 H :    0.093396

-------------------------------
LOEWDIN REDUCED ORBITAL CHARGES
-------------------------------
  0 C s       :     2.862921  s :     2.862921
      pz      :     1.096641  p :     3.052251
      px      :     0.846062
      py      :     1.109548
      dz2     :     0.072413  d :     0.412971
      dxz     :     0.114051
      dyz     :     0.020704
      dx2y2   :     0.082142
      dxy     :     0.123661
      f0      :     0.007823  f :     0.057026
      f+1     :     0.007163
      f-1     :     0.000855
      f+2     :     0.012526
      f-2     :     0.004831
      f+3     :     0.011736
      f-3     :     0.012092
  1 O s       :     3.366144  s :     3.366144
      pz      :     1.699037  p :     4.633617
      px      :     1.381194
      py      :     1.553386
      dz2     :     0.006131  d :     0.071573
      dxz     :     0.017865
      dyz     :     0.008087
      dx2y2   :     0.019342
      dxy     :     0.020148
      f0      :     0.000484  f :     0.004646
      f+1     :     0.000622
      f-1     :     0.000072
      f+2     :     0.001051
      f-2     :     0.000560
      f+3     :     0.000890
      f-3     :     0.000966
  2 H s       :     0.675160  s :     0.675160
      pz      :     0.055789  p :     0.159172
      px      :     0.033928
      py      :     0.069455
  3 H s       :     0.846778  s :     0.846778
      pz      :     0.036182  p :     0.059824
      px      :     0.009713
      py      :     0.013929
  4 H s       :     0.831716  s :     0.831716
      pz      :     0.019211  p :     0.059597
      px      :     0.011611
      py      :     0.028774
  5 H s       :     0.846780  s :     0.846780
      pz      :     0.015605  p :     0.059824
      px      :     0.015203
      py      :     0.029016


                      *****************************
                      * MAYER POPULATION ANALYSIS *
                      *****************************

  NA   - Mulliken gross atomic population
  ZA   - Total nuclear charge
  QA   - Mulliken gross atomic charge
  VA   - Mayer's total valence
  BVA  - Mayer's bonded valence
  FA   - Mayer's free valence

  ATOM       NA         ZA         QA         VA         BVA        FA
  0 C      6.1509     6.0000    -0.1509     3.9350     3.9350    -0.0000
  1 O      8.4776     8.0000    -0.4776     1.8881     1.8881     0.0000
  2 H      0.6870     1.0000     0.3130     0.9136     0.9136    -0.0000
  3 H      0.9014     1.0000     0.0986     0.9596     0.9596    -0.0000
  4 H      0.8818     1.0000     0.1182     0.9598     0.9598     0.0000
  5 H      0.9014     1.0000     0.0986     0.9596     0.9596    -0.0000

  Mayer bond orders larger than 0.1
B(  0-C ,  1-O ) :   0.9987 B(  0-C ,  3-H ) :   0.9755 B(  0-C ,  4-H ) :   0.9749 
B(  0-C ,  5-H ) :   0.9755 B(  1-O ,  2-H ) :   0.9002 

-------
TIMINGS
-------

Total SCF time: 0 days 0 hours 0 min 4 sec 

Total time                  ....       4.191 sec
Sum of individual times     ....       3.847 sec  ( 91.8%)

Fock matrix formation       ....       2.510 sec  ( 59.9%)
  XC integration            ....       0.761 sec  ( 30.3% of F)
    Basis function eval.    ....       0.168 sec  ( 22.1% of XC)
    Density eval.           ....       0.107 sec  ( 14.0% of XC)
    XC-Functional eval.     ....       0.280 sec  ( 36.8% of XC)
    XC-Potential eval.      ....       0.101 sec  ( 13.3% of XC)
Diagonalization             ....       0.008 sec  (  0.2%)
Density matrix formation    ....       0.002 sec  (  0.0%)
Population analysis         ....       0.012 sec  (  0.3%)
Initial guess               ....       0.004 sec  (  0.1%)
Orbital Transformation      ....       0.000 sec  (  0.0%)
Orbital Orthonormalization  ....       0.002 sec  (  0.0%)
DIIS solution               ....       0.000 sec  (  0.0%)
SOSCF solution              ....       0.006 sec  (  0.1%)
Grid generation             ....       1.305 sec  ( 31.1%)


-------------------------------------------------------------------------------
                          DFT DISPERSION CORRECTION                            
                                                                               
                              DFTD3 V3.1  Rev 1                                
                              USING zero damping                               
-------------------------------------------------------------------------------
The omegaB97X-D3 functional is recognized. Fit by Chai et al.
Active option DFTDOPT                   ...         3   

molecular C6(AA) [au] = 208.715483 


            DFT-D V3
 parameters
 s6 scaling factor         :     1.0000 
 rs6 scaling factor        :     1.2810 
 s8 scaling factor         :     1.0000 
 rs8 scaling factor        :     1.0940 
 Damping factor alpha6     :    14.0000 
 Damping factor alpha8     :    16.0000 
 ad hoc parameters k1-k3   :    16.0000     1.3333    -4.0000 

 Edisp/kcal,au: -0.150129172616  -0.000239246040 
 E6   /kcal   :  -0.029603029 
 E8   /kcal   :  -0.120526144 
 % E8         :  80.281627996 

-------------------------   ----------------
Dispersion correction           -0.000239246
-------------------------   ----------------


-------------------------   --------------------
FINAL SINGLE POINT ENERGY      -115.738051336151
-------------------------   --------------------

                                *** OPTIMIZATION RUN DONE ***

                            ***************************************
                            *     ORCA property calculations      *
                            ***************************************

                                    ---------------------
                                    Active property flags
                                    ---------------------
   (+) Dipole Moment


------------------------------------------------------------------------------
                       ORCA ELECTRIC PROPERTIES CALCULATION
------------------------------------------------------------------------------

Dipole Moment Calculation                       ... on
Quadrupole Moment Calculation                   ... off
Polarizability Calculation                      ... off
GBWName                                         ... 6_geo_opt.gbw
Electron density file                           ... 6_geo_opt.scfp.tmp
The origin for moment calculation is the CENTER OF MASS  = ( 7.033400, -2.139908  1.369196)

-------------
DIPOLE MOMENT
-------------
                                X             Y             Z
Electronic contribution:      1.75608      -0.02817       0.41977
Nuclear contribution   :     -2.06589       0.47571      -0.81737
                        -----------------------------------------
Total Dipole Moment    :     -0.30981       0.44754      -0.39760
                        -----------------------------------------
Magnitude (a.u.)       :      0.67406
Magnitude (Debye)      :      1.71332



--------------------
Rotational spectrum 
--------------------
 
Rotational constants in cm-1:     4.293353     0.833824     0.804945 
Rotational constants in MHz : 128711.495867 24997.404503 24131.636207 

 Dipole components along the rotational axes: 
x,y,z [a.u.] :    -0.332879     0.586129    -0.000004 
x,y,z [Debye]:    -0.846111     1.489820    -0.000011 

 
------------------------------------------------------------------------------
                      ORCA CHELPG CHARGES GENERATION
------------------------------------------------------------------------------

GBW file                           ... 6_geo_opt.gbw

Reading the GBW file               ... done

Grid spacing                       ...     0.300000
Point Cut-Off                      ...     2.800000
Van-der-Waals Radii                ...        COSMO
Total charge                       ...            0


Number of points X direction       ...           26
Number of points Y direction       ...           24
Number of points Z direction       ...           24
Maximum number of possible points  ...        14976
Final number of points             ...         5948


CHELPG Charges            
--------------------------------
  0   C   :       0.093860
  1   O   :      -0.606980
  2   H   :       0.403920
  3   H   :       0.014320
  4   H   :       0.081020
  5   H   :       0.013859
--------------------------------
Total charge:    -0.000000
--------------------------------

CHELPG charges calculated...

Timings for individual parts in CHELPG calculation:
Grid generation                 ...        0.002 sec (=   0.000 min)
Potential calculation           ...        0.676 sec (=   0.011 min)
Fit to the potential            ...        0.001 sec (=   0.000 min)
------------------------------------------------------------------------------


Timings for individual modules:

Sum of individual times         ...       33.023 sec (=   0.550 min)
GTO integral calculation        ...        6.402 sec (=   0.107 min)  19.4 %
SCF iterations                  ...       17.582 sec (=   0.293 min)  53.2 %
SCF Gradient evaluation         ...        4.328 sec (=   0.072 min)  13.1 %
Geometry relaxation             ...        3.169 sec (=   0.053 min)   9.6 %
CHELPG charge generation        ...        1.542 sec (=   0.026 min)   4.7 %
                             ****ORCA TERMINATED NORMALLY****
TOTAL RUN TIME: 0 days 0 hours 0 minutes 36 seconds 321 msec
