
                                 *****************
                                 * O   R   C   A *
                                 *****************

           --- An Ab Initio, DFT and Semiempirical electronic structure package ---

                  #######################################################
                  #                        -***-                        #
                  #          Department of theory and spectroscopy      #
                  #               Directorship: Frank Neese             #
                  #        Max Planck Institute fuer Kohlenforschung    #
                  #                Kaiser Wilhelm Platz 1               #
                  #                 D-45470 Muelheim/Ruhr               #
                  #                      Germany                        #
                  #                                                     #
                  #                  All rights reserved                #
                  #                        -***-                        #
                  #######################################################


                         Program Version 4.1.2  - RELEASE  -


 With contributions from (in alphabetic order):
   Daniel Aravena         : Magnetic Properties
   Michael Atanasov       : Ab Initio Ligand Field Theory
   Alexander A. Auer      : GIAO ZORA
   Ute Becker             : Parallelization
   Giovanni Bistoni       : ED, Open-shell LED
   Martin Brehm           : Molecular dynamics
   Dmytro Bykov           : SCF Hessian
   Vijay G. Chilkuri      : MRCI spin determinant printing
   Dipayan Datta          : RHF DLPNO-CCSD density
   Achintya Kumar Dutta   : EOM-CC, STEOM-CC
   Dmitry Ganyushin       : Spin-Orbit,Spin-Spin,Magnetic field MRCI
   Miquel Garcia          : C-PCM Hessian
   Yang Guo               : DLPNO-NEVPT2, CIM, IAO-localization
   Andreas Hansen         : Spin unrestricted coupled pair/coupled cluster methods
   Benjamin Helmich-Paris : CASSCF linear response (MC-RPA)
   Lee Huntington         : MR-EOM, pCC
   Robert Izsak           : Overlap fitted RIJCOSX, COSX-SCS-MP3, EOM
   Christian Kollmar      : KDIIS, OOCD, Brueckner-CCSD(T), CCSD density
   Simone Kossmann        : Meta GGA functionals, TD-DFT gradient, OOMP2, MP2 Hessian
   Martin Krupicka        : AUTO-CI
   Lucas Lang             : DCDCAS
   Dagmar Lenk            : GEPOL surface, SMD
   Dimitrios Liakos       : Extrapolation schemes; parallel MDCI
   Dimitrios Manganas     : ROCIS; embedding schemes
   Dimitrios Pantazis     : SARC Basis sets
   Taras Petrenko         : DFT Hessian,TD-DFT gradient, ASA, ECA, R-Raman, ABS, FL, XAS/XES, NRVS
   Peter Pinski           : DLPNO-MP2, DLPNO-MP2 Gradient
   Christoph Reimann      : Effective Core Potentials
   Marius Retegan         : Local ZFS, SOC
   Christoph Riplinger    : Optimizer, TS searches, QM/MM, DLPNO-CCSD(T), (RO)-DLPNO pert. Triples
   Tobias Risthaus        : Range-separated hybrids, TD-DFT gradient, RPA, STAB
   Michael Roemelt        : Restricted open shell CIS
   Masaaki Saitow         : Open-shell DLPNO
   Barbara Sandhoefer     : DKH picture change effects
   Avijit Sen             : IP-ROCIS
   Kantharuban Sivalingam : CASSCF convergence, NEVPT2, FIC-MRCI
   Bernardo de Souza      : ESD, SOC TD-DFT
   Georgi Stoychev        : AutoAux, RI-MP2 NMR
   Willem Van den Heuvel  : Paramagnetic NMR
   Boris Wezisla          : Elementary symmetry handling
   Frank Wennmohs         : Technical directorship


 We gratefully acknowledge several colleagues who have allowed us to
 interface, adapt or use parts of their codes:
   Stefan Grimme, W. Hujo, H. Kruse,             : VdW corrections, initial TS optimization,
                  C. Bannwarth                     DFT functionals, gCP, sTDA/sTD-DF
   Ed Valeev                                     : LibInt (2-el integral package), F12 methods
   Garnet Chan, S. Sharma, J. Yang, R. Olivares  : DMRG
   Ulf Ekstrom                                   : XCFun DFT Library
   Mihaly Kallay                                 : mrcc  (arbitrary order and MRCC methods)
   Andreas Klamt, Michael Diedenhofen            : otool_cosmo (COSMO solvation model)
   Jiri Pittner, Ondrej Demel                    : Mk-CCSD
   Frank Weinhold                                : gennbo (NPA and NBO analysis)
   Christopher J. Cramer and Donald G. Truhlar   : smd solvation model
   Lars Goerigk                                  : TD-DFT with DH, B97 family of functionals
   V. Asgeirsson, H. Jonsson                     : NEB implementation
   FAccTs GmbH                                   : IRC, NEB, NEB-TS, Multilevel


 Your calculation uses the libint2 library for the computation of 2-el integrals
 For citations please refer to: http://libint.valeyev.net

 This ORCA versions uses:
   CBLAS   interface :  Fast vector & matrix operations
   LAPACKE interface :  Fast linear algebra routines
   SCALAPACK package :  Parallel linear algebra routines


Your calculation utilizes the atom-pairwise dispersion correction
with the zero-damping scheme (D30)
Cite in your paper:
S.Grimme, J.Antony, S.Ehrlich and H.Krieg, J.Chem.Phys., 132, (2010), 154104 
   

XCFun DFT library Copyright 2009-2010 Ulf Ekstrom and contributors.
See http://admol.org/xcfun for more information. This is free soft-
ware; see the source code for copying conditions. There is ABSOLUTELY
NO WARRANTY; not even for MERCHANTABILITY or FITNESS FOR A PARTICULAR
PURPOSE. For details see the documentation. Scientific users of this 
library should cite U. Ekstrom, L. Visscher, R. Bast, A. J. Thorvald-
sen and K. Ruud; J.Chem.Theor.Comp. 2010, DOI: 10.1021/ct100117s
XCFun Version 0.99 
----- Orbital basis set information -----
Your calculation utilizes the basis: def2-TZVP
   F. Weigend and R. Ahlrichs, Phys. Chem. Chem. Phys. 7, 3297 (2005).

================================================================================
                                        WARNINGS
                       Please study these warnings very carefully!
================================================================================


INFO   : the flag for use of LIBINT has been found!

================================================================================
                                       INPUT FILE
================================================================================
NAME = 48.in
|  1> #Run DFT-D3 single point of the dimer
|  2> ! wB97X-D3 def2-TZVP TIGHTSCF  CHELPG PAL8
|  3> 
|  4> %base "48_charges"
|  5> 
|  6> %scf
|  7> MaxIter 1000
|  8> end
|  9> %output
| 10>   Print[ P_Mayer ] 1
| 11>   Print[ P_NatPop ] 1
| 12>   Print[ P_Hirshfeld ] 1
| 13>   Print[ P_Mulliken ] 1
| 14>   Print [ P_Loewdin ] 1
| 15> end
| 16> 
| 17> * xyz 0 1
| 18>   C                      2.071981             -3.350948            7.780255            
| 19>   O                      2.401524             -4.334646            6.808581            
| 20>   H                      2.498126             -5.225193            7.179264            
| 21>   H                      2.238102             -2.371984            7.414595            
| 22>   H                      0.959148             -3.367396            7.951611            
| 23>   H                      2.519001             -3.570511            8.714556            
| 24> *
| 25> 
| 26>                          ****END OF INPUT****
================================================================================

                       ****************************
                       * Single Point Calculation *
                       ****************************

---------------------------------
CARTESIAN COORDINATES (ANGSTROEM)
---------------------------------
  C      2.071981   -3.350948    7.780255
  O      2.401524   -4.334646    6.808581
  H      2.498126   -5.225193    7.179264
  H      2.238102   -2.371984    7.414595
  H      0.959148   -3.367396    7.951611
  H      2.519001   -3.570511    8.714556

----------------------------
CARTESIAN COORDINATES (A.U.)
----------------------------
  NO LB      ZA    FRAG     MASS         X           Y           Z
   0 C     6.0000    0    12.011    3.915477   -6.332374   14.702551
   1 O     8.0000    0    15.999    4.538223   -8.191294   12.866353
   2 H     1.0000    0     1.008    4.720774   -9.874184   13.566843
   3 H     1.0000    0     1.008    4.229400   -4.482400   14.011554
   4 H     1.0000    0     1.008    1.812527   -6.363456   15.026367
   5 H     1.0000    0     1.008    4.760222   -6.747288   16.468124

--------------------------------
INTERNAL COORDINATES (ANGSTROEM)
--------------------------------
 C      0   0   0     0.000000000000     0.00000000     0.00000000
 O      1   0   0     1.421411518994     0.00000000     0.00000000
 H      2   1   0     0.969438905812   113.41913216     0.00000000
 H      1   2   3     1.058146462233   111.57036483   163.98723037
 H      1   2   3     1.126068692989   108.84643779   276.71318284
 H      1   2   3     1.058750749690   111.21322167    33.44279918

---------------------------
INTERNAL COORDINATES (A.U.)
---------------------------
 C      0   0   0     0.000000000000     0.00000000     0.00000000
 O      1   0   0     2.686078494500     0.00000000     0.00000000
 H      2   1   0     1.831974035553   113.41913216     0.00000000
 H      1   2   3     1.999607023199   111.57036483   163.98723037
 H      1   2   3     2.127961437731   108.84643779   276.71318284
 H      1   2   3     2.000748960999   111.21322167    33.44279918

---------------------
BASIS SET INFORMATION
---------------------
There are 3 groups of distinct atoms

 Group   1 Type C   : 11s6p2d1f contracted to 5s3p2d1f pattern {62111/411/11/1}
 Group   2 Type O   : 11s6p2d1f contracted to 5s3p2d1f pattern {62111/411/11/1}
 Group   3 Type H   : 5s1p contracted to 3s1p pattern {311/1}

Atom   0C    basis set group =>   1
Atom   1O    basis set group =>   2
Atom   2H    basis set group =>   3
Atom   3H    basis set group =>   3
Atom   4H    basis set group =>   3
Atom   5H    basis set group =>   3


           ************************************************************
           *        Program running with 8 parallel MPI-processes     *
           *              working on a common directory               *
           ************************************************************
------------------------------------------------------------------------------
                           ORCA GTO INTEGRAL CALCULATION
------------------------------------------------------------------------------

                         BASIS SET STATISTICS AND STARTUP INFO

 # of primitive gaussian shells          ...   64
 # of primitive gaussian functions       ...  124
 # of contracted shells                  ...   38
 # of contracted basis functions         ...   86
 Highest angular momentum                ...    3
 Maximum contraction depth               ...    6
 Integral package used                   ... LIBINT
 Integral threshhold            Thresh   ...  2.500e-11
 Primitive cut-off              TCut     ...  2.500e-12


------------------------------ INTEGRAL EVALUATION ----------------------------


 * One electron integrals 
 Pre-screening matrix                    ... done
 Shell pair data                         ... done (   0.000 sec)



           ************************************************************
           *        Program running with 8 parallel MPI-processes     *
           *              working on a common directory               *
           ************************************************************
-------------------------------------------------------------------------------
                                 ORCA SCF
-------------------------------------------------------------------------------

------------
SCF SETTINGS
------------
Hamiltonian:
 Density Functional     Method          .... DFT(GTOs)
 Exchange Functional    Exchange        .... WB97X-D3
 Correlation Functional Correlation     .... WB97X-D3
 Gradients option       PostSCFGGA      .... off
 Hybrid DFT is turned on
   Fraction HF Exchange ScalHFX         ....  0.195728
   Scaling of DF-GGA-X  ScalDFX         ....  0.000000
   Scaling of DF-GGA-C  ScalDFC         ....  1.000000
   Scaling of DF-LDA-C  ScalLDAC        ....  1.000000
   Perturbative correction              ....  0.000000
   Density functional embedding theory  .... OFF
 Long-range corrected/Screened/Range-Separated Hybrid DFT is turned on
   Amount of maximum screened exact exchange              ....  0.804272
   Range separation parameter mu (erf(mu*r12)/r12)        ....  0.250000


General Settings:
 Integral files         IntName         .... 48_charges
 Hartree-Fock type      HFTyp           .... RHF
 Total Charge           Charge          ....    0
 Multiplicity           Mult            ....    1
 Number of Electrons    NEL             ....   18
 Basis Dimension        Dim             ....   86
 Nuclear Repulsion      ENuc            ....     40.3170271032 Eh

Convergence Acceleration:
 DIIS                   CNVDIIS         .... on
   Start iteration      DIISMaxIt       ....    12
   Startup error        DIISStart       ....  0.200000
   # of expansion vecs  DIISMaxEq       ....     5
   Bias factor          DIISBfac        ....   1.050
   Max. coefficient     DIISMaxC        ....  10.000
 Newton-Raphson         CNVNR           .... off
 SOSCF                  CNVSOSCF        .... on
   Start iteration      SOSCFMaxIt      ....   150
   Startup grad/error   SOSCFStart      ....  0.003300
 Level Shifting         CNVShift        .... on
   Level shift para.    LevelShift      ....    0.2500
   Turn off err/grad.   ShiftErr        ....    0.0010
 Zerner damping         CNVZerner       .... off
 Static damping         CNVDamp         .... on
   Fraction old density DampFac         ....    0.7000
   Max. Damping (<1)    DampMax         ....    0.9800
   Min. Damping (>=0)   DampMin         ....    0.0000
   Turn off err/grad.   DampErr         ....    0.1000
 Fernandez-Rico         CNVRico         .... off

SCF Procedure:
 Maximum # iterations   MaxIter         ....  1000
 SCF integral mode      SCFMode         .... Direct
   Integral package                     .... LIBINT
 Reset frequency        DirectResetFreq ....    20
 Integral Threshold     Thresh          ....  2.500e-11 Eh
 Primitive CutOff       TCut            ....  2.500e-12 Eh

Convergence Tolerance:
 Convergence Check Mode ConvCheckMode   .... Total+1el-Energy
 Convergence forced     ConvForced      .... 0
 Energy Change          TolE            ....  1.000e-08 Eh
 1-El. energy change                    ....  1.000e-05 Eh
 Orbital Gradient       TolG            ....  1.000e-05
 Orbital Rotation angle TolX            ....  1.000e-05
 DIIS Error             TolErr          ....  5.000e-07


Diagonalization of the overlap matrix:
Smallest eigenvalue                        ... 1.615e-03
Time for diagonalization                   ...    0.155 sec
Threshold for overlap eigenvalues          ... 1.000e-08
Number of eigenvalues below threshold      ... 0
Time for construction of square roots      ...    0.822 sec
Total time needed                          ...    0.977 sec

-------------------
DFT GRID GENERATION
-------------------

General Integration Accuracy     IntAcc      ...  4.340
Radial Grid Type                 RadialGrid  ... Gauss-Chebyshev
Angular Grid (max. acc.)         AngularGrid ... Lebedev-110
Angular grid pruning method      GridPruning ... 3 (G Style)
Weight generation scheme         WeightScheme... Becke
Basis function cutoff            BFCut       ...    1.0000e-11
Integration weight cutoff        WCut        ...    1.0000e-14
Grids for H and He will be reduced by one unit

# of grid points (after initial pruning)     ...   6548 (   0.0 sec)
# of grid points (after weights+screening)   ...   6389 (   0.9 sec)
nearest neighbour list constructed           ...    0.0 sec
Grid point re-assignment to atoms done       ...    0.0 sec
Grid point division into batches done        ...    0.0 sec
Reduced shell lists constructed in    0.0 sec

Total number of grid points                  ...     6389
Total number of batches                      ...      102
Average number of points per batch           ...       62
Average number of grid points per atom       ...     1065
Average number of shells per batch           ...    31.86 (83.83%)
Average number of basis functions per batch  ...    73.29 (85.22%)
Average number of large shells per batch     ...    30.14 (94.62%)
Average number of large basis fcns per batch ...    69.43 (94.74%)
Maximum spatial batch extension              ...  22.48, 10.94, 14.60 au
Average spatial batch extension              ...   0.50,  0.31,  0.43 au

Time for grid setup =    1.512 sec

------------------------------
INITIAL GUESS: MODEL POTENTIAL
------------------------------
Loading Hartree-Fock densities                     ... done
Calculating cut-offs                               ... done
Setting up the integral package                    ... done
Initializing the effective Hamiltonian             ... done
Starting the Coulomb interaction                   ... done (   0.0 sec)
Reading the grid                                   ... done
Mapping shells                                     ... done
Starting the XC term evaluation                    ... done (   0.2 sec)
  promolecular density results
     # of electrons  =     17.997818193
     EX              =    -14.430139850
     EC              =     -0.574794322
     EX+EC           =    -15.004934172
Transforming the Hamiltonian                       ... done (   0.0 sec)
Diagonalizing the Hamiltonian                      ... done (   0.1 sec)
Back transforming the eigenvectors                 ... done (   0.0 sec)
Now organizing SCF variables                       ... done
                      ------------------
                      INITIAL GUESS DONE (   2.1 sec)
                      ------------------
--------------
SCF ITERATIONS
--------------
ITER       Energy         Delta-E        Max-DP      RMS-DP      [F,P]     Damp
               ***  Starting incremental Fock matrix formation  ***
  0   -115.6432089893   0.000000000000 0.03697851  0.00150824  0.2393377 0.7000
  1   -115.6809907520  -0.037781762654 0.02385844  0.00106985  0.1174857 0.7000
                               ***Turning on DIIS***
  2   -115.6984094214  -0.017418669381 0.03681293  0.00192764  0.0490190 0.0000
  3   -115.7267520982  -0.028342676799 0.01825863  0.00070756  0.0614588 0.0000
  4   -115.7313597988  -0.004607700603 0.00407771  0.00013598  0.0062733 0.0000
                      *** Initiating the SOSCF procedure ***
                           *** Shutting down DIIS ***
                      *** Re-Reading the Fockian *** 
                      *** Removing any level shift *** 
ITER      Energy       Delta-E        Grad      Rot      Max-DP    RMS-DP
  5   -115.73145510  -0.0000953057  0.000443  0.000443  0.000779  0.000047
               *** Restarting incremental Fock matrix formation ***
  6   -115.73146361  -0.0000085013  0.000137  0.000166  0.000584  0.000028
  7   -115.73146440  -0.0000007926  0.000042  0.000092  0.000266  0.000013
  8   -115.73146447  -0.0000000677  0.000019  0.000017  0.000031  0.000002
  9   -115.73146447  -0.0000000073  0.000011  0.000008  0.000019  0.000001
                  ***Gradient check signals convergence***
              ***Rediagonalizing the Fockian in SOSCF/NRSCF***

               *****************************************************
               *                     SUCCESS                       *
               *           SCF CONVERGED AFTER  10 CYCLES          *
               *****************************************************

Setting up the final grid:

General Integration Accuracy     IntAcc      ...  4.670
Radial Grid Type                 RadialGrid  ... Gauss-Chebyshev
Angular Grid (max. acc.)         AngularGrid ... Lebedev-302
Angular grid pruning method      GridPruning ... 3 (G Style)
Weight generation scheme         WeightScheme... Becke
Basis function cutoff            BFCut       ...    1.0000e-11
Integration weight cutoff        WCut        ...    1.0000e-14
Grids for H and He will be reduced by one unit

# of grid points (after initial pruning)     ...  26000 (   0.0 sec)
# of grid points (after weights+screening)   ...  25213 (   0.0 sec)
nearest neighbour list constructed           ...    0.0 sec
Grid point re-assignment to atoms done       ...    0.0 sec
Grid point division into batches done        ...    0.1 sec
Reduced shell lists constructed in    0.1 sec

Total number of grid points                  ...    25213
Total number of batches                      ...      397
Average number of points per batch           ...       63
Average number of grid points per atom       ...     4202
Average number of shells per batch           ...    31.37 (82.56%)
Average number of basis functions per batch  ...    71.69 (83.36%)
Average number of large shells per batch     ...    29.71 (94.69%)
Average number of large basis fcns per batch ...    68.73 (95.87%)
Maximum spatial batch extension              ...  16.16, 14.01, 13.45 au
Average spatial batch extension              ...   0.32,  0.27,  0.29 au

Final grid set up in    0.2 sec
Final integration                            ... done (   0.3 sec)
Change in XC energy                          ...    -0.000049122
Integrated number of electrons               ...    17.999981793
Previous integrated no of electrons          ...    17.999841256

----------------
TOTAL SCF ENERGY
----------------

Total Energy       :         -115.73151360 Eh           -3149.21459 eV

Components:
Nuclear Repulsion  :           40.31702710 Eh            1097.08208 eV
Electronic Energy  :         -156.04854070 Eh           -4246.29667 eV
One Electron Energy:         -237.07527976 Eh           -6451.14633 eV
Two Electron Energy:           81.02673906 Eh            2204.84966 eV

Virial components:
Potential Energy   :         -230.99262699 Eh           -6285.62894 eV
Kinetic Energy     :          115.26111340 Eh            3136.41435 eV
Virial Ratio       :            2.00408117


DFT components:
N(Alpha)           :        8.999990896581 electrons
N(Beta)            :        8.999990896581 electrons
N(Total)           :       17.999981793162 electrons
E(XC)              :      -10.657632043134 Eh       
DFET-embed. en.    :        0.000000000000 Eh       

---------------
SCF CONVERGENCE
---------------

  Last Energy change         ...   -2.0344e-09  Tolerance :   1.0000e-08
  Last MAX-Density change    ...    4.5701e-06  Tolerance :   1.0000e-07
  Last RMS-Density change    ...    2.1052e-07  Tolerance :   5.0000e-09
  Last Orbital Gradient      ...    2.2730e-06  Tolerance :   1.0000e-05
  Last Orbital Rotation      ...    2.6627e-06  Tolerance :   1.0000e-05

             **** THE GBW FILE WAS UPDATED (48_charges.gbw) ****
             **** DENSITY FILE WAS UPDATED (48_charges.scfp.tmp) ****
             **** ENERGY FILE WAS UPDATED (48_charges.en.tmp) ****
----------------
ORBITAL ENERGIES
----------------

  NO   OCC          E(Eh)            E(eV) 
   0   2.0000     -19.226644      -523.1836 
   1   2.0000     -10.310051      -280.5508 
   2   2.0000      -1.127414       -30.6785 
   3   2.0000      -0.800416       -21.7804 
   4   2.0000      -0.611148       -16.6302 
   5   2.0000      -0.542922       -14.7737 
   6   2.0000      -0.527253       -14.3473 
   7   2.0000      -0.432068       -11.7572 
   8   2.0000      -0.366931        -9.9847 
   9   0.0000       0.114801         3.1239 
  10   0.0000       0.155019         4.2183 
  11   0.0000       0.201927         5.4947 
  12   0.0000       0.209178         5.6920 
  13   0.0000       0.229000         6.2314 
  14   0.0000       0.300547         8.1783 
  15   0.0000       0.316004         8.5989 
  16   0.0000       0.402498        10.9525 
  17   0.0000       0.448561        12.2060 
  18   0.0000       0.476863        12.9761 
  19   0.0000       0.527201        14.3459 
  20   0.0000       0.555641        15.1198 
  21   0.0000       0.585842        15.9416 
  22   0.0000       0.593197        16.1417 
  23   0.0000       0.618565        16.8320 
  24   0.0000       0.675234        18.3740 
  25   0.0000       0.780795        21.2465 
  26   0.0000       0.826018        22.4771 
  27   0.0000       0.866293        23.5730 
  28   0.0000       0.988646        26.9024 
  29   0.0000       1.030476        28.0407 
  30   0.0000       1.109176        30.1822 
  31   0.0000       1.377959        37.4962 
  32   0.0000       1.483667        40.3726 
  33   0.0000       1.536351        41.8062 
  34   0.0000       1.595334        43.4112 
  35   0.0000       1.615341        43.9557 
  36   0.0000       1.663470        45.2653 
  37   0.0000       1.683198        45.8021 
  38   0.0000       1.709512        46.5182 
  39   0.0000       1.765929        48.0534 
  40   0.0000       1.956141        53.2293 
  41   0.0000       2.002017        54.4776 
  42   0.0000       2.045836        55.6700 
  43   0.0000       2.087890        56.8144 
  44   0.0000       2.116829        57.6019 
  45   0.0000       2.296483        62.4905 
  46   0.0000       2.310788        62.8797 
  47   0.0000       2.345170        63.8153 
  48   0.0000       2.410000        65.5794 
  49   0.0000       2.445494        66.5453 
  50   0.0000       2.532293        68.9072 
  51   0.0000       2.577603        70.1401 
  52   0.0000       2.654947        72.2448 
  53   0.0000       2.711283        73.7778 
  54   0.0000       2.831901        77.0599 
  55   0.0000       2.874255        78.2124 
  56   0.0000       2.915957        79.3472 
  57   0.0000       2.973342        80.9088 
  58   0.0000       3.100091        84.3578 
  59   0.0000       3.166955        86.1772 
  60   0.0000       3.290051        89.5268 
  61   0.0000       3.404823        92.6500 
  62   0.0000       3.428537        93.2952 
  63   0.0000       3.558204        96.8236 
  64   0.0000       3.593532        97.7850 
  65   0.0000       3.664318        99.7112 
  66   0.0000       3.681967       100.1914 
  67   0.0000       3.979561       108.2894 
  68   0.0000       4.224897       114.9653 
  69   0.0000       4.293853       116.8417 
  70   0.0000       4.501419       122.4898 
  71   0.0000       4.583059       124.7114 
  72   0.0000       5.330562       145.0520 
  73   0.0000       5.391958       146.7226 
  74   0.0000       5.562159       151.3540 
  75   0.0000       5.811319       158.1340 
  76   0.0000       5.845442       159.0626 
  77   0.0000       5.946021       161.7995 
  78   0.0000       6.354680       172.9196 
  79   0.0000       6.514622       177.2719 
  80   0.0000       6.728048       183.0795 
  81   0.0000       6.815298       185.4537 
  82   0.0000       7.039510       191.5548 
  83   0.0000       7.201690       195.9679 
  84   0.0000      22.443185       610.7101 
  85   0.0000      43.673825      1188.4252 

                    ********************************
                    * MULLIKEN POPULATION ANALYSIS *
                    ********************************

-----------------------
MULLIKEN ATOMIC CHARGES
-----------------------
   0 C :   -0.149439
   1 O :   -0.491785
   2 H :    0.318059
   3 H :    0.123510
   4 H :    0.092903
   5 H :    0.106752
Sum of atomic charges:    0.0000000

--------------------------------
MULLIKEN REDUCED ORBITAL CHARGES
--------------------------------
  0 C s       :     3.216052  s :     3.216052
      pz      :     0.876887  p :     2.830486
      px      :     1.045122
      py      :     0.908477
      dz2     :     0.025786  d :     0.095465
      dxz     :     0.015892
      dyz     :     0.013133
      dx2y2   :     0.024542
      dxy     :     0.016112
      f0      :     0.000763  f :     0.007436
      f+1     :     0.000780
      f-1     :     0.001606
      f+2     :     0.001558
      f-2     :     0.001349
      f+3     :     0.000764
      f-3     :     0.000616
  1 O s       :     3.786827  s :     3.786827
      pz      :     1.566333  p :     4.674755
      px      :     1.875578
      py      :     1.232844
      dz2     :     0.005695  d :     0.028509
      dxz     :     0.003941
      dyz     :     0.011396
      dx2y2   :     0.005400
      dxy     :     0.002076
      f0      :     0.000158  f :     0.001693
      f+1     :     0.000056
      f-1     :     0.000135
      f+2     :     0.000482
      f-2     :     0.000172
      f+3     :     0.000237
      f-3     :     0.000452
  2 H s       :     0.635246  s :     0.635246
      pz      :     0.011766  p :     0.046696
      px      :     0.017170
      py      :     0.017760
  3 H s       :     0.855379  s :     0.855379
      pz      :     0.004161  p :     0.021111
      px      :     0.005180
      py      :     0.011769
  4 H s       :     0.888141  s :     0.888141
      pz      :     0.003457  p :     0.018956
      px      :     0.012218
      py      :     0.003282
  5 H s       :     0.872965  s :     0.872965
      pz      :     0.010602  p :     0.020283
      px      :     0.006004
      py      :     0.003677


                     *******************************
                     * LOEWDIN POPULATION ANALYSIS *
                     *******************************

----------------------
LOEWDIN ATOMIC CHARGES
----------------------
   0 C :   -0.369536
   1 O :   -0.091675
   2 H :    0.171916
   3 H :    0.100207
   4 H :    0.100438
   5 H :    0.088650

-------------------------------
LOEWDIN REDUCED ORBITAL CHARGES
-------------------------------
  0 C s       :     2.856501  s :     2.856501
      pz      :     0.980600  p :     3.053374
      px      :     1.090802
      py      :     0.981973
      dz2     :     0.099524  d :     0.403783
      dxz     :     0.070829
      dyz     :     0.084741
      dx2y2   :     0.101730
      dxy     :     0.046959
      f0      :     0.005494  f :     0.055878
      f+1     :     0.005692
      f-1     :     0.012619
      f+2     :     0.008978
      f-2     :     0.011748
      f+3     :     0.006755
      f-3     :     0.004591
  1 O s       :     3.368205  s :     3.368205
      pz      :     1.594889  p :     4.651150
      px      :     1.782379
      py      :     1.273883
      dz2     :     0.013928  d :     0.068040
      dxz     :     0.007831
      dyz     :     0.023291
      dx2y2   :     0.015596
      dxy     :     0.007394
      f0      :     0.000720  f :     0.004280
      f+1     :     0.000173
      f-1     :     0.000663
      f+2     :     0.001069
      f-2     :     0.000605
      f+3     :     0.000298
      f-3     :     0.000752
  2 H s       :     0.672789  s :     0.672789
      pz      :     0.043070  p :     0.155295
      px      :     0.045449
      py      :     0.066776
  3 H s       :     0.834130  s :     0.834130
      pz      :     0.014538  p :     0.065663
      px      :     0.016431
      py      :     0.034693
  4 H s       :     0.844745  s :     0.844745
      pz      :     0.010220  p :     0.054818
      px      :     0.034611
      py      :     0.009987
  5 H s       :     0.845138  s :     0.845138
      pz      :     0.033020  p :     0.066212
      px      :     0.019802
      py      :     0.013390


                      *****************************
                      * MAYER POPULATION ANALYSIS *
                      *****************************

  NA   - Mulliken gross atomic population
  ZA   - Total nuclear charge
  QA   - Mulliken gross atomic charge
  VA   - Mayer's total valence
  BVA  - Mayer's bonded valence
  FA   - Mayer's free valence

  ATOM       NA         ZA         QA         VA         BVA        FA
  0 C      6.1494     6.0000    -0.1494     3.9446     3.9446     0.0000
  1 O      8.4918     8.0000    -0.4918     1.8731     1.8731     0.0000
  2 H      0.6819     1.0000     0.3181     0.9111     0.9111    -0.0000
  3 H      0.8765     1.0000     0.1235     0.9555     0.9555    -0.0000
  4 H      0.9071     1.0000     0.0929     0.9567     0.9567     0.0000
  5 H      0.8932     1.0000     0.1068     0.9624     0.9624    -0.0000

  Mayer bond orders larger than 0.1
B(  0-C ,  1-O ) :   0.9973 B(  0-C ,  3-H ) :   0.9732 B(  0-C ,  4-H ) :   0.9796 
B(  0-C ,  5-H ) :   0.9803 B(  1-O ,  2-H ) :   0.8936 


------------------
HIRSHFELD ANALYSIS
------------------

Total integrated alpha density =      8.999920628
Total integrated beta density  =      8.999920628

  ATOM     CHARGE      SPIN    
   0 C    0.008067    0.000000
   1 O   -0.260643    0.000000
   2 H    0.163208    0.000000
   3 H    0.041900    0.000000
   4 H    0.017115    0.000000
   5 H    0.030512    0.000000

  TOTAL   0.000159    0.000000

-------
TIMINGS
-------

Total SCF time: 0 days 0 hours 0 min 24 sec 

Total time                  ....      24.780 sec
Sum of individual times     ....      20.867 sec  ( 84.2%)

Fock matrix formation       ....      15.740 sec  ( 63.5%)
  XC integration            ....       3.702 sec  ( 23.5% of F)
    Basis function eval.    ....       0.034 sec  (  0.9% of XC)
    Density eval.           ....       0.039 sec  (  1.0% of XC)
    XC-Functional eval.     ....       0.063 sec  (  1.7% of XC)
    XC-Potential eval.      ....       0.035 sec  (  0.9% of XC)
Diagonalization             ....       0.622 sec  (  2.5%)
Density matrix formation    ....       1.041 sec  (  4.2%)
Population analysis         ....       0.158 sec  (  0.6%)
Initial guess               ....       0.604 sec  (  2.4%)
Orbital Transformation      ....       0.000 sec  (  0.0%)
Orbital Orthonormalization  ....       0.000 sec  (  0.0%)
DIIS solution               ....       0.355 sec  (  1.4%)
SOSCF solution              ....       0.590 sec  (  2.4%)
Grid generation             ....       1.756 sec  (  7.1%)


-------------------------------------------------------------------------------
                          DFT DISPERSION CORRECTION                            
                                                                               
                              DFTD3 V3.1  Rev 1                                
                              USING zero damping                               
-------------------------------------------------------------------------------
The omegaB97X-D3 functional is recognized. Fit by Chai et al.
Active option DFTDOPT                   ...         3   

molecular C6(AA) [au] = 208.752754 


            DFT-D V3
 parameters
 s6 scaling factor         :     1.0000 
 rs6 scaling factor        :     1.2810 
 s8 scaling factor         :     1.0000 
 rs8 scaling factor        :     1.0940 
 Damping factor alpha6     :    14.0000 
 Damping factor alpha8     :    16.0000 
 ad hoc parameters k1-k3   :    16.0000     1.3333    -4.0000 

 Edisp/kcal,au: -0.155126077523  -0.000247209114 
 E6   /kcal   :  -0.032899843 
 E8   /kcal   :  -0.122226234 
 % E8         :  78.791545799 

-------------------------   ----------------
Dispersion correction           -0.000247209
-------------------------   ----------------


-------------------------   --------------------
FINAL SINGLE POINT ENERGY      -115.731760806189
-------------------------   --------------------


                            ***************************************
                            *     ORCA property calculations      *
                            ***************************************

                                    ---------------------
                                    Active property flags
                                    ---------------------
   (+) Dipole Moment


------------------------------------------------------------------------------
                       ORCA ELECTRIC PROPERTIES CALCULATION
------------------------------------------------------------------------------

Dipole Moment Calculation                       ... on
Quadrupole Moment Calculation                   ... off
Polarizability Calculation                      ... off
GBWName                                         ... 48_charges.gbw
Electron density file                           ... 48_charges.scfp.tmp
The origin for moment calculation is the CENTER OF MASS  = ( 4.222050, -7.327811 13.793977)

-------------
DIPOLE MOMENT
-------------
                                X             Y             Z
Electronic contribution:      0.61666      -1.07249      -1.27686
Nuclear contribution   :     -0.67533       0.90868       1.92744
                        -----------------------------------------
Total Dipole Moment    :     -0.05867      -0.16382       0.65058
                        -----------------------------------------
Magnitude (a.u.)       :      0.67345
Magnitude (Debye)      :      1.71176



--------------------
Rotational spectrum 
--------------------
 
Rotational constants in cm-1:     4.420969     0.822817     0.790875 
Rotational constants in MHz : 132537.309767 24667.432940 23709.841661 

 Dipole components along the rotational axes: 
x,y,z [a.u.] :    -0.310375     0.597443    -0.016103 
x,y,z [Debye]:    -0.788909     1.518579    -0.040931 

 
------------------------------------------------------------------------------
                      ORCA CHELPG CHARGES GENERATION
------------------------------------------------------------------------------

GBW file                           ... 48_charges.gbw

Reading the GBW file               ... done

Grid spacing                       ...     0.300000
Point Cut-Off                      ...     2.800000
Van-der-Waals Radii                ...        COSMO
Total charge                       ...            0


Number of points X direction       ...           23
Number of points Y direction       ...           28
Number of points Z direction       ...           25
Maximum number of possible points  ...        16100
Final number of points             ...         5898


CHELPG Charges            
--------------------------------
  0   C   :       0.087407
  1   O   :      -0.621197
  2   H   :       0.410188
  3   H   :       0.085113
  4   H   :       0.017808
  5   H   :       0.020682
--------------------------------
Total charge:    -0.000000
--------------------------------

CHELPG charges calculated...

Timings for individual parts in CHELPG calculation:
Grid generation                 ...        0.001 sec (=   0.000 min)
Potential calculation           ...        0.648 sec (=   0.011 min)
Fit to the potential            ...        0.001 sec (=   0.000 min)
------------------------------------------------------------------------------


Timings for individual modules:

Sum of individual times         ...       35.855 sec (=   0.598 min)
GTO integral calculation        ...        4.743 sec (=   0.079 min)  13.2 %
SCF iterations                  ...       30.428 sec (=   0.507 min)  84.9 %
CHELPG charge generation        ...        0.684 sec (=   0.011 min)   1.9 %
                             ****ORCA TERMINATED NORMALLY****
TOTAL RUN TIME: 0 days 0 hours 0 minutes 40 seconds 610 msec
