LAMMPS data file via vdw_self_gen.py, on 2021-08-05 13:24:30.257492

4000 atoms
6 atom types
3500 bonds
5 bond types
6000 angles
8 angle types
4500 dihedrals
4 dihedral types

-40.6884095604087435  40.6884095604087435 xlo xhi
-40.6884095604087435  40.6884095604087435 ylo yhi
-40.6884095604087435  40.6884095604087435 zlo zhi

Masses

1  35.452700
2  35.452700
3  1.007940
4  1.007940
5  12.011000
6  12.011000

Atoms

1         0    2   -0.1873450000000000   11.9054424425540120  30.4590977585541296  12.7716518265819090 0 0 0
2         0    5   -0.0396360000000000   13.0713484770159312  31.1519763225412731  13.9343312453695631 0 0 0
3         0    6    0.4862230000000000   13.9766561477350475  32.1946402608289901  13.2873044464412100 0 0 0
4         0    1   -0.2033700000000000   14.9534679486228654  33.0087907320494551  14.5439968975436269 0 0 0
5         0    1   -0.2033700000000000   15.0814339263864916  31.4668681752561170  12.0887097702228932 0 0 0
6         0    4    0.0846130000000000   13.6450416667441878  30.3227303912339821  14.3614927642002321 0 0 0
7         0    4    0.0846130000000000   12.4751497872761288  31.5996867284857856  14.7359710428855930 0 0 0
8         0    3   -0.0217280000000000   13.3938850980886421  32.9685357847046490  12.7789675011782808 0 0 0
9         1    2   -0.1873450000000000  -3.9299403472150156   23.3232532651712532  15.5419830632697682 0 0 0
10        1    5   -0.0396360000000000  -4.2810340967467226   23.3221629078524622  13.7904200450883820 0 0 0
11        1    6    0.4862230000000000  -4.8490285674327742   21.9876128871577485  13.3195354849955585 0 0 0
12        1    1   -0.2033700000000000  -5.3909819239073773   22.1279270355472839  11.6216318658323150 0 0 0
13        1    1   -0.2033700000000000  -3.6440139590387406   20.6748985736281732  13.4269425202006207 0 0 0
14        1    4    0.0846130000000000  -3.3537669859620229   23.5779992028407328  13.2670051531301265 0 0 0
15        1    4    0.0846130000000000  -4.9994287940894200   24.1308112944670583  13.6215393302168941 0 0 0
16        1    3   -0.0217280000000000  -5.7192804904156960   21.6927106573741355  13.9133680316896413 0 0 0
17        2    2   -0.1873450000000000   24.4441477054511047 -5.3390406285493697  -30.7922473449948555 0 0 0
18        2    5   -0.0396360000000000   22.9398211495549056 -4.3875592872978162  -30.9436603133153838 0 0 0
19        2    6    0.4862230000000000   22.1976977302406624 -4.6894008021566220  -32.2411649475318001 0 0 0
20        2    1   -0.2033700000000000   20.6004220875305997 -3.8864834513173117  -32.2234887000126946 0 0 0
21        2    1   -0.2033700000000000   23.1028594435395576 -4.1270908082388997  -33.6734027385839809 0 0 0
22        2    4    0.0846130000000000   23.2086130628015574 -3.3289114451136030  -30.8645698125462182 0 0 0
23        2    4    0.0846130000000000   22.3249068324521893 -4.6465959367088594  -30.0757292981511597 0 0 0
24        2    3   -0.0217280000000000   22.0189078124682673 -5.7623928054252858  -32.3580629985182853 0 0 0
25        3    2   -0.1873450000000000   15.7067813891183228 -22.2823070467947097  22.3179241200757019 0 0 0
26        3    5   -0.0396360000000000   13.9403065082950519 -22.1241441951463536  22.1039334093453412 0 0 0
27        3    6    0.4862230000000000   13.1623424663981954 -22.9534093623729873  23.1200362473199661 0 0 0
28        3    1   -0.2033700000000000   11.4195411515329877 -22.5726552462747208  23.0019342542023750 0 0 0
29        3    1   -0.2033700000000000   13.3822537124892875 -24.7056567611994033  22.8591082040806626 0 0 0
30        3    4    0.0846130000000000   13.7044605248419700 -22.4144092096032317  21.0746800162630521 0 0 0
31        3    4    0.0846130000000000   13.7123110835913788 -21.0592783872270353  22.2161953692361713 0 0 0
32        3    3   -0.0217280000000000   13.4744286581561141 -22.7255156154204023  24.1435642035155702 0 0 0
33        4    2   -0.1873450000000000   31.9778715472490340 -31.8059046184234262 -15.7186346027511732 0 0 0
34        4    5   -0.0396360000000000   32.0804149543225634 -32.1649256952469003 -13.9716859107277713 0 0 0
35        4    6    0.4862230000000000   31.1759232883922195 -31.2573035902527678 -13.1449509555041733 0 0 0
36        4    1   -0.2033700000000000   31.1491635708537409 -31.8167463031432760 -11.4471329530931420 0 0 0
37        4    1   -0.2033700000000000   31.7259721029803536 -29.5593007860470287 -13.1773257154199257 0 0 0
38        4    4    0.0846130000000000   33.1307824235885775 -32.0723875782111776 -13.6760433391938374 0 0 0
39        4    4    0.0846130000000000   31.7873642426580467 -33.2134674720688921 -13.8567717129456636 0 0 0
40        4    3   -0.0217280000000000   30.1448340236098531 -31.2822901102609130 -13.5098803047876217 0 0 0
41        5    2   -0.1873450000000000   6.6022763723381992  -4.0517981050537522   13.0824775351166256 0 0 0
42        5    5   -0.0396360000000000   5.1038725184991849  -4.2661161525412012   14.0312107335562963 0 0 0
43        5    6    0.4862230000000000   3.9743750234811968  -4.8576882928126555   13.1947589674617216 0 0 0
44        5    1   -0.2033700000000000   2.5885738953981434  -5.2596332492885400   14.2503505959655428 0 0 0
45        5    1   -0.2033700000000000   3.4187269839521832  -3.7271761696583088   11.9298427875633912 0 0 0
46        5    4    0.0846130000000000   4.8341075000680540  -3.2902359416643212   14.4484927755252173 0 0 0
47        5    4    0.0846130000000000   5.3601413345595947  -4.9307742797465197   14.8625227796947605 0 0 0
48        5    3   -0.0217280000000000   4.2854015365112135  -5.7840529740424635   12.7027693195397511 0 0 0
49        6    2   -0.1873450000000000  -4.4723572395848477  -13.9765689333371377 -20.4577615975247902 0 0 0
50        6    5   -0.0396360000000000  -5.1149373319072264  -13.6297365092973273 -22.0881109806588611 0 0 0
51        6    6    0.4862230000000000  -4.0147872560061604  -13.5953429348119492 -23.1435069432856793 0 0 0
52        6    1   -0.2033700000000000  -4.7439561766663045  -13.4761039952226209 -24.7715035529962009 0 0 0
53        6    1   -0.2033700000000000  -2.9102968512253260  -12.2123491372303974 -22.9106025676333616 0 0 0
54        6    4    0.0846130000000000  -5.6582349476404419  -12.6804246157663059 -22.0344986384309998 0 0 0
55        6    4    0.0846130000000000  -5.8381118689056084  -14.4219106038913516 -22.3072060355809647 0 0 0
56        6    3   -0.0217280000000000  -3.4147934928718540  -14.5099887648662129 -23.1241855079279865 0 0 0
57        7    2   -0.1873450000000000  -24.6956545748068841 -13.2124802402188841  13.0262851275798983 0 0 0
58        7    5   -0.0396360000000000  -22.9222829014954321 -13.3592622628911926  12.8686495902896425 0 0 0
59        7    6    0.4862230000000000  -22.2704099657376062 -13.8533293541947273  14.1556356548285436 0 0 0
60        7    1   -0.2033700000000000  -20.5407412777806968 -14.1975466147203235  13.8623117583289623 0 0 0
61        7    1   -0.2033700000000000  -22.3979997046686101 -12.6532631616439240  15.4710737334229336 0 0 0
62        7    4    0.0846130000000000  -22.5350523905364426 -12.3809318150705074  12.5650681021362551 0 0 0
63        7    4    0.0846130000000000  -22.7448530216201483 -14.0629278628193841  12.0489562260337486 0 0 0
64        7    3   -0.0217280000000000  -22.7303819873930202 -14.7826841828643616  14.5044453018033224 0 0 0
65        8    2   -0.1873450000000000  -21.2186385126828618 -22.7327933356672638  29.9597443482884493 0 0 0
66        8    5   -0.0396360000000000  -21.9739288200152671 -23.0690666893587206  31.5433155654261057 0 0 0
67        8    6    0.4862230000000000  -23.2583551201478116 -22.2728598068044690  31.7474660616318616 0 0 0
68        8    1   -0.2033700000000000  -24.0795126770380890 -22.8238434284022809  33.2368939774079024 0 0 0
69        8    1   -0.2033700000000000  -22.9423794517036121 -20.5212770235462116  31.8850613992871530 0 0 0
70        8    4    0.0846130000000000  -21.2309923330686630 -22.8498070376854727  32.3174022758220190 0 0 0
71        8    4    0.0846130000000000  -22.1768547091512467 -24.1446744027245543  31.5636374911788522 0 0 0
72        8    3   -0.0217280000000000  -23.9567142002312892 -22.4230540998498711  30.9188050346120384 0 0 0
73        9    2   -0.1873450000000000   24.5388900052279588  3.6213588330116142  -13.0807757547392320 0 0 0
74        9    5   -0.0396360000000000   23.1072260679347394  4.1226805433415530  -14.0243095007737661 0 0 0
75        9    6    0.4862230000000000   22.1538122968626219  4.9865434883774880  -13.2057029171672813 0 0 0
76        9    1   -0.2033700000000000   20.8714876482473777  5.6409023984289224  -14.2657671195579177 0 0 0
77        9    1   -0.2033700000000000   21.3858555970526574  4.0639777626729794  -11.8843663455201209 0 0 0
78        9    4    0.0846130000000000   22.6194369046998567  3.2142480517873340  -14.3931614957788216 0 0 0
79        9    4    0.0846130000000000   23.4883761894419472  4.6769671636975039  -14.8880309706756222 0 0 0
80        9    3   -0.0217280000000000   22.6722911145716814  5.8407969234903696  -12.7603113902105445 0 0 0
81        10   2   -0.1873450000000000   12.5682760954202415 -31.9523315639036802 -6.4445231950301185  0 0 0
82        10   5   -0.0396360000000000   13.2382636020100115 -31.1202669897660122 -5.0127319036825480  0 0 0
83        10   6    0.4862230000000000   13.9701338307805365 -32.0802500562387394 -4.0809743033781514  0 0 0
84        10   1   -0.2033700000000000   14.8079889159376066 -31.1565538675330629 -2.7999347223943882  0 0 0
85        10   1   -0.2033700000000000   12.8548312220695298 -33.2415616388607162 -3.3100846577929879  0 0 0
86        10   4    0.0846130000000000   12.4097645536197287 -30.6133676844962395 -4.5068840265164809  0 0 0
87        10   4    0.0846130000000000   13.9209647436897761 -30.3545682266784631 -5.3950255153939484  0 0 0
88        10   3   -0.0217280000000000   14.7322025308958739 -32.6534261261774716 -4.6173168406191429  0 0 0
89        11   2   -0.1873450000000000  -5.0750223191276360   4.4505613178930332   29.5321093520545368 0 0 0
90        11   5   -0.0396360000000000  -4.5181773008884250   3.9129092570918349   31.1421077693451913 0 0 0
91        11   6    0.4862230000000000  -4.6049467021540931   5.0259362692190743   32.1808645679651164 0 0 0
92        11   1   -0.2033700000000000  -4.2571134548477616   4.3641031827730057   33.8048310696373733 0 0 0
93        11   1   -0.2033700000000000  -3.4501799748876252   6.3447508214210222   31.8431408212450755 0 0 0
94        11   4    0.0846130000000000  -3.4951664445637651   3.5384924620469063   31.0303021114822357 0 0 0
95        11   4    0.0846130000000000  -5.1585307682042298   3.0702215855221988   31.4220162816865916 0 0 0
96        11   3   -0.0217280000000000  -5.6083382001342317   5.4605002688406987   32.2169541802382611 0 0 0
97        12   2   -0.1873450000000000  -23.2688230008363597 -22.8887315205028621  24.6688908641921678 0 0 0
98        12   5   -0.0396360000000000  -22.9491707821993671 -23.2291149249467885  22.9445931481350982 0 0 0
99        12   6    0.4862230000000000  -22.1888451120155779 -22.0943261530009849  22.2667044672107828 0 0 0
100       12   1   -0.2033700000000000  -21.7017106010964831 -22.5933077430397162  20.6204980579552313 0 0 0
101       12   1   -0.2033700000000000  -23.1742916148263660 -20.6107998289783261  22.1448021184648773 0 0 0
102       12   4    0.0846130000000000  -23.9129186443137272 -23.4201269724622385  22.4609154562017643 0 0 0
103       12   4    0.0846130000000000  -22.3673445728089746 -24.1561001852106791  22.9181273301824966 0 0 0
104       12   3   -0.0217280000000000  -21.2742714959419885 -21.8448684958972414  22.8128443816964293 0 0 0
105       13   2   -0.1873450000000000  -33.2063347180175157  5.7831073826959907  -12.6928904309441464 0 0 0
106       13   5   -0.0396360000000000  -31.5839999039664647  5.1436313920086913  -13.0806290348417349 0 0 0
107       13   6    0.4862230000000000  -31.6426400363068865  4.0048887058783684  -14.0931507259989157 0 0 0
108       13   1   -0.2033700000000000  -29.9869200196315084  3.5700131349642561  -14.6086627675679104 0 0 0
109       13   1   -0.2033700000000000  -32.4297960758437824  2.5519369280575575  -13.4177753878735917 0 0 0
110       13   4    0.0846130000000000  -31.1188247197156258  4.8294991802081473  -12.1403244803666990 0 0 0
111       13   4    0.0846130000000000  -31.0093556813659355  5.9866288329532384  -13.4776972685154757 0 0 0
112       13   3   -0.0217280000000000  -32.1944549988066626  4.2977696080415146  -14.9912953983148345 0 0 0
113       14   2   -0.1873450000000000  -4.1394872997781889  -15.7159059430474262  4.5587847462642994  0 0 0
114       14   5   -0.0396360000000000  -4.4752354741164897  -14.0584584387450988  5.1344425877035471  0 0 0
115       14   6    0.4862230000000000  -4.6777801659185103  -13.0804496794202780  3.9821196035073845  0 0 0
116       14   1   -0.2033700000000000  -5.2345686983196487  -11.5052247391713838  4.6184615859385909  0 0 0
117       14   1   -0.2033700000000000  -3.1743610414179777  -12.8217816111674203  3.0549534300776422  0 0 0
118       14   4    0.0846130000000000  -3.6448018240940230  -13.7587173043177078  5.7823429341632044  0 0 0
119       14   4    0.0846130000000000  -5.3780828445127513  -14.1250392406664638  5.7500378059956248  0 0 0
120       14   3   -0.0217280000000000  -5.4431578166501779  -13.4368485378875260  3.2863324711574728  0 0 0
121       15   2   -0.1873450000000000   33.2382987253863575 -24.0494709277905692  32.0485962610756019 0 0 0
122       15   5   -0.0396360000000000   32.2961215131136896 -22.7719543763699939  31.2291485336270469 0 0 0
123       15   6    0.4862230000000000   31.0852191574391377 -22.3371102311499570  32.0476836885163578 0 0 0
124       15   1   -0.2033700000000000   30.3246629153026426 -20.9086939406392496  31.2877762570808855 0 0 0
125       15   1   -0.2033700000000000   29.8647820908174850 -23.6338524260098133  32.1734151208869150 0 0 0
126       15   4    0.0846130000000000   32.0066794079355219 -23.1543350981885609  30.2446446458584148 0 0 0
127       15   4    0.0846130000000000   32.9836597062065948 -21.9335096674265770  31.0780672532401709 0 0 0
128       15   3   -0.0217280000000000   31.3729026374529525 -22.0484491564641267  33.0629943933689958 0 0 0
129       16   2   -0.1873450000000000  -3.0850421017562963  -3.6166422755110910   3.1413492779204697  0 0 0
130       16   5   -0.0396360000000000  -4.5139564986175866  -4.5120639080474323   3.7309803175787497  0 0 0
131       16   6    0.4862230000000000  -4.6317135085117673  -4.4688464114091131   5.2507300601367444  0 0 0
132       16   1   -0.2033700000000000  -6.1931401266048827  -5.1784871250352307   5.7553439468605685  0 0 0
133       16   1   -0.2033700000000000  -3.3120651372874734  -5.3689659012863746   6.0476795107721903  0 0 0
134       16   4    0.0846130000000000  -4.4386181828371551  -5.5385519092690183   3.3569667145861706  0 0 0
135       16   4    0.0846130000000000  -5.3845319478883775  -4.0433866358377655   3.2609123949962022  0 0 0
136       16   3   -0.0217280000000000  -4.6084076613042253  -3.4405309984117376   5.6235129419566761  0 0 0
137       17   2   -0.1873450000000000  -4.3434903379865117   21.0529902422980726 -30.1156640882177626 0 0 0
138       17   5   -0.0396360000000000  -3.9503928226270171   22.0707203498519569 -31.5302102303059471 0 0 0
139       17   6    0.4862230000000000  -4.9689381588126693   23.1869153539444568 -31.7352659699803077 0 0 0
140       17   1   -0.2033700000000000  -4.3970195359113395   24.2982683619821955 -33.0135780528083345 0 0 0
141       17   1   -0.2033700000000000  -6.5691704196629708   22.5511538991519132 -32.2063067649588106 0 0 0
142       17   4    0.0846130000000000  -3.8852866946322706   21.4128195713017995 -32.4032322296740247 0 0 0
143       17   4    0.0846130000000000  -2.9541964335079314   22.4841861403097951 -31.3426931787421559 0 0 0
144       17   3   -0.0217280000000000  -5.0989807616670628   23.7803219051986545 -30.8253756389670315 0 0 0
145       18   2   -0.1873450000000000   21.1770529232856894  31.1733039008673529  33.2342235826023895 0 0 0
146       18   5   -0.0396360000000000   22.0580027071681073  32.1028197956458570  31.9887643515828977 0 0 0
147       18   6    0.4862230000000000   23.0541741645784484  31.2376870403088027  31.2241981422302501 0 0 0
148       18   1   -0.2033700000000000   23.7278114891808443  32.1633800430611032  29.8510326677305606 0 0 0
149       18   1   -0.2033700000000000   24.4014914632956312  30.6960428780854109  32.2625492604492905 0 0 0
150       18   4    0.0846130000000000   22.5487952238182672  32.9441329174829036  32.4893186346781491 0 0 0
151       18   4    0.0846130000000000   21.2973036399257367  32.5075555627438604  31.3134498040362139 0 0 0
152       18   3   -0.0217280000000000   22.5727442127861195  30.3474040154590838  30.8087897103446338 0 0 0
153       19   2   -0.1873450000000000  -14.2433125446692745  33.0727504884080261  15.0746295212795189 0 0 0
154       19   5   -0.0396360000000000  -14.2843998956473168  31.7599683745680323  13.8637802459064758 0 0 0
155       19   6    0.4862230000000000  -12.8954907935393877  31.4293181166323805  13.3280791553635947 0 0 0
156       19   1   -0.2033700000000000  -12.9762864363724546  29.9658462227783069  12.3043603068517751 0 0 0
157       19   1   -0.2033700000000000  -12.2188776340776091  32.7668691831664916  12.3585601388112725 0 0 0
158       19   4    0.0846130000000000  -14.9668016292099466  32.0682164224445856  13.0646865913759154 0 0 0
159       19   4    0.0846130000000000  -14.7226429177673968  30.8923376695839806  14.3674506376627704 0 0 0
160       19   3   -0.0217280000000000  -12.1946136431399150  31.2170196760725744  14.1408788971719854 0 0 0
161       20   2   -0.1873450000000000   24.1858199541023744 -12.4035793240123926  5.4899323979335080  0 0 0
162       20   5   -0.0396360000000000   23.2421770818257443 -13.8083459924659842  4.9177350951582115  0 0 0
163       20   6    0.4862230000000000   22.0563603679232401 -13.3904352598862282  4.0548544046661146  0 0 0
164       20   1   -0.2033700000000000   21.2976611105899671 -14.8379906727290205  3.3301220647836738  0 0 0
165       20   1   -0.2033700000000000   20.8219256784925122 -12.5115121391808177  4.9985071437706559  0 0 0
166       20   4    0.0846130000000000   22.9250605457553576 -14.3751481090312137  5.7994448642477288  0 0 0
167       20   4    0.0846130000000000   23.9371949955792154 -14.4319209723724047  4.3462211459002074  0 0 0
168       20   3   -0.0217280000000000   22.3711760897704330 -12.7434930247452431  3.2306580483476619  0 0 0
169       21   2   -0.1873450000000000  -2.7369178099512403   23.8321005878161358  4.8266954867295393  0 0 0
170       21   5   -0.0396360000000000  -4.1387083451448863   22.7854549141994269  5.1882990622662826  0 0 0
171       21   6    0.4862230000000000  -4.8501524164224765   22.3208813793084175  3.9220477011523682  0 0 0
172       21   1   -0.2033700000000000  -6.0893870536877488   21.1015803567609339  4.3390377861863740  0 0 0
173       21   1   -0.2033700000000000  -5.6447168334631588   23.6730471145902470  3.0693281938684454  0 0 0
174       21   4    0.0846130000000000  -4.8079686565294368   23.3456950697594472  5.8497076027339219  0 0 0
175       21   4    0.0846130000000000  -3.7463012522823531   21.9307234067605634  5.7486334034077666  0 0 0
176       21   3   -0.0217280000000000  -4.1533227973264655   21.8478929948436651  3.2237259284630673  0 0 0
177       22   2   -0.1873450000000000   2.5403793506944607   30.7574096278772480 -4.2570527127995934  0 0 0
178       22   5   -0.0396360000000000   3.8245627909613686   31.9929077971958691 -4.3821853698264661  0 0 0
179       22   6    0.4862230000000000   5.1723585101368892   31.3844530479792532 -4.7544799614174371  0 0 0
180       22   1   -0.2033700000000000   6.3507115963326228   32.6868361898622410 -5.0884864834974346  0 0 0
181       22   1   -0.2033700000000000   5.8197254121715751   30.3499953248943299 -3.4515491651354702  0 0 0
182       22   4    0.0846130000000000   3.8672884983610403   32.5237288033724994 -3.4252928852552791  0 0 0
183       22   4    0.0846130000000000   3.4940179403254410   32.7017487599191483 -5.1482195997950804  0 0 0
184       22   3   -0.0217280000000000   5.0984310658243732   30.7752466025537927 -5.6602089870810151  0 0 0
185       23   2   -0.1873450000000000  -22.3484937060907498 -4.0570503109889904  -33.7683254576112333 0 0 0
186       23   5   -0.0396360000000000  -22.5053944307290017 -5.0054470358269780  -32.2626140538473578 0 0 0
187       23   6    0.4862230000000000  -22.8045364604586034 -4.1220418171974043  -31.0561800477171879 0 0 0
188       23   1   -0.2033700000000000  -23.1766518383011082 -5.1441659909920894  -29.6373528842763214 0 0 0
189       23   1   -0.2033700000000000  -21.4280691964573116 -3.0606668635177856  -30.6491954958796846 0 0 0
190       23   4    0.0846130000000000  -21.5786949808454125 -5.5740745774640912  -32.1317305095143126 0 0 0
191       23   4    0.0846130000000000  -23.3188319281818828 -5.7180885857294861  -32.4328647786333093 0 0 0
192       23   3   -0.0217280000000000  -23.6767032829747848 -3.4859399830909439  -31.2340629261749712 0 0 0
193       24   2   -0.1873450000000000   11.3790833563837790  22.7033806041239572  31.5801304968944052 0 0 0
194       24   5   -0.0396360000000000   13.0850424108399963  23.2326925152066970  31.6079445545774647 0 0 0
195       24   6    0.4862230000000000   14.0524024000192327  22.0543206366533511  31.5758803600638807 0 0 0
196       24   1   -0.2033700000000000   15.7249802434363151  22.6521136872678142  31.3723981074045710 0 0 0
197       24   1   -0.2033700000000000   13.9715441149571671  21.0842823315272092  33.0723104355852229 0 0 0
198       24   4    0.0846130000000000   13.2250792209764576  23.8508959368734033  32.5009472841065374 0 0 0
199       24   4    0.0846130000000000   13.2220138997607766  23.8711081976768966  30.7292022272715997 0 0 0
200       24   3   -0.0217280000000000   13.8422798480495892  21.3885819147095084  30.7335126877506895 0 0 0
201       25   2   -0.1873450000000000  -13.1947292645900944  13.9192644423106984  6.6470207005315558  0 0 0
202       25   5   -0.0396360000000000  -13.1132903143736996  13.1610883083603820  5.0315400711844207  0 0 0
203       25   6    0.4862230000000000  -13.8805966778476133  13.9595978343267024  3.9832093853254795  0 0 0
204       25   1   -0.2033700000000000  -13.5687160750827385  13.2797109266870716  2.3593982869401935  0 0 0
205       25   1   -0.2033700000000000  -15.6402340485530615  13.9358776156780966  4.2830910643991853  0 0 0
206       25   4    0.0846130000000000  -13.4956075871781369  12.1392537442949298  5.1260243571611843  0 0 0
207       25   4    0.0846130000000000  -12.0508925294683209  13.1027058129043024  4.7738071065631722  0 0 0
208       25   3   -0.0217280000000000  -13.5583589973296395  15.0049268098611339  3.9633841927025677  0 0 0
209       26   2   -0.1873450000000000   3.1889565158615376   33.3762620543054425 -13.6919744632781892 0 0 0
210       26   5   -0.0396360000000000   4.0003494305893694   31.9253325645610175 -13.0379972693184296 0 0 0
211       26   6    0.4862230000000000   5.0915188294649898   31.4087461319435732 -13.9695881376683690 0 0 0
212       26   1   -0.2033700000000000   6.0118189726428843   30.1083665536972198 -13.1582073394320691 0 0 0
213       26   1   -0.2033700000000000   4.4185177250507071   30.7660063323732906 -15.4929956373563211 0 0 0
214       26   4    0.0846130000000000   3.2293798204988278   31.1695382833534325 -12.8546382812356459 0 0 0
215       26   4    0.0846130000000000   4.4225006608861630   32.2198147053362902 -12.0717713859333351 0 0 0
216       26   3   -0.0217280000000000   5.8044332098133031   32.1982595280841153 -14.2252529802009526 0 0 0
217       27   2   -0.1873450000000000  -30.4587680516055563  24.4407870155697502  13.5370436244047330 0 0 0
218       27   5   -0.0396360000000000  -31.4317876556057385  23.0605797933299748  12.9543757169235381 0 0 0
219       27   6    0.4862230000000000  -31.9608971767164540  22.2062641889626740  14.1013551013086804 0 0 0
220       27   1   -0.2033700000000000  -33.1074056923962132  20.9893260229497542  13.4682216837931499 0 0 0
221       27   1   -0.2033700000000000  -30.6470012247919463  21.3582852558486209  14.9624152055471313 0 0 0
222       27   4    0.0846130000000000  -30.8052704295518076  22.4800615526990626  12.2690185899798756 0 0 0
223       27   4    0.0846130000000000  -32.2572957427382363  23.4897034319998568  12.3773894510440474 0 0 0
224       27   3   -0.0217280000000000  -32.5039001802484364  22.8123685626791470  14.8326061214221649 0 0 0
225       28   2   -0.1873450000000000   3.2702252260898073  -4.0547972014499525  -20.8722665103286467 0 0 0
226       28   5   -0.0396360000000000   4.6990340192326654  -4.1295306678834276  -21.9419212948888358 0 0 0
227       28   6    0.4862230000000000   4.3795482906527745  -4.7836766493699336  -23.2818450425471966 0 0 0
228       28   1   -0.2033700000000000   5.7786007543813307  -4.6187278770273643  -24.3826276309985772 0 0 0
229       28   1   -0.2033700000000000   3.9962064690382650  -6.5179659630831841  -23.1026664424263117 0 0 0
230       28   4    0.0846130000000000   5.4873731685623097  -4.6664101745804292  -21.4038493344383838 0 0 0
231       28   4    0.0846130000000000   5.0296929640190751  -3.0956041298019974  -22.0839932002173676 0 0 0
232       28   3   -0.0217280000000000   3.5267942728315331  -4.3007625016114828  -23.7682063681935354 0 0 0
233       29   2   -0.1873450000000000   2.8119133176356663  -22.1411040095516753  23.8880806068519647 0 0 0
234       29   5   -0.0396360000000000   3.7475189386528349  -22.6226904496490171  22.4444886842036446 0 0 0
235       29   6    0.4862230000000000   5.2429239123636080  -22.7063403946661069  22.7310901438993582 0 0 0
236       29   1   -0.2033700000000000   6.0886865696422037  -23.4115203974758792  21.3226566552353596 0 0 0
237       29   1   -0.2033700000000000   5.9468277578777355  -21.1021652451492727  23.0745385571189452 0 0 0
238       29   4    0.0846130000000000   3.5243236216100384  -21.9025656714553492  21.6502319196862238 0 0 0
239       29   4    0.0846130000000000   3.3562394236263846  -23.5978834965284214  22.1372058948406227 0 0 0
240       29   3   -0.0217280000000000   5.4490416233993084  -23.3531061595631257  23.5890833622027358 0 0 0
241       30   2   -0.1873450000000000   31.1849489027898947 -12.9340676152900365  29.6034033423857679 0 0 0
242       30   5   -0.0396360000000000   32.1138539598564918 -13.5238162143035137  31.0107316627921250 0 0 0
243       30   6    0.4862230000000000   31.2325134739776402 -13.7178587652716342  32.2399428658669294 0 0 0
244       30   1   -0.2033700000000000   32.1690313553151412 -14.5224768505199027  33.5329247666012407 0 0 0
245       30   1   -0.2033700000000000   30.6114665590472619 -12.1660603874318021  32.8668701906734952 0 0 0
246       30   4    0.0846130000000000   32.9217405644687915 -12.8084202936570417  31.1971922873496723 0 0 0
247       30   4    0.0846130000000000   32.5657513896636317 -14.4725174145238658  30.7036834648912844 0 0 0
248       30   3   -0.0217280000000000   30.3730199485355143 -14.3572079534255153  32.0175775730938668 0 0 0
249       31   2   -0.1873450000000000  -22.1858325911982277  29.5683172790695821 -14.0997824303552779 0 0 0
250       31   5   -0.0396360000000000  -22.3628923028038606  31.0453976427542067 -13.1107806739142347 0 0 0
251       31   6    0.4862230000000000  -22.9290455749762287  32.2105743180758424 -13.9152727702675350 0 0 0
252       31   1   -0.2033700000000000  -23.2961545118067406  33.5766932707387724 -12.8220078268643825 0 0 0
253       31   1   -0.2033700000000000  -21.7879633715217231  32.7730589992702548 -15.1676136723309583 0 0 0
254       31   4    0.0846130000000000  -21.3801477171059062  31.2807442666165265 -12.6888035422850916 0 0 0
255       31   4    0.0846130000000000  -23.0319395444540369  30.7827153599727872 -12.2850097268877470 0 0 0
256       31   3   -0.0217280000000000  -23.8634002101721308  31.9348250171564061 -14.4131548515180921 0 0 0
257       32   2   -0.1873450000000000  -11.5283617969687722 -5.1964489202671409  -31.2135114708914294 0 0 0
258       32   5   -0.0396360000000000  -13.2929692878159358 -5.2461714539246209  -31.4872432545644330 0 0 0
259       32   6    0.4862230000000000  -13.8480499114890883 -3.8879562757502724  -31.9025874207681177 0 0 0
260       32   1   -0.2033700000000000  -15.5619799538063894 -4.0576247180876468  -32.3821024158590021 0 0 0
261       32   1   -0.2033700000000000  -13.7410758522970902 -2.6916823371274532  -30.5818677074936325 0 0 0
262       32   4    0.0846130000000000  -13.7601908193558007 -5.6135385654143084  -30.5674687715734876 0 0 0
263       32   4    0.0846130000000000  -13.4602369657583711 -5.9902866292091357  -32.2726335906566391 0 0 0
264       32   3   -0.0217280000000000  -13.3095609069318481 -3.4837662650271808  -32.7649115218476510 0 0 0
265       33   2   -0.1873450000000000  -21.7964576566875579  4.8920637896553618   15.5607617946302064 0 0 0
266       33   5   -0.0396360000000000  -22.9789408444197072  4.6960117465518900   14.2361720001557757 0 0 0
267       33   6    0.4862230000000000  -22.3164503667392360  4.2534302862173048   12.9359405733125392 0 0 0
268       33   1   -0.2033700000000000  -23.5700867452723273  3.8543260413166807   11.7254077018378631 0 0 0
269       33   1   -0.2033700000000000  -21.2563928191589149  5.5219611658623693   12.2622026793174648 0 0 0
270       33   4    0.0846130000000000  -23.5074306763160337  5.6481922604586927   14.1208879153115756 0 0 0
271       33   4    0.0846130000000000  -23.7007220928785642  3.9473259057337273   14.5782614494692009 0 0 0