LAMMPS data file via vdw_self_gen.py, on 2021-08-05 13:22:23.929263

4500 atoms
6 atom types
4000 bonds
5 bond types
6500 angles
7 angle types
6000 dihedrals
4 dihedral types

-35.3478062173854184  35.3478062173854184 xlo xhi
-35.3478062173854184  35.3478062173854184 ylo yhi
-35.3478062173854184  35.3478062173854184 zlo zhi

Masses

1  1.007940
2  1.007940
3  12.011000
4  12.011000
5  12.011000
6  14.006740

Atoms

1         0    4   -0.1079060000000000   19.6764559397285552  27.9568112855549451  3.0410772508916990  0 0 0
2         0    3    0.2912390000000000   19.3847726432394225  27.6284686728443702  4.4965148368182222  0 0 0
3         0    5    0.0640950000000000   19.9410309314677825  26.3475980354528758  4.8640644177533092  0 0 0
4         0    6   -0.3612230000000000   20.3844182629166504  25.3266171672129943  5.1570390222820803  0 0 0
5         0    1    0.0285690000000000   19.2494102813370951  28.9295373152191146  2.7764249639890846  0 0 0
6         0    1    0.0285690000000000   19.2471951348363994  27.2032718124095148  2.3716502584608259  0 0 0
7         0    1    0.0285690000000000   20.7549699635272873  27.9960998498748808  2.8526852200540302  0 0 0
8         0    2    0.0140440000000000   18.3007190887927003  27.6289248217804477  4.6550034787443080  0 0 0
9         0    2    0.0140440000000000   19.8000588410811993  28.4173145613487819  5.1333467683918599  0 0 0
10        1    4   -0.1079060000000000  -20.3088341615137722 -26.7586271166477623  4.0428319042920364  0 0 0
11        1    3    0.2912390000000000  -19.1866236903285667 -27.7527098891589503  4.2950811521774384  0 0 0
12        1    5    0.0640950000000000  -18.9591844134376615 -28.5873266275198930  3.1388667071997451  0 0 0
13        1    6   -0.3612230000000000  -18.7778938069690611 -29.2526022680423665  2.2172537645640280  0 0 0
14        1    1    0.0285690000000000  -20.4702412016278856 -26.1330886015626831  4.9267176942257560  0 0 0
15        1    1    0.0285690000000000  -21.2487507434452212 -27.2726177096342859  3.8135077587432802  0 0 0
16        1    1    0.0285690000000000  -20.0727381986245135 -26.1009486219727904  3.1990633684663301  0 0 0
17        1    2    0.0140440000000000  -19.4420985652387834 -28.3709175204593897  5.1627463407677769  0 0 0
18        1    2    0.0140440000000000  -18.2726663057416232 -27.2058051666998146  4.5517375269490277  0 0 0
19        2    4   -0.1079060000000000   3.2238566919142118  -11.5187174954301064 -28.1544608830209597 0 0 0
20        2    3    0.2912390000000000   3.9473753615485863  -11.8516673762846025 -26.8595277979430165 0 0 0
21        2    5    0.0640950000000000   5.3231213899346415  -12.2128957369488162 -27.1084906550760287 0 0 0
22        2    6   -0.3612230000000000   6.4197247717734243  -12.5008348248368595 -27.3069358175415111 0 0 0
23        2    1    0.0285690000000000   2.1830281816744765  -11.2469402522171986 -27.9509470052540507 0 0 0
24        2    1    0.0285690000000000   3.2245628684586709  -12.3737864886459974 -28.8393518178094510 0 0 0
25        2    1    0.0285690000000000   3.7007629327430842  -10.6774212492677538 -28.6692508516019409 0 0 0
26        2    2    0.0140440000000000   3.4259180984352904  -12.6740142269191658 -26.3574133223522367 0 0 0
27        2    2    0.0140440000000000   3.8994559209030379  -10.9871410016057602 -26.1882653710987299 0 0 0
28        3    4   -0.1079060000000000   18.9375150598808766  27.8245944248673780  19.0033767152728181 0 0 0
29        3    3    0.2912390000000000   20.0988052929783407  27.0537339105359855  19.6103080501511364 0 0 0
30        3    5    0.0640950000000000   20.3596591366008717  27.4834572582753012  20.9639840394761521 0 0 0
31        3    6   -0.3612230000000000   20.5675903511734042  27.8259898863544883  22.0429948765892725 0 0 0
32        3    1    0.0285690000000000   18.7510466878028197  27.4888811869237095  17.9781299526912761 0 0 0
33        3    1    0.0285690000000000   19.1469718729258673  28.8995969875740499  18.9766109153944917 0 0 0
34        3    1    0.0285690000000000   18.0190412326409835  27.6770737307644659  19.5820572157104102 0 0 0
35        3    2    0.0140440000000000   20.9900106434984437  27.1984989119168112  18.9897541973877004 0 0 0
36        3    2    0.0140440000000000   19.8683908094254953  25.9828172244857392  19.5918151242538414 0 0 0
37        4    4   -0.1079060000000000  -18.9343253992756679 -11.8786245442860601  4.6337632331952516  0 0 0
38        4    3    0.2912390000000000  -19.7481346551534784 -11.3697620158169457  3.4547975825219059  0 0 0
39        4    5    0.0640950000000000  -20.8957173814435464 -12.2115728187215868  3.2107606471336680  0 0 0
40        4    6   -0.3612230000000000  -21.8104514300675305 -12.8825791162539094  3.0162341788576477  0 0 0
41        4    1    0.0285690000000000  -18.0683531378997628 -11.2316258866107166  4.8072265883853342  0 0 0
42        4    1    0.0285690000000000  -18.5686108821604989 -12.8953521299636780  4.4528295909575917  0 0 0
43        4    1    0.0285690000000000  -19.5342630196762705 -11.8970915799669292  5.5502573511912301  0 0 0
44        4    2    0.0140440000000000  -19.1094621830811882 -11.3347418537672056  2.5653246890242594  0 0 0
45        4    2    0.0140440000000000  -20.0697129981691553 -10.3420687067692274  3.6566123561185182  0 0 0
46        5    4   -0.1079060000000000  -27.9976593699915846 -18.8921266436790489 -20.0757264101743473 0 0 0
47        5    3    0.2912390000000000  -27.3832354569892296 -19.8148189205821339 -19.0353856964779773 0 0 0
48        5    5    0.0640950000000000  -26.6352191025252552 -20.8805026568344090 -19.6598336728073093 0 0 0
49        5    6   -0.3612230000000000  -26.0389798933648642 -21.7299605258501138 -20.1575770927809899 0 0 0
50        5    1    0.0285690000000000  -28.5612204044294664 -18.0897225937662718 -19.5887444215475846 0 0 0
51        5    1    0.0285690000000000  -28.6826098754091952 -19.4380751131109477 -20.7337553975701425 0 0 0
52        5    1    0.0285690000000000  -27.2255938124582357 -18.4333251199694317 -20.7031366306939475 0 0 0
53        5    2    0.0140440000000000  -28.1794952082465748 -20.2298131168459001 -18.4076586919648868 0 0 0
54        5    2    0.0140440000000000  -26.7306303982835232 -19.2306863962888457 -18.3772130729099032 0 0 0
55        6    4   -0.1079060000000000  -19.2654217938605861 -3.6155613552731412  -4.8031926591462604  0 0 0
56        6    3    0.2912390000000000  -20.2229305126756245 -3.9890529275987339  -3.6829838919537612  0 0 0
57        6    5    0.0640950000000000  -19.5078997098480258 -4.4666444987849063  -2.5229050974145175  0 0 0
58        6    6   -0.3612230000000000  -18.9379531134010257 -4.8473363301297221  -1.5982089394005365  0 0 0
59        6    1    0.0285690000000000  -19.8205602144422670 -3.2555292891991914  -5.6754328792075670  0 0 0
60        6    1    0.0285690000000000  -18.6647012425069327 -4.4773336595626105  -5.1141627367115978  0 0 0
61        6    1    0.0285690000000000  -18.5767331742348780 -2.8240855597078411  -4.4877537612083049  0 0 0
62        6    2    0.0140440000000000  -20.9151545734611517 -4.7581298669788579  -4.0430359403902196  0 0 0
63        6    2    0.0140440000000000  -20.8276767524966040 -3.1141327301504225  -3.4201303119526472  0 0 0
64        7    4   -0.1079060000000000  -11.6353521352520577  12.4089948304719542  11.0153841264021413 0 0 0
65        7    3    0.2912390000000000  -11.4225726307828541  11.5626585030794704  12.2602239902857022 0 0 0
66        7    5    0.0640950000000000  -12.6246501951651968  10.8457921872257259  12.6155517007205571 0 0 0
67        7    6   -0.3612230000000000  -13.5828234484594823  10.2743818271329630  12.8987876358525835 0 0 0
68        7    1    0.0285690000000000  -10.7169265992536271  12.9463498582905405  10.7578013921125972 0 0 0
69        7    1    0.0285690000000000  -12.4296895093590098  13.1474875087578322  11.1699020043808197 0 0 0
70        7    1    0.0285690000000000  -11.9180424521586446  11.7880585065019279  10.1582074150981967 0 0 0
71        7    2    0.0140440000000000  -11.1110717653592950  12.2107594998446345  13.0867972026706489 0 0 0
72        7    2    0.0140440000000000  -10.6022899163660913  10.8589359308512066  12.0807631846330210 0 0 0
73        8    4   -0.1079060000000000  -20.4471123337240606  19.0673226307056112 -27.6416705447282993 0 0 0
74        8    3    0.2912390000000000  -19.2966448346761510  20.0385924075124997 -27.8520182036074502 0 0 0
75        8    5    0.0640950000000000  -18.5128906462321368  20.1876244865994536 -26.6484134599729501 0 0 0
76        8    6   -0.3612230000000000  -17.8881626835486038  20.3064230363136140 -25.6890228955378497 0 0 0
77        8    1    0.0285690000000000  -21.0322139737480356  18.9640579752634331 -28.5612341574695066 0 0 0
78        8    1    0.0285690000000000  -21.1183017387928373  19.4146391568094003 -26.8485153974723367 0 0 0
79        8    1    0.0285690000000000  -20.0802459368484243  18.0746124717895107 -27.3585394172833283 0 0 0
80        8    2    0.0140440000000000  -19.6978537014248438  21.0091440886783474 -28.1640307771175138 0 0 0
81        8    2    0.0140440000000000  -18.6656052379319988  19.6766148332552291 -28.6711986685086870 0 0 0
82        9    4   -0.1079060000000000  -3.3330807278378871  -12.5119369720006830 -27.1501455671938423 0 0 0
83        9    3    0.2912390000000000  -4.4747290897416399  -11.5192113589718161 -27.2995492428478705 0 0 0
84        9    5    0.0640950000000000  -4.3054057204862985  -10.7028529689287755 -28.4785463348842924 0 0 0
85        9    6   -0.3612230000000000  -4.1704387435661578  -10.0521309697262975 -29.4183192717126403 0 0 0
86        9    1    0.0285690000000000  -3.4742711076573656  -13.1235744091205540 -26.2531674859344051 0 0 0
87        9    1    0.0285690000000000  -2.3699157957347197  -11.9972387957217741 -27.0628634080668071 0 0 0
88        9    1    0.0285690000000000  -3.2765926845880302  -13.1830991353855715 -28.0141930771782874 0 0 0
89        9    2    0.0140440000000000  -4.5208847633507450  -10.8870749027094984 -26.4059250930747105 0 0 0
90        9    2    0.0140440000000000  -5.4224875844225711  -12.0662991395912744 -27.3519340408050766 0 0 0
91        10   4   -0.1079060000000000   18.9242547376236274 -26.8192708494987571  11.5822172711375035 0 0 0
92        10   3    0.2912390000000000   19.6637391198063121 -28.1291690847115596  11.8024808523175846 0 0 0
93        10   5    0.0640950000000000   21.0435833008009432 -27.8959155169454718  12.1585263223065070 0 0 0
94        10   6   -0.3612230000000000   22.1434556974903352 -27.7099927374795705  12.4423252105643893 0 0 0
95        10   1    0.0285690000000000   17.8804685742449010 -27.0109701309904224  11.3132068871098710 0 0 0
96        10   1    0.0285690000000000   19.3822509049809319 -26.2371117335579527  10.7750312028651063 0 0 0
97        10   1    0.0285690000000000   18.9345090207955629 -26.2019685412382266  12.4872368057293563 0 0 0
98        10   2    0.0140440000000000   19.6060021038455581 -28.7325963644399742  10.8898840510589405 0 0 0
99        10   2    0.0140440000000000   19.1607676273389345 -28.6976485628359939  12.5925100490669948 0 0 0
100       11   4   -0.1079060000000000   3.2664799448875379   12.1500737932808640 -18.9814339995942412 0 0 0
101       11   3    0.2912390000000000   4.3632477065294273   11.3176978279963496 -19.6259782670729841 0 0 0
102       11   5    0.0640950000000000   4.6086946248224532   11.7402764674157911 -20.9847750404010824 0 0 0
103       11   6   -0.3612230000000000   4.8043389169025446   12.0771078839717614 -22.0678707359411312 0 0 0
104       11   1    0.0285690000000000   3.0910780918620584   11.8191621505133817 -17.9526792033788603 0 0 0
105       11   1    0.0285690000000000   2.3245113184160013   12.0591486508483694 -19.5333821852212672 0 0 0
106       11   1    0.0285690000000000   3.5381382201323932   13.2111006744566133 -18.9559117149501404 0 0 0
107       11   2    0.0140440000000000   4.0722405938834960   10.2616716401329526 -19.6056185633379414 0 0 0
108       11   2    0.0140440000000000   5.2790767999495065   11.4071795635401703 -19.0313813770294580 0 0 0
109       12   4   -0.1079060000000000   26.9489498192451364 -3.9043463047937546   4.7680281456736893  0 0 0
110       12   3    0.2912390000000000   27.9379140802494810 -3.5523302630948246   3.6683823026211408  0 0 0
111       12   5    0.0640950000000000   27.9220525815159775 -4.5411675360156361   2.6161965642933294  0 0 0
112       12   6   -0.3612230000000000   27.9094147922982714 -5.3293683193857078   1.7775022282694728  0 0 0
113       12   1    0.0285690000000000   26.9715469613267089 -3.1469594965173582   5.5582555483361347  0 0 0
114       12   1    0.0285690000000000   27.1871849564775765 -4.8738923515344421   5.2190753239570187  0 0 0
115       12   1    0.0285690000000000   25.9265544985424157 -3.9589490430725762   4.3782153735924787  0 0 0
116       12   2    0.0140440000000000   28.9423017130340554 -3.4753073997104993   4.0991536204052661  0 0 0
117       12   2    0.0140440000000000   27.6887241190083060 -2.5654855032606303   3.2629971102368800  0 0 0
118       13   4   -0.1079060000000000   20.3011331586461061  4.4483832725270140  -12.3222377513163703 0 0 0
119       13   3    0.2912390000000000   19.6766478654967969  3.4860443217445880  -11.3246865266931920 0 0 0
120       13   5    0.0640950000000000   18.2347176848011330  3.5391328520878522  -11.3809406762729726 0 0 0
121       13   6   -0.3612230000000000   17.0853581131696508  3.5814507153017394  -11.4257753888528040 0 0 0
122       13   1    0.0285690000000000   21.3934586931168873  4.3976857343438569  -12.2687639963959967 0 0 0
123       13   1    0.0285690000000000   19.9980841850338464  5.4813070694678991  -12.1186479094632258 0 0 0
124       13   1    0.0285690000000000   19.9990976258418911  4.2070355719832593  -13.3473004188962214 0 0 0
125       13   2    0.0140440000000000   20.0247641880621181  3.7369538357824625  -10.3166436663301671 0 0 0
126       13   2    0.0140440000000000   20.0257695727586515  2.4698128441467500  -11.5384223179353071 0 0 0
127       14   4   -0.1079060000000000  -27.2861931697791533  27.7948211518699821  20.5697424585331667 0 0 0
128       14   3    0.2912390000000000  -27.9617981082888285  27.6050197724471396  19.2211431901326080 0 0 0
129       14   5    0.0640950000000000  -27.2027647404153257  26.7111895498762060  18.3784798842545207 0 0 0
130       14   6   -0.3612230000000000  -26.5977406900128024  25.9987232656894101  17.7067909158832997 0 0 0
131       14   1    0.0285690000000000  -27.8718754018532948  28.4740285067070467  21.1976424890060784 0 0 0
132       14   1    0.0285690000000000  -26.2828148301239715  28.2190220998961649  20.4535334330467506 0 0 0
133       14   1    0.0285690000000000  -27.1869182559288660  26.8414859346614456  21.1003309084733992 0 0 0
134       14   2    0.0140440000000000  -28.0727477079694943  28.5800916986094080  18.7340950490408886 0 0 0
135       14   2    0.0140440000000000  -28.9717906173261817  27.2102615419411151  19.3772727585563693 0 0 0
136       15   4   -0.1079060000000000   10.8654266788726055 -19.2769990441259331 -11.6054595312161091 0 0 0
137       15   3    0.2912390000000000   12.2207946709267787 -19.5511033362448394 -12.2371485579191450 0 0 0
138       15   5    0.0640950000000000   12.9788925366636168 -20.4990743597879330 -11.4549822508668058 0 0 0
139       15   6   -0.3612230000000000   13.5831748055919945 -21.2546964158264515 -10.8315188391200490 0 0 0
140       15   1    0.0285690000000000   10.3020497616239499 -18.5574244060116023 -12.2083057349812378 0 0 0
141       15   1    0.0285690000000000   10.9751774068188936 -18.8637215951033106 -10.5968091446873487 0 0 0
142       15   1    0.0285690000000000   10.2719303865721034 -20.1946171811968860 -11.5282147667074533 0 0 0
143       15   2    0.0140440000000000   12.7726419892536107 -18.6089720772741032 -12.3273937501772277 0 0 0
144       15   2    0.0140440000000000   12.0733304158327108 -19.9324226713560435 -13.2535860764808646 0 0 0
145       16   4   -0.1079060000000000   28.0811498370193817 -27.6715316083825655  3.1372945521309061  0 0 0
146       16   3    0.2912390000000000   26.8669213159117213 -27.4085466784255374  4.0134649741631714  0 0 0
147       16   5    0.0640950000000000   27.2458414366228752 -27.2576840854205251  5.3986745567000645  0 0 0
148       16   6   -0.3612230000000000   27.5478743734160254 -27.1374358334916579  6.5028234782229575  0 0 0
149       16   1    0.0285690000000000   27.7794488423897228 -27.7837079308880810  2.0908731558432505  0 0 0
150       16   1    0.0285690000000000   28.5983640672840664 -28.5878441352422215  3.4423844856452464  0 0 0
151       16   1    0.0285690000000000   28.7990848924163139 -26.8462222002202822  3.1978031063281089  0 0 0
152       16   2    0.0140440000000000   26.1581797715043400 -28.2367741848842080  3.9038493394376084  0 0 0
153       16   2    0.0140440000000000   26.3577789851334892 -26.5048968647428538  3.6606385689141230  0 0 0
154       17   4   -0.1079060000000000  -4.8411893549906431   11.3738526811332932 -19.6665089760535139 0 0 0
155       17   3    0.2912390000000000  -3.3510306095134248   11.5846991617544735 -19.4516665729124583 0 0 0
156       17   5    0.0640950000000000  -2.9472613279227176   12.9095554650000555 -19.8601659124396619 0 0 0
157       17   6   -0.3612230000000000  -2.6254139900792590   13.9655933659289637 -20.1857832044018011 0 0 0
158       17   1    0.0285690000000000  -5.1330807565670096   10.3663599591533568 -19.3528808826957324 0 0 0
159       17   1    0.0285690000000000  -5.1096177718605427   11.4927963752576847 -20.7219793247818735 0 0 0
160       17   1    0.0285690000000000  -5.4302442357523457   12.0942297972958830 -19.0883231875217483 0 0 0
161       17   2    0.0140440000000000  -2.7955677745386236   10.8291305799111726 -20.0181187983410958 0 0 0
162       17   2    0.0140440000000000  -3.1144003961608493   11.4272012667213865 -18.3936042277792104 0 0 0
163       18   4   -0.1079060000000000   3.8426989385872483   19.7323516186699521 -12.7758352929413164 0 0 0
164       18   3    0.2912390000000000   4.1255757471307808   20.0155726240971177 -11.3092224754011692 0 0 0
165       18   5    0.0640950000000000   3.8002981596601537   18.8751294834102694 -10.4853720634029752 0 0 0
166       18   6   -0.3612230000000000   3.5410167869063409   17.9660878664280119 -9.8286796801387908  0 0 0
167       18   1    0.0285690000000000   4.0936230661603128   20.6045466025636124 -13.3881405667814359 0 0 0
168       18   1    0.0285690000000000   2.7849336345182678   19.4967316810350972 -12.9365676197981347 0 0 0
169       18   1    0.0285690000000000   4.4331246690111294   18.8826485986740096 -13.1358767943869346 0 0 0
170       18   2    0.0140440000000000   3.5437834775960484   20.8883060640579288 -10.9927654254184102 0 0 0
171       18   2    0.0140440000000000   5.1827517378151331   20.2776565479910786 -11.1909587338870811 0 0 0
172       19   4   -0.1079060000000000  -4.6416573142656192  -18.9485214674107780  4.0608601961740121  0 0 0
173       19   3    0.2912390000000000  -3.5689755568634087  -19.9956193461421492  4.3140922300732889  0 0 0
174       19   5    0.0640950000000000  -3.0223380657182055  -20.4931997333899503  3.0736299054133269  0 0 0
175       19   6   -0.3612230000000000  -2.5866157734539392  -20.8898250788410564  2.0848615820585712  0 0 0
176       19   1    0.0285690000000000  -5.0468670001387697  -18.5804177826292189  5.0089685991664190  0 0 0
177       19   1    0.0285690000000000  -5.4693981180858007  -19.3634795493255325  3.4753057355601857  0 0 0
178       19   1    0.0285690000000000  -4.2371878679195039  -18.0930868728031662  3.5087154964611633  0 0 0
179       19   2    0.0140440000000000  -4.0000413449303958  -20.8190827490307413  4.8940760893843249  0 0 0
180       19   2    0.0140440000000000  -2.7747251760097704  -19.5557985073544955  4.9272963830941112  0 0 0
181       20   4   -0.1079060000000000  -28.2174113855158204  18.9469065612350001  11.7634124333866055 0 0 0
182       20   3    0.2912390000000000  -26.8632895477073461  19.6277552179352952  11.8816737471776861 0 0 0
183       20   5    0.0640950000000000  -26.9752787386378046  21.0520364378217053  11.6718476401423370 0 0 0
184       20   6   -0.3612230000000000  -27.0645413552262006  22.1873275987454122  11.5045917191460845 0 0 0
185       20   1    0.0285690000000000  -28.1176643951320493  17.8686323695803821  11.9245957502061533 0 0 0
186       20   1    0.0285690000000000  -28.6538604512494679  19.1036292317604186  10.7708554869278110 0 0 0
187       20   1    0.0285690000000000  -28.9230613248652872  19.3378891316826049  12.5046400912639246 0 0 0
188       20   2    0.0140440000000000  -26.1759203242739993  19.1909515272476590  11.1488592733316132 0 0 0
189       20   2    0.0140440000000000  -26.4436159990899640  19.4239030109186288  12.8729425105740418 0 0 0
190       21   4   -0.1079060000000000  -12.1926274743867165 -19.0606953389998068  28.2010128891048630 0 0 0
191       21   3    0.2912390000000000  -11.3713089301375714 -20.1244465265399022  27.4903400788894352 0 0 0
192       21   5    0.0640950000000000  -11.5731105511111281 -20.0713877532040996  26.0614921374539108 0 0 0
193       21   6   -0.3612230000000000  -11.7339676637428276 -20.0290999805238918  24.9225605716881944 0 0 0
194       21   1    0.0285690000000000  -12.0300874089162217 -19.1124379088517315  29.2824509084485314 0 0 0
195       21   1    0.0285690000000000  -13.2632162141996588 -19.1947606510949704  28.0110515333543866 0 0 0
196       21   1    0.0285690000000000  -11.9162029838736263 -18.0558928839705111  27.8630940001511753 0 0 0
197       21   2    0.0140440000000000  -11.6511864726579759 -21.1114031759067338  27.8748866951316501 0 0 0
198       21   2    0.0140440000000000  -10.3117109531305324 -19.9789068678354305  27.7277547074757678 0 0 0
199       22   4   -0.1079060000000000  -4.2986663430937391  -18.7268980413557316 -27.3045126945789889 0 0 0
200       22   3    0.2912390000000000  -3.7246591984590656  -20.1243652860966691 -27.1348433659290826 0 0 0
201       22   5    0.0640950000000000  -3.4820698225750006  -20.7477367525152836 -28.4145714530488718 0 0 0
202       22   6   -0.3612230000000000  -3.2887054874170074  -21.2446290225981755 -29.4346384526723206 0 0 0
203       22   1    0.0285690000000000  -4.4774460096811994  -18.2666503074774127 -26.3273665384821953 0 0 0
204       22   1    0.0285690000000000  -5.2498349482752795  -18.7529604159765917 -27.8474842514271543 0 0 0
205       22   1    0.0285690000000000  -3.6118249926504622  -18.0821291561330213 -27.8637529757372171 0 0 0
206       22   2    0.0140440000000000  -4.4217222369883187  -20.7303697873854205 -26.5456467677259518 0 0 0
207       22   2    0.0140440000000000  -2.7928771782453410  -20.0632923173887789 -26.5618270220961641 0 0 0
208       23   4   -0.1079060000000000   20.4248005000915995 -20.1457297683021253 -27.8462561580817507 0 0 0
209       23   3    0.2912390000000000   19.5348358694076794 -19.0357382678408307 -27.3104685058021346 0 0 0
210       23   5    0.0640950000000000   18.1983557691104458 -19.5174823344083066 -27.0518391121970971 0 0 0
211       23   6   -0.3612230000000000   17.1330483630649475 -19.9014755965077086 -26.8456894500899708 0 0 0
212       23   1    0.0285690000000000   21.4339371406880268 -19.7667707886950126 -28.0376669427331926 0 0 0
213       23   1    0.0285690000000000   20.0301187766904043 -20.5514750137766136 -28.7842413431395485 0 0 0
214       23   1    0.0285690000000000   20.5015799694798844 -20.9716679180954557 -27.1306034951953166 0 0 0
215       23   2    0.0140440000000000   19.5067667266477400 -18.2154239827491189 -28.0361320390592503 0 0 0
216       23   2    0.0140440000000000   19.9755879717463536 -18.6332674165519379 -26.3917464753996605 0 0 0
217       24   4   -0.1079060000000000  -3.9718561934960666   18.8967666345651963  4.5996734274674900  0 0 0
218       24   3    0.2912390000000000  -3.5956625595758749   19.7425001997645104  3.3936884898363591  0 0 0
219       24   5    0.0640950000000000  -4.3389599168602953   20.9803164657099259  3.3721130914640436  0 0 0
220       24   6   -0.3612230000000000  -4.9314424373572825   21.9669759344437061  3.3549103718091660  0 0 0
221       24   1    0.0285690000000000  -3.4013486013153464   17.9623616422341996  4.6033002264771117  0 0 0
222       24   1    0.0285690000000000  -5.0379089023885228   18.6444977739872932  4.5891321635119029  0 0 0
223       24   1    0.0285690000000000  -3.7627649809938588   19.4267095663392517  5.5354453024547103  0 0 0
224       24   2    0.0140440000000000  -3.7879350960218683   19.1705329293243487  2.4792620685897617  0 0 0
225       24   2    0.0140440000000000  -2.5199275293763090   19.9483699405586705  3.4202810757748874  0 0 0
226       25   4   -0.1079060000000000   4.4453673460426311  -28.3327866258805834 -11.6127755462169233 0 0 0
227       25   3    0.2912390000000000   3.5004410446298606  -27.3068269488186282 -12.2175131829167558 0 0 0
228       25   5    0.0640950000000000   3.5234908751957343  -26.0716905366080454 -11.4698151717234449 0 0 0
229       25   6   -0.3612230000000000   3.5418584338011176  -25.0871663121582635 -10.8738260257128445 0 0 0
230       25   1    0.0285690000000000   4.4177600113425539  -29.2632339632044243 -12.1890657019871878 0 0 0
231       25   1    0.0285690000000000   4.1683277077316596  -28.5647864442414026 -10.5785395008747241 0 0 0
232       25   1    0.0285690000000000   5.4776315788178076  -27.9658561481420023 -11.6082781759147178 0 0 0
233       25   2    0.0140440000000000   2.4854752818452410  -27.7189387209486782 -12.2348150396630899 0 0 0
234       25   2    0.0140440000000000   3.7874539379788255  -27.1233578216958904 -13.2587903071465583 0 0 0
235       26   4   -0.1079060000000000  -26.7793209549336382 -3.8668525315994664   4.6275536260768755  0 0 0
236       26   3    0.2912390000000000  -27.9571871928358782 -3.5421291552783893   3.7229142295322357  0 0 0
237       26   5    0.0640950000000000  -28.2365819052265543 -4.6325254836735983   2.8184143626940159  0 0 0
238       26   6   -0.3612230000000000  -28.4592863299682968 -5.5016746208398519   2.0974352406220804  0 0 0
239       26   1    0.0285690000000000  -26.5789075570773150 -3.0323598026135334   5.3073043975580685  0 0 0
240       26   1    0.0285690000000000  -25.8718570270561585 -4.0553821480177348   4.0434432959727440  0 0 0
241       26   1    0.0285690000000000  -26.9788809986369458 -4.7581251627354346   5.2325631582704801  0 0 0
242       26   2    0.0140440000000000  -27.7358958990853033 -2.6299720030530453   3.1578563036924585  0 0 0
243       26   2    0.0140440000000000  -28.8367256568778387 -3.3287853095743838   4.3403216029664611  0 0 0
244       27   4   -0.1079060000000000  -19.6304569259966328  20.6268930062787383 -19.4825577077972092 0 0 0
245       27   3    0.2912390000000000  -19.2186602183608315  19.2139034338795582 -19.8634389532943914 0 0 0
246       27   5    0.0640950000000000  -20.2850947039772436  18.2736359061737055 -19.6109314650292532 0 0 0
247       27   6   -0.3612230000000000  -21.1351439543425954  17.5241477485634078 -19.4096551587852453 0 0 0
248       27   1    0.0285690000000000  -18.8133006232945377  21.3284957163240740 -19.6790620851308056 0 0 0
249       27   1    0.0285690000000000  -19.8861467079186767  20.6915710395654990 -18.4192334102140052 0 0 0
250       27   1    0.0285690000000000  -20.5043944469214736  20.9529047771931474 -20.0571681696276691 0 0 0
251       27   2    0.0140440000000000  -18.3255213496826137  18.9338044419233498 -19.2941073429289425 0 0 0
252       27   2    0.0140440000000000  -18.9403121564325048  19.1936750170256154 -20.9228767941195812 0 0 0
253       28   4   -0.1079060000000000  -4.4176814370986870  -4.7487021674927190  -12.0794390681361179 0 0 0
254       28   3    0.2912390000000000  -3.7924424705723125  -3.3633611086520112  -12.0463789905934586 0 0 0
255       28   5    0.0640950000000000  -3.1385906146901457  -3.1160043354570202  -10.7828767370481824 0 0 0
256       28   6   -0.3612230000000000  -2.6174097470991433  -2.9188322892354233  -9.7757411625866872  0 0 0
257       28   1    0.0285690000000000  -4.9093599787520761  -4.9224998674071312  -13.0420663725909822 0 0 0
258       28   1    0.0285690000000000  -5.1673314996536526  -4.8635539156285779  -11.2888361753628406 0 0 0
259       28   1    0.0285690000000000  -3.6607153009118338  -5.5280226551412559  -11.9384089497301105 0 0 0
260       28   2    0.0140440000000000  -4.5712312019682697  -2.6130393076920195  -12.2218676610392656 0 0 0
261       28   2    0.0140440000000000  -3.0730439666392817  -3.2737905706792745  -12.8678035350686066 0 0 0
262       29   4   -0.1079060000000000   20.0541728281971885 -12.6290590905259457  27.1570153379692520 0 0 0
263       29   3    0.2912390000000000   19.5747718463544018 -11.5070469024949347  28.0639055914277549 0 0 0
264       29   5    0.0640950000000000   18.8888903622320363 -10.4839521436984882  27.3102549617183854 0 0 0
265       29   6   -0.3612230000000000   18.3421791602654203 -9.6684417806725804   26.7095236679259180 0 0 0
266       29   1    0.0285690000000000   20.5718129935771898 -13.3968843737948173  27.7410510814459883 0 0 0
267       29   1    0.0285690000000000   20.7482614808969323 -12.2542584660458189  26.3967624139480641 0 0 0
268       29   1    0.0285690000000000   19.2146332918920564 -13.1046049681341152  26.6381154118077035 0 0 0
269       29   2    0.0140440000000000   20.4346786806423069 -11.0767917871217811  28.5890072374356414 0 0 0
270       29   2    0.0140440000000000   18.9096304428695454 -11.9223791396677825  28.8290078180192140 0 0 0
271       30   4   -0.1079060000000000  -27.8112724198431174 -20.3292114972474209 -4.5779033528898001  0 0 0