
                                 *****************
                                 * O   R   C   A *
                                 *****************

           --- An Ab Initio, DFT and Semiempirical electronic structure package ---

                  #######################################################
                  #                        -***-                        #
                  #          Department of theory and spectroscopy      #
                  #               Directorship: Frank Neese             #
                  #        Max Planck Institute fuer Kohlenforschung    #
                  #                Kaiser Wilhelm Platz 1               #
                  #                 D-45470 Muelheim/Ruhr               #
                  #                      Germany                        #
                  #                                                     #
                  #                  All rights reserved                #
                  #                        -***-                        #
                  #######################################################


                         Program Version 4.1.2  - RELEASE  -


 With contributions from (in alphabetic order):
   Daniel Aravena         : Magnetic Properties
   Michael Atanasov       : Ab Initio Ligand Field Theory
   Alexander A. Auer      : GIAO ZORA
   Ute Becker             : Parallelization
   Giovanni Bistoni       : ED, Open-shell LED
   Martin Brehm           : Molecular dynamics
   Dmytro Bykov           : SCF Hessian
   Vijay G. Chilkuri      : MRCI spin determinant printing
   Dipayan Datta          : RHF DLPNO-CCSD density
   Achintya Kumar Dutta   : EOM-CC, STEOM-CC
   Dmitry Ganyushin       : Spin-Orbit,Spin-Spin,Magnetic field MRCI
   Miquel Garcia          : C-PCM Hessian
   Yang Guo               : DLPNO-NEVPT2, CIM, IAO-localization
   Andreas Hansen         : Spin unrestricted coupled pair/coupled cluster methods
   Benjamin Helmich-Paris : CASSCF linear response (MC-RPA)
   Lee Huntington         : MR-EOM, pCC
   Robert Izsak           : Overlap fitted RIJCOSX, COSX-SCS-MP3, EOM
   Christian Kollmar      : KDIIS, OOCD, Brueckner-CCSD(T), CCSD density
   Simone Kossmann        : Meta GGA functionals, TD-DFT gradient, OOMP2, MP2 Hessian
   Martin Krupicka        : AUTO-CI
   Lucas Lang             : DCDCAS
   Dagmar Lenk            : GEPOL surface, SMD
   Dimitrios Liakos       : Extrapolation schemes; parallel MDCI
   Dimitrios Manganas     : ROCIS; embedding schemes
   Dimitrios Pantazis     : SARC Basis sets
   Taras Petrenko         : DFT Hessian,TD-DFT gradient, ASA, ECA, R-Raman, ABS, FL, XAS/XES, NRVS
   Peter Pinski           : DLPNO-MP2, DLPNO-MP2 Gradient
   Christoph Reimann      : Effective Core Potentials
   Marius Retegan         : Local ZFS, SOC
   Christoph Riplinger    : Optimizer, TS searches, QM/MM, DLPNO-CCSD(T), (RO)-DLPNO pert. Triples
   Tobias Risthaus        : Range-separated hybrids, TD-DFT gradient, RPA, STAB
   Michael Roemelt        : Restricted open shell CIS
   Masaaki Saitow         : Open-shell DLPNO
   Barbara Sandhoefer     : DKH picture change effects
   Avijit Sen             : IP-ROCIS
   Kantharuban Sivalingam : CASSCF convergence, NEVPT2, FIC-MRCI
   Bernardo de Souza      : ESD, SOC TD-DFT
   Georgi Stoychev        : AutoAux, RI-MP2 NMR
   Willem Van den Heuvel  : Paramagnetic NMR
   Boris Wezisla          : Elementary symmetry handling
   Frank Wennmohs         : Technical directorship


 We gratefully acknowledge several colleagues who have allowed us to
 interface, adapt or use parts of their codes:
   Stefan Grimme, W. Hujo, H. Kruse,             : VdW corrections, initial TS optimization,
                  C. Bannwarth                     DFT functionals, gCP, sTDA/sTD-DF
   Ed Valeev                                     : LibInt (2-el integral package), F12 methods
   Garnet Chan, S. Sharma, J. Yang, R. Olivares  : DMRG
   Ulf Ekstrom                                   : XCFun DFT Library
   Mihaly Kallay                                 : mrcc  (arbitrary order and MRCC methods)
   Andreas Klamt, Michael Diedenhofen            : otool_cosmo (COSMO solvation model)
   Jiri Pittner, Ondrej Demel                    : Mk-CCSD
   Frank Weinhold                                : gennbo (NPA and NBO analysis)
   Christopher J. Cramer and Donald G. Truhlar   : smd solvation model
   Lars Goerigk                                  : TD-DFT with DH, B97 family of functionals
   V. Asgeirsson, H. Jonsson                     : NEB implementation
   FAccTs GmbH                                   : IRC, NEB, NEB-TS, Multilevel


 Your calculation uses the libint2 library for the computation of 2-el integrals
 For citations please refer to: http://libint.valeyev.net

 This ORCA versions uses:
   CBLAS   interface :  Fast vector & matrix operations
   LAPACKE interface :  Fast linear algebra routines
   SCALAPACK package :  Parallel linear algebra routines


Your calculation utilizes the atom-pairwise dispersion correction
with the zero-damping scheme (D30)
Cite in your paper:
S.Grimme, J.Antony, S.Ehrlich and H.Krieg, J.Chem.Phys., 132, (2010), 154104 
   

XCFun DFT library Copyright 2009-2010 Ulf Ekstrom and contributors.
See http://admol.org/xcfun for more information. This is free soft-
ware; see the source code for copying conditions. There is ABSOLUTELY
NO WARRANTY; not even for MERCHANTABILITY or FITNESS FOR A PARTICULAR
PURPOSE. For details see the documentation. Scientific users of this 
library should cite U. Ekstrom, L. Visscher, R. Bast, A. J. Thorvald-
sen and K. Ruud; J.Chem.Theor.Comp. 2010, DOI: 10.1021/ct100117s
XCFun Version 0.99 
----- Orbital basis set information -----
Your calculation utilizes the basis: def2-TZVP
   F. Weigend and R. Ahlrichs, Phys. Chem. Chem. Phys. 7, 3297 (2005).

================================================================================
                                        WARNINGS
                       Please study these warnings very carefully!
================================================================================


INFO   : the flag for use of LIBINT has been found!

Your calculation utilizes the atom-pairwise dispersion correction
with the zero-damping scheme (D30)
Cite in your paper:
S.Grimme, J.Antony, S.Ehrlich and H.Krieg, J.Chem.Phys., 132, (2010), 154104 
   

XCFun DFT library Copyright 2009-2010 Ulf Ekstrom and contributors.
See http://admol.org/xcfun for more information. This is free soft-
ware; see the source code for copying conditions. There is ABSOLUTELY
NO WARRANTY; not even for MERCHANTABILITY or FITNESS FOR A PARTICULAR
PURPOSE. For details see the documentation. Scientific users of this 
library should cite U. Ekstrom, L. Visscher, R. Bast, A. J. Thorvald-
sen and K. Ruud; J.Chem.Theor.Comp. 2010, DOI: 10.1021/ct100117s
XCFun Version 0.99 
----- Orbital basis set information -----
Your calculation utilizes the basis: def2-TZVP
   F. Weigend and R. Ahlrichs, Phys. Chem. Chem. Phys. 7, 3297 (2005).

================================================================================
                                        WARNINGS
                       Please study these warnings very carefully!
================================================================================


WARNING: MOInp is set but Guess=PModel. MOInp will be ignored!
         To read the initial guess from a file you must also specify
         'MORead' in the simple input or 'Guess MORead' in the %scf block


INFO   : the flag for use of LIBINT has been found!

Your calculation utilizes the atom-pairwise dispersion correction
with the zero-damping scheme (D30)
Cite in your paper:
S.Grimme, J.Antony, S.Ehrlich and H.Krieg, J.Chem.Phys., 132, (2010), 154104 
   

XCFun DFT library Copyright 2009-2010 Ulf Ekstrom and contributors.
See http://admol.org/xcfun for more information. This is free soft-
ware; see the source code for copying conditions. There is ABSOLUTELY
NO WARRANTY; not even for MERCHANTABILITY or FITNESS FOR A PARTICULAR
PURPOSE. For details see the documentation. Scientific users of this 
library should cite U. Ekstrom, L. Visscher, R. Bast, A. J. Thorvald-
sen and K. Ruud; J.Chem.Theor.Comp. 2010, DOI: 10.1021/ct100117s
XCFun Version 0.99 
----- Orbital basis set information -----
Your calculation utilizes the basis: def2-TZVP
   F. Weigend and R. Ahlrichs, Phys. Chem. Chem. Phys. 7, 3297 (2005).

================================================================================
                                        WARNINGS
                       Please study these warnings very carefully!
================================================================================


WARNING: MOInp is set but Guess=PModel. MOInp will be ignored!
         To read the initial guess from a file you must also specify
         'MORead' in the simple input or 'Guess MORead' in the %scf block


INFO   : the flag for use of LIBINT has been found!

================================================================================
                                       INPUT FILE
================================================================================
NAME = 12-108.in
|  1> #Run DFT-D3 single point of the dimer
|  2> ! wB97X-D3 def2-TZVP TIGHTSCF CHELPG PMODEL PAL8
|  3> 
|  4> %base "12-108_DFT_AB"
|  5> 
|  6> %scf
|  7> MaxIter 1000
|  8> end
|  9> 
| 10> * xyz 0 1
| 11>   C                      0.660958             5.234501             6.568248            
| 12>   O                      1.793988             4.917370             7.403906            
| 13>   H                      1.654328             3.934204             7.551554            
| 14>   H                      0.805839             4.909714             5.553898            
| 15>   H                      -0.204570            4.628391             6.807331            
| 16>   H                      0.475641             6.293078             6.607980            
| 17>   C                      2.788778             7.113822             10.181854           
| 18>   O                      3.801655             6.976364             9.220775            
| 19>   H                      4.465584             6.400968             9.529224            
| 20>   H                      2.109126             6.241315             10.280435           
| 21>   H                      3.263922             7.233564             11.141851           
| 22>   H                      2.128043             7.959936             9.959660            
| 23> *
| 24> 
| 25> #Run DFT-D3 single point of the molecule with dimer basis set
| 26> $new_job
| 27> %base "12-108_DFT_A"
| 28> ! wB97X-D3 def2-TZVP TIGHTSCF CHELPG PMODEL
| 29> 
| 30> %scf
| 31> MaxIter 1000
| 32> end
| 33> 
| 34> * xyz 0 1
| 35>   C                      0.660958             5.234501             6.568248            
| 36>   O                      1.793988             4.917370             7.403906            
| 37>   H                      1.654328             3.934204             7.551554            
| 38>   H                      0.805839             4.909714             5.553898            
| 39>   H                      -0.204570            4.628391             6.807331            
| 40>   H                      0.475641             6.293078             6.607980            
| 41>   C                    : 2.788778             7.113822             10.181854           
| 42>   O                    : 3.801655             6.976364             9.220775            
| 43>   H                    : 4.465584             6.400968             9.529224            
| 44>   H                    : 2.109126             6.241315             10.280435           
| 45>   H                    : 3.263922             7.233564             11.141851           
| 46>   H                    : 2.128043             7.959936             9.959660            
| 47> *
| 48> 
| 49> #Run DFT-D3 single point of the particle with dimer basis set
| 50> $new_job
| 51> %base "12-108_DFT_B"
| 52> ! wB97X-D3 def2-TZVP TIGHTSCF CHELPG PMODEL
| 53> 
| 54> %scf
| 55> MaxIter 1000
| 56> end
| 57> 
| 58> * xyz 0 1
| 59>   C                    : 0.660958             5.234501             6.568248            
| 60>   O                    : 1.793988             4.917370             7.403906            
| 61>   H                    : 1.654328             3.934204             7.551554            
| 62>   H                    : 0.805839             4.909714             5.553898            
| 63>   H                    : -0.204570            4.628391             6.807331            
| 64>   H                    : 0.475641             6.293078             6.607980            
| 65>   C                      2.788778             7.113822             10.181854           
| 66>   O                      3.801655             6.976364             9.220775            
| 67>   H                      4.465584             6.400968             9.529224            
| 68>   H                      2.109126             6.241315             10.280435           
| 69>   H                      3.263922             7.233564             11.141851           
| 70>   H                      2.128043             7.959936             9.959660            
| 71> *
| 72> 
| 73>                          ****END OF INPUT****
================================================================================


                 $$$$$$$$$$$$$$$$$$$$$$$$$$$$$$$$$$$$$$$$$$$$$$ 
                 $ THERE ARE  3 JOBS TO BE PROCESSED THIS RUN $
                 $$$$$$$$$$$$$$$$$$$$$$$$$$$$$$$$$$$$$$$$$$$$$$ 




                 $$$$$$$$$$$$$$$$  JOB NUMBER  1 $$$$$$$$$$$$$$


                       ****************************
                       * Single Point Calculation *
                       ****************************

---------------------------------
CARTESIAN COORDINATES (ANGSTROEM)
---------------------------------
  C      0.660958    5.234501    6.568248
  O      1.793988    4.917370    7.403906
  H      1.654328    3.934204    7.551554
  H      0.805839    4.909714    5.553898
  H     -0.204570    4.628391    6.807331
  H      0.475641    6.293078    6.607980
  C      2.788778    7.113822   10.181854
  O      3.801655    6.976364    9.220775
  H      4.465584    6.400968    9.529224
  H      2.109126    6.241315   10.280435
  H      3.263922    7.233564   11.141851
  H      2.128043    7.959936    9.959660

----------------------------
CARTESIAN COORDINATES (A.U.)
----------------------------
  NO LB      ZA    FRAG     MASS         X           Y           Z
   0 C     6.0000    0    12.011    1.249030    9.891773   12.412190
   1 O     8.0000    0    15.999    3.390146    9.292483   13.991355
   2 H     1.0000    0     1.008    3.126227    7.434568   14.270369
   3 H     1.0000    0     1.008    1.522815    9.278015   10.495346
   4 H     1.0000    0     1.008   -0.386581    8.746391   12.863991
   5 H     1.0000    0     1.008    0.898831   11.892194   12.487272
   6 C     6.0000    0    12.011    5.270027   13.443175   19.240916
   7 O     8.0000    0    15.999    7.184087   13.183417   17.424739
   8 H     1.0000    0     1.008    8.438731   12.096077   18.007624
   9 H     1.0000    0     1.008    3.985671   11.794376   19.427207
  10 H     1.0000    0     1.008    6.167919   13.669455   21.055047
  11 H     1.0000    0     1.008    4.021418   15.042099   18.821030

--------------------------------
INTERNAL COORDINATES (ANGSTROEM)
--------------------------------
 C      0   0   0     0.000000000000     0.00000000     0.00000000
 O      1   0   0     1.443140098890     0.00000000     0.00000000
 H      2   1   0     1.003952305172   101.01950891     0.00000000
 H      1   2   3     1.074887446215   111.97611835   283.33218375
 H      1   2   3     1.083359927159   112.11808407    32.90443541
 H      1   2   3     1.075409822924   109.28151836   160.14798894
 C      2   1   3     3.678451253328   121.22550943   223.34688520
 O      7   2   1     1.403027926712    67.63055937   240.53665920
 H      8   7   2     0.931140730211   110.38816606   256.21157750
 H      7   2   1     1.110366389852    55.41089571    93.07904732
 H      7   2   1     1.077819190453   149.11472860   153.41714927
 H      7   2   1     1.096289110982    98.32549233   350.79189985

---------------------------
INTERNAL COORDINATES (A.U.)
---------------------------
 C      0   0   0     0.000000000000     0.00000000     0.00000000
 O      1   0   0     2.727139559783     0.00000000     0.00000000
 H      2   1   0     1.897194908294   101.01950891     0.00000000
 H      1   2   3     2.031242898136   111.97611835   283.33218375
 H      1   2   3     2.047253566795   112.11808407    32.90443541
 H      1   2   3     2.032230047056   109.28151836   160.14798894
 C      2   1   3     6.951265465769   121.22550943   223.34688520
 O      7   2   1     2.651338539729    67.63055937   240.53665920
 H      8   7   2     1.759600972238   110.38816606   256.21157750
 H      7   2   1     2.098288385132    55.41089571    93.07904732
 H      7   2   1     2.036783091841   149.11472860   153.41714927
 H      7   2   1     2.071686183355    98.32549233   350.79189985

---------------------
BASIS SET INFORMATION
---------------------
There are 3 groups of distinct atoms

 Group   1 Type C   : 11s6p2d1f contracted to 5s3p2d1f pattern {62111/411/11/1}
 Group   2 Type O   : 11s6p2d1f contracted to 5s3p2d1f pattern {62111/411/11/1}
 Group   3 Type H   : 5s1p contracted to 3s1p pattern {311/1}

Atom   0C    basis set group =>   1
Atom   1O    basis set group =>   2
Atom   2H    basis set group =>   3
Atom   3H    basis set group =>   3
Atom   4H    basis set group =>   3
Atom   5H    basis set group =>   3
Atom   6C    basis set group =>   1
Atom   7O    basis set group =>   2
Atom   8H    basis set group =>   3
Atom   9H    basis set group =>   3
Atom  10H    basis set group =>   3
Atom  11H    basis set group =>   3


           ************************************************************
           *        Program running with 8 parallel MPI-processes     *
           *              working on a common directory               *
           ************************************************************
------------------------------------------------------------------------------
                           ORCA GTO INTEGRAL CALCULATION
------------------------------------------------------------------------------

                         BASIS SET STATISTICS AND STARTUP INFO

 # of primitive gaussian shells          ...  128
 # of primitive gaussian functions       ...  248
 # of contracted shells                  ...   76
 # of contracted basis functions         ...  172
 Highest angular momentum                ...    3
 Maximum contraction depth               ...    6
 Integral package used                   ... LIBINT
 Integral threshhold            Thresh   ...  2.500e-11
 Primitive cut-off              TCut     ...  2.500e-12


------------------------------ INTEGRAL EVALUATION ----------------------------


 * One electron integrals 
 Pre-screening matrix                    ... done
 Shell pair data                         ... done (   0.001 sec)



           ************************************************************
           *        Program running with 8 parallel MPI-processes     *
           *              working on a common directory               *
           ************************************************************
-------------------------------------------------------------------------------
                                 ORCA SCF
-------------------------------------------------------------------------------

------------
SCF SETTINGS
------------
Hamiltonian:
 Density Functional     Method          .... DFT(GTOs)
 Exchange Functional    Exchange        .... WB97X-D3
 Correlation Functional Correlation     .... WB97X-D3
 Gradients option       PostSCFGGA      .... off
 Hybrid DFT is turned on
   Fraction HF Exchange ScalHFX         ....  0.195728
   Scaling of DF-GGA-X  ScalDFX         ....  0.000000
   Scaling of DF-GGA-C  ScalDFC         ....  1.000000
   Scaling of DF-LDA-C  ScalLDAC        ....  1.000000
   Perturbative correction              ....  0.000000
   Density functional embedding theory  .... OFF
 Long-range corrected/Screened/Range-Separated Hybrid DFT is turned on
   Amount of maximum screened exact exchange              ....  0.804272
   Range separation parameter mu (erf(mu*r12)/r12)        ....  0.250000


General Settings:
 Integral files         IntName         .... 12-108_DFT_AB
 Hartree-Fock type      HFTyp           .... RHF
 Total Charge           Charge          ....    0
 Multiplicity           Mult            ....    1
 Number of Electrons    NEL             ....   36
 Basis Dimension        Dim             ....  172
 Nuclear Repulsion      ENuc            ....    122.4989362519 Eh

Convergence Acceleration:
 DIIS                   CNVDIIS         .... on
   Start iteration      DIISMaxIt       ....    12
   Startup error        DIISStart       ....  0.200000
   # of expansion vecs  DIISMaxEq       ....     5
   Bias factor          DIISBfac        ....   1.050
   Max. coefficient     DIISMaxC        ....  10.000
 Newton-Raphson         CNVNR           .... off
 SOSCF                  CNVSOSCF        .... on
   Start iteration      SOSCFMaxIt      ....   150
   Startup grad/error   SOSCFStart      ....  0.003300
 Level Shifting         CNVShift        .... on
   Level shift para.    LevelShift      ....    0.2500
   Turn off err/grad.   ShiftErr        ....    0.0010
 Zerner damping         CNVZerner       .... off
 Static damping         CNVDamp         .... on
   Fraction old density DampFac         ....    0.7000
   Max. Damping (<1)    DampMax         ....    0.9800
   Min. Damping (>=0)   DampMin         ....    0.0000
   Turn off err/grad.   DampErr         ....    0.1000
 Fernandez-Rico         CNVRico         .... off

SCF Procedure:
 Maximum # iterations   MaxIter         ....  1000
 SCF integral mode      SCFMode         .... Direct
   Integral package                     .... LIBINT
 Reset frequency        DirectResetFreq ....    20
 Integral Threshold     Thresh          ....  2.500e-11 Eh
 Primitive CutOff       TCut            ....  2.500e-12 Eh

Convergence Tolerance:
 Convergence Check Mode ConvCheckMode   .... Total+1el-Energy
 Convergence forced     ConvForced      .... 0
 Energy Change          TolE            ....  1.000e-08 Eh
 1-El. energy change                    ....  1.000e-05 Eh
 Orbital Gradient       TolG            ....  1.000e-05
 Orbital Rotation angle TolX            ....  1.000e-05
 DIIS Error             TolErr          ....  5.000e-07


Diagonalization of the overlap matrix:
Smallest eigenvalue                        ... 1.563e-03
Time for diagonalization                   ...    0.004 sec
Threshold for overlap eigenvalues          ... 1.000e-08
Number of eigenvalues below threshold      ... 0
Time for construction of square roots      ...    0.005 sec
Total time needed                          ...    0.009 sec

-------------------
DFT GRID GENERATION
-------------------

General Integration Accuracy     IntAcc      ...  4.340
Radial Grid Type                 RadialGrid  ... Gauss-Chebyshev
Angular Grid (max. acc.)         AngularGrid ... Lebedev-110
Angular grid pruning method      GridPruning ... 3 (G Style)
Weight generation scheme         WeightScheme... Becke
Basis function cutoff            BFCut       ...    1.0000e-11
Integration weight cutoff        WCut        ...    1.0000e-14
Grids for H and He will be reduced by one unit

# of grid points (after initial pruning)     ...  13096 (   0.0 sec)
# of grid points (after weights+screening)   ...  12548 (   0.0 sec)
nearest neighbour list constructed           ...    0.0 sec
Grid point re-assignment to atoms done       ...    0.0 sec
Grid point division into batches done        ...    0.0 sec
Reduced shell lists constructed in    0.0 sec

Total number of grid points                  ...    12548
Total number of batches                      ...      201
Average number of points per batch           ...       62
Average number of grid points per atom       ...     1046
Average number of shells per batch           ...    54.93 (72.27%)
Average number of basis functions per batch  ...   123.07 (71.55%)
Average number of large shells per batch     ...    46.15 (84.02%)
Average number of large basis fcns per batch ...   103.70 (84.26%)
Maximum spatial batch extension              ...   6.80,  5.85,  5.21 au
Average spatial batch extension              ...   0.24,  0.24,  0.23 au

Time for grid setup =    0.038 sec

------------------------------
INITIAL GUESS: MODEL POTENTIAL
------------------------------
Loading Hartree-Fock densities                     ... done
Calculating cut-offs                               ... done
Setting up the integral package                    ... done
Initializing the effective Hamiltonian             ... done
Starting the Coulomb interaction                   ... done (   0.0 sec)
Reading the grid                                   ... done
Mapping shells                                     ... done
Starting the XC term evaluation                    ... done (   0.0 sec)
  promolecular density results
     # of electrons  =     35.995910078
     EX              =    -28.859430371
     EC              =     -1.151001068
     EX+EC           =    -30.010431439
Transforming the Hamiltonian                       ... done (   0.0 sec)
Diagonalizing the Hamiltonian                      ... done (   0.0 sec)
Back transforming the eigenvectors                 ... done (   0.0 sec)
Now organizing SCF variables                       ... done
                      ------------------
                      INITIAL GUESS DONE (   0.1 sec)
                      ------------------
--------------
SCF ITERATIONS
--------------
ITER       Energy         Delta-E        Max-DP      RMS-DP      [F,P]     Damp
               ***  Starting incremental Fock matrix formation  ***
  0   -231.2866055705   0.000000000000 0.03790723  0.00108551  0.2528146 0.7000
  1   -231.3613553463  -0.074749775829 0.02232431  0.00077523  0.1260728 0.7000
                               ***Turning on DIIS***
  2   -231.3957604563  -0.034405110019 0.03470065  0.00140051  0.0527209 0.0000
  3   -231.4517804630  -0.056020006654 0.01801088  0.00051177  0.0624084 0.0000
  4   -231.4609249653  -0.009144502339 0.00429810  0.00010165  0.0066228 0.0000
                      *** Initiating the SOSCF procedure ***
                           *** Shutting down DIIS ***
                      *** Re-Reading the Fockian *** 
                      *** Removing any level shift *** 
ITER      Energy       Delta-E        Grad      Rot      Max-DP    RMS-DP
  5   -231.46112039  -0.0001954225  0.000444  0.000444  0.000880  0.000036
               *** Restarting incremental Fock matrix formation ***
  6   -231.46113846  -0.0000180751  0.000129  0.000182  0.000490  0.000022
  7   -231.46114016  -0.0000016953  0.000049  0.000105  0.000270  0.000012
  8   -231.46114026  -0.0000001032  0.000055  0.000037  0.000076  0.000003
  9   -231.46114035  -0.0000000920  0.000005  0.000006  0.000013  0.000001
                  ***Gradient check signals convergence***
              ***Rediagonalizing the Fockian in SOSCF/NRSCF***

               *****************************************************
               *                     SUCCESS                       *
               *           SCF CONVERGED AFTER  10 CYCLES          *
               *****************************************************

Setting up the final grid:

General Integration Accuracy     IntAcc      ...  4.670
Radial Grid Type                 RadialGrid  ... Gauss-Chebyshev
Angular Grid (max. acc.)         AngularGrid ... Lebedev-302
Angular grid pruning method      GridPruning ... 3 (G Style)
Weight generation scheme         WeightScheme... Becke
Basis function cutoff            BFCut       ...    1.0000e-11
Integration weight cutoff        WCut        ...    1.0000e-14
Grids for H and He will be reduced by one unit

# of grid points (after initial pruning)     ...  52000 (   0.0 sec)
# of grid points (after weights+screening)   ...  49346 (   0.0 sec)
nearest neighbour list constructed           ...    0.0 sec
Grid point re-assignment to atoms done       ...    0.0 sec
Grid point division into batches done        ...    0.2 sec
Reduced shell lists constructed in    0.2 sec

Total number of grid points                  ...    49346
Total number of batches                      ...      778
Average number of points per batch           ...       63
Average number of grid points per atom       ...     4112
Average number of shells per batch           ...    54.00 (71.05%)
Average number of basis functions per batch  ...   120.48 (70.05%)
Average number of large shells per batch     ...    44.45 (82.32%)
Average number of large basis fcns per batch ...    99.51 (82.59%)
Maximum spatial batch extension              ...   8.28,  4.75,  6.84 au
Average spatial batch extension              ...   0.16,  0.15,  0.16 au

Final grid set up in    0.3 sec
Final integration                            ... done (   0.1 sec)
Change in XC energy                          ...    -0.000540510
Integrated number of electrons               ...    36.000023786
Previous integrated no of electrons          ...    36.000510981

----------------
TOTAL SCF ENERGY
----------------

Total Energy       :         -231.46168086 Eh           -6298.39254 eV

Components:
Nuclear Repulsion  :          122.49893625 Eh            3333.36552 eV
Electronic Energy  :         -353.96061712 Eh           -9631.75806 eV
One Electron Energy:         -558.13740457 Eh          -15187.69091 eV
Two Electron Energy:          204.17678746 Eh            5555.93284 eV

Virial components:
Potential Energy   :         -461.97613256 Eh          -12571.00966 eV
Kinetic Energy     :          230.51445170 Eh            6272.61712 eV
Virial Ratio       :            2.00410920


DFT components:
N(Alpha)           :       18.000011892939 electrons
N(Beta)            :       18.000011892939 electrons
N(Total)           :       36.000023785878 electrons
E(XC)              :      -21.308099380680 Eh       
DFET-embed. en.    :        0.000000000000 Eh       

---------------
SCF CONVERGENCE
---------------

  Last Energy change         ...   -1.1525e-09  Tolerance :   1.0000e-08
  Last MAX-Density change    ...    4.5748e-06  Tolerance :   1.0000e-07
  Last RMS-Density change    ...    1.5001e-07  Tolerance :   5.0000e-09
  Last Orbital Gradient      ...    2.0477e-06  Tolerance :   1.0000e-05
  Last Orbital Rotation      ...    2.4688e-06  Tolerance :   1.0000e-05

             **** THE GBW FILE WAS UPDATED (12-108_DFT_AB.gbw) ****
             **** DENSITY FILE WAS UPDATED (12-108_DFT_AB.scfp.tmp) ****
             **** ENERGY FILE WAS UPDATED (12-108_DFT_AB.en.tmp) ****
----------------
ORBITAL ENERGIES
----------------

  NO   OCC          E(Eh)            E(eV) 
   0   2.0000     -19.230971      -523.3013 
   1   2.0000     -19.212184      -522.7901 
   2   2.0000     -10.306069      -280.4424 
   3   2.0000     -10.300531      -280.2917 
   4   2.0000      -1.129702       -30.7407 
   5   2.0000      -1.118883       -30.4463 
   6   2.0000      -0.791481       -21.5373 
   7   2.0000      -0.786079       -21.3903 
   8   2.0000      -0.605193       -16.4681 
   9   2.0000      -0.603574       -16.4241 
  10   2.0000      -0.531367       -14.4592 
  11   2.0000      -0.525963       -14.3122 
  12   2.0000      -0.518213       -14.1013 
  13   2.0000      -0.515199       -14.0193 
  14   2.0000      -0.444499       -12.0954 
  15   2.0000      -0.418823       -11.3967 
  16   2.0000      -0.366216        -9.9652 
  17   2.0000      -0.356864        -9.7108 
  18   0.0000       0.103962         2.8290 
  19   0.0000       0.133827         3.6416 
  20   0.0000       0.155507         4.2316 
  21   0.0000       0.164691         4.4815 
  22   0.0000       0.194532         5.2935 
  23   0.0000       0.207754         5.6533 
  24   0.0000       0.215806         5.8724 
  25   0.0000       0.224368         6.1054 
  26   0.0000       0.232805         6.3349 
  27   0.0000       0.245555         6.6819 
  28   0.0000       0.295866         8.0509 
  29   0.0000       0.315994         8.5986 
  30   0.0000       0.317604         8.6425 
  31   0.0000       0.359360         9.7787 
  32   0.0000       0.399087        10.8597 
  33   0.0000       0.424487        11.5509 
  34   0.0000       0.443456        12.0670 
  35   0.0000       0.464834        12.6488 
  36   0.0000       0.475378        12.9357 
  37   0.0000       0.508673        13.8417 
  38   0.0000       0.520394        14.1606 
  39   0.0000       0.540627        14.7112 
  40   0.0000       0.561746        15.2859 
  41   0.0000       0.566530        15.4161 
  42   0.0000       0.574796        15.6410 
  43   0.0000       0.596218        16.2239 
  44   0.0000       0.605189        16.4680 
  45   0.0000       0.617023        16.7900 
  46   0.0000       0.645885        17.5754 
  47   0.0000       0.678395        18.4601 
  48   0.0000       0.695037        18.9129 
  49   0.0000       0.733934        19.9714 
  50   0.0000       0.769190        20.9307 
  51   0.0000       0.815239        22.1838 
  52   0.0000       0.831151        22.6168 
  53   0.0000       0.852451        23.1964 
  54   0.0000       0.870765        23.6947 
  55   0.0000       0.906726        24.6733 
  56   0.0000       0.996591        27.1186 
  57   0.0000       1.011264        27.5179 
  58   0.0000       1.038372        28.2555 
  59   0.0000       1.057831        28.7850 
  60   0.0000       1.115813        30.3628 
  61   0.0000       1.133200        30.8359 
  62   0.0000       1.368307        37.2335 
  63   0.0000       1.426560        38.8187 
  64   0.0000       1.473964        40.1086 
  65   0.0000       1.523786        41.4643 
  66   0.0000       1.546932        42.0942 
  67   0.0000       1.573328        42.8124 
  68   0.0000       1.577650        42.9300 
  69   0.0000       1.611506        43.8513 
  70   0.0000       1.630000        44.3546 
  71   0.0000       1.636714        44.5373 
  72   0.0000       1.655269        45.0422 
  73   0.0000       1.662938        45.2508 
  74   0.0000       1.671128        45.4737 
  75   0.0000       1.710676        46.5499 
  76   0.0000       1.713022        46.6137 
  77   0.0000       1.729989        47.0754 
  78   0.0000       1.800768        49.0014 
  79   0.0000       1.821333        49.5610 
  80   0.0000       1.967523        53.5390 
  81   0.0000       1.994027        54.2602 
  82   0.0000       2.011097        54.7247 
  83   0.0000       2.027105        55.1603 
  84   0.0000       2.056094        55.9492 
  85   0.0000       2.074426        56.4480 
  86   0.0000       2.087822        56.8125 
  87   0.0000       2.122280        57.7502 
  88   0.0000       2.146290        58.4035 
  89   0.0000       2.166326        58.9487 
  90   0.0000       2.228674        60.6453 
  91   0.0000       2.297807        62.5265 
  92   0.0000       2.319951        63.1291 
  93   0.0000       2.333581        63.5000 
  94   0.0000       2.349859        63.9429 
  95   0.0000       2.366440        64.3941 
  96   0.0000       2.407018        65.4983 
  97   0.0000       2.449749        66.6611 
  98   0.0000       2.469419        67.1963 
  99   0.0000       2.474055        67.3225 
 100   0.0000       2.519797        68.5672 
 101   0.0000       2.532043        68.9004 
 102   0.0000       2.605518        70.8998 
 103   0.0000       2.622674        71.3666 
 104   0.0000       2.636058        71.7308 
 105   0.0000       2.660691        72.4011 
 106   0.0000       2.727055        74.2069 
 107   0.0000       2.741947        74.6122 
 108   0.0000       2.790407        75.9308 
 109   0.0000       2.861662        77.8698 
 110   0.0000       2.882503        78.4369 
 111   0.0000       2.890590        78.6570 
 112   0.0000       2.925311        79.6018 
 113   0.0000       2.952245        80.3347 
 114   0.0000       2.993374        81.4538 
 115   0.0000       3.013390        81.9985 
 116   0.0000       3.107593        84.5619 
 117   0.0000       3.113089        84.7115 
 118   0.0000       3.141699        85.4900 
 119   0.0000       3.194026        86.9139 
 120   0.0000       3.287100        89.4465 
 121   0.0000       3.311254        90.1038 
 122   0.0000       3.393960        92.3543 
 123   0.0000       3.399417        92.5029 
 124   0.0000       3.432044        93.3907 
 125   0.0000       3.489376        94.9507 
 126   0.0000       3.515394        95.6587 
 127   0.0000       3.541485        96.3687 
 128   0.0000       3.580146        97.4207 
 129   0.0000       3.627249        98.7025 
 130   0.0000       3.633393        98.8697 
 131   0.0000       3.673048        99.9487 
 132   0.0000       3.679087       100.1130 
 133   0.0000       3.682603       100.2087 
 134   0.0000       3.985304       108.4456 
 135   0.0000       4.036792       109.8467 
 136   0.0000       4.198963       114.2596 
 137   0.0000       4.259338       115.9025 
 138   0.0000       4.314516       117.4039 
 139   0.0000       4.393292       119.5476 
 140   0.0000       4.437582       120.7527 
 141   0.0000       4.461166       121.3945 
 142   0.0000       4.560281       124.0915 
 143   0.0000       4.586962       124.8176 
 144   0.0000       5.361657       145.8981 
 145   0.0000       5.366779       146.0375 
 146   0.0000       5.438782       147.9968 
 147   0.0000       5.457813       148.5146 
 148   0.0000       5.501347       149.6993 
 149   0.0000       5.603468       152.4781 
 150   0.0000       5.700304       155.1132 
 151   0.0000       5.784143       157.3945 
 152   0.0000       5.854807       159.3174 
 153   0.0000       5.871324       159.7668 
 154   0.0000       5.980023       162.7247 
 155   0.0000       6.014559       163.6645 
 156   0.0000       6.210309       168.9911 
 157   0.0000       6.465573       175.9372 
 158   0.0000       6.529299       177.6713 
 159   0.0000       6.549182       178.2123 
 160   0.0000       6.775291       184.3650 
 161   0.0000       6.782806       184.5695 
 162   0.0000       6.799254       185.0171 
 163   0.0000       6.831997       185.9081 
 164   0.0000       6.999039       190.4535 
 165   0.0000       7.057037       192.0318 
 166   0.0000       7.183466       195.4721 
 167   0.0000       7.267196       197.7504 
 168   0.0000      22.400716       609.5545 
 169   0.0000      22.451613       610.9395 
 170   0.0000      43.652818      1187.8536 
 171   0.0000      43.679634      1188.5833 

                    ********************************
                    * MULLIKEN POPULATION ANALYSIS *
                    ********************************

-----------------------
MULLIKEN ATOMIC CHARGES
-----------------------
   0 C :   -0.179008
   1 O :   -0.452334
   2 H :    0.305678
   3 H :    0.101727
   4 H :    0.100224
   5 H :    0.128315
   6 C :   -0.155716
   7 O :   -0.461701
   8 H :    0.306251
   9 H :    0.095941
  10 H :    0.098147
  11 H :    0.112475
Sum of atomic charges:   -0.0000000

--------------------------------
MULLIKEN REDUCED ORBITAL CHARGES
--------------------------------
  0 C s       :     3.220763  s :     3.220763
      pz      :     0.956722  p :     2.855720
      px      :     0.826577
      py      :     1.072421
      dz2     :     0.033200  d :     0.095543
      dxz     :     0.011180
      dyz     :     0.011639
      dx2y2   :     0.018380
      dxy     :     0.021143
      f0      :     0.000736  f :     0.006982
      f+1     :     0.002133
      f-1     :     0.000471
      f+2     :     0.001037
      f-2     :     0.000746
      f+3     :     0.000797
      f-3     :     0.001062
  1 O s       :     3.826361  s :     3.826361
      pz      :     1.700474  p :     4.593759
      px      :     1.554333
      py      :     1.338952
      dz2     :     0.005194  d :     0.030759
      dxz     :     0.007495
      dyz     :     0.001807
      dx2y2   :     0.011963
      dxy     :     0.004300
      f0      :     0.000219  f :     0.001454
      f+1     :     0.000234
      f-1     :     0.000210
      f+2     :     0.000245
      f-2     :     0.000166
      f+3     :     0.000103
      f-3     :     0.000277
  2 H s       :     0.651358  s :     0.651358
      pz      :     0.014080  p :     0.042964
      px      :     0.011654
      py      :     0.017230
  3 H s       :     0.877840  s :     0.877840
      pz      :     0.011765  p :     0.020433
      px      :     0.003837
      py      :     0.004831
  4 H s       :     0.879971  s :     0.879971
      pz      :     0.004561  p :     0.019805
      px      :     0.008955
      py      :     0.006289
  5 H s       :     0.851089  s :     0.851089
      pz      :     0.004032  p :     0.020596
      px      :     0.003636
      py      :     0.012928
  6 C s       :     3.215221  s :     3.215221
      pz      :     0.869264  p :     2.831291
      px      :     0.888278
      py      :     1.073750
      dz2     :     0.031031  d :     0.101373
      dxz     :     0.014637
      dyz     :     0.012331
      dx2y2   :     0.011568
      dxy     :     0.031806
      f0      :     0.000888  f :     0.007830
      f+1     :     0.002383
      f-1     :     0.000327
      f+2     :     0.000960
      f-2     :     0.001706
      f+3     :     0.000982
      f-3     :     0.000584
  7 O s       :     3.777535  s :     3.777535
      pz      :     1.601802  p :     4.652222
      px      :     1.364624
      py      :     1.685796
      dz2     :     0.006393  d :     0.030150
      dxz     :     0.009988
      dyz     :     0.004930
      dx2y2   :     0.002209
      dxy     :     0.006630
      f0      :     0.000219  f :     0.001795
      f+1     :     0.000221
      f-1     :     0.000035
      f+2     :     0.000247
      f-2     :     0.000393
      f+3     :     0.000253
      f-3     :     0.000426
  8 H s       :     0.642021  s :     0.642021
      pz      :     0.014186  p :     0.051728
      px      :     0.018257
      py      :     0.019285
  9 H s       :     0.884781  s :     0.884781
      pz      :     0.003274  p :     0.019278
      px      :     0.007053
      py      :     0.008950
 10 H s       :     0.882147  s :     0.882147
      pz      :     0.010369  p :     0.019706
      px      :     0.004954
      py      :     0.004383
 11 H s       :     0.867694  s :     0.867694
      pz      :     0.003332  p :     0.019831
      px      :     0.007096
      py      :     0.009402


                     *******************************
                     * LOEWDIN POPULATION ANALYSIS *
                     *******************************

----------------------
LOEWDIN ATOMIC CHARGES
----------------------
   0 C :   -0.369655
   1 O :   -0.105297
   2 H :    0.191707
   3 H :    0.091192
   4 H :    0.092795
   5 H :    0.105182
   6 C :   -0.394546
   7 O :   -0.051061
   8 H :    0.148951
   9 H :    0.093679
  10 H :    0.089899
  11 H :    0.107154

-------------------------------
LOEWDIN REDUCED ORBITAL CHARGES
-------------------------------
  0 C s       :     2.858750  s :     2.858750
      pz      :     1.026478  p :     3.061723
      px      :     0.940957
      py      :     1.094289
      dz2     :     0.132083  d :     0.397057
      dxz     :     0.075027
      dyz     :     0.030517
      dx2y2   :     0.090599
      dxy     :     0.068831
      f0      :     0.004451  f :     0.052125
      f+1     :     0.011868
      f-1     :     0.005376
      f+2     :     0.009823
      f-2     :     0.008047
      f+3     :     0.005475
      f-3     :     0.007086
  1 O s       :     3.421376  s :     3.421376
      pz      :     1.667239  p :     4.613483
      px      :     1.588442
      py      :     1.357802
      dz2     :     0.012527  d :     0.066212
      dxz     :     0.015331
      dyz     :     0.005572
      dx2y2   :     0.024005
      dxy     :     0.008776
      f0      :     0.000404  f :     0.004226
      f+1     :     0.000771
      f-1     :     0.000429
      f+2     :     0.000581
      f-2     :     0.000548
      f+3     :     0.000551
      f-3     :     0.000941
  2 H s       :     0.669151  s :     0.669151
      pz      :     0.035267  p :     0.139142
      px      :     0.032397
      py      :     0.071478
  3 H s       :     0.844795  s :     0.844795
      pz      :     0.035479  p :     0.064014
      px      :     0.012151
      py      :     0.016384
  4 H s       :     0.844588  s :     0.844588
      pz      :     0.014608  p :     0.062617
      px      :     0.027980
      py      :     0.020029
  5 H s       :     0.832240  s :     0.832240
      pz      :     0.012486  p :     0.062578
      px      :     0.011538
      py      :     0.038553
  6 C s       :     2.859167  s :     2.859167
      pz      :     0.973955  p :     3.056601
      px      :     0.973727
      py      :     1.108919
      dz2     :     0.122757  d :     0.420539
      dxz     :     0.097096
      dyz     :     0.040267
      dx2y2   :     0.038883
      dxy     :     0.121536
      f0      :     0.005287  f :     0.058239
      f+1     :     0.015761
      f-1     :     0.004703
      f+2     :     0.011904
      f-2     :     0.009794
      f+3     :     0.006943
      f-3     :     0.003846
  7 O s       :     3.342119  s :     3.342119
      pz      :     1.616658  p :     4.631532
      px      :     1.383002
      py      :     1.631873
      dz2     :     0.016189  d :     0.072585
      dxz     :     0.021475
      dyz     :     0.008837
      dx2y2   :     0.007232
      dxy     :     0.018852
      f0      :     0.000820  f :     0.004825
      f+1     :     0.000833
      f-1     :     0.000146
      f+2     :     0.000667
      f-2     :     0.001228
      f+3     :     0.000400
      f-3     :     0.000732
  8 H s       :     0.679564  s :     0.679564
      pz      :     0.048386  p :     0.171485
      px      :     0.057104
      py      :     0.065995
  9 H s       :     0.848340  s :     0.848340
      pz      :     0.010179  p :     0.057981
      px      :     0.020365
      py      :     0.027437
 10 H s       :     0.847506  s :     0.847506
      pz      :     0.031457  p :     0.062594
      px      :     0.016040
      py      :     0.015097
 11 H s       :     0.834139  s :     0.834139
      pz      :     0.010970  p :     0.058707
      px      :     0.019513
      py      :     0.028225


                      *****************************
                      * MAYER POPULATION ANALYSIS *
                      *****************************

  NA   - Mulliken gross atomic population
  ZA   - Total nuclear charge
  QA   - Mulliken gross atomic charge
  VA   - Mayer's total valence
  BVA  - Mayer's bonded valence
  FA   - Mayer's free valence

  ATOM       NA         ZA         QA         VA         BVA        FA
  0 C      6.1790     6.0000    -0.1790     3.9424     3.9424    -0.0000
  1 O      8.4523     8.0000    -0.4523     1.9055     1.9055    -0.0000
  2 H      0.6943     1.0000     0.3057     0.9145     0.9145    -0.0000
  3 H      0.8983     1.0000     0.1017     0.9507     0.9507    -0.0000
  4 H      0.8998     1.0000     0.1002     0.9569     0.9569    -0.0000
  5 H      0.8717     1.0000     0.1283     0.9630     0.9630     0.0000
  6 C      6.1557     6.0000    -0.1557     3.9415     3.9415     0.0000
  7 O      8.4617     8.0000    -0.4617     1.9011     1.9011    -0.0000
  8 H      0.6937     1.0000     0.3063     0.9217     0.9217    -0.0000
  9 H      0.9041     1.0000     0.0959     0.9602     0.9602    -0.0000
 10 H      0.9019     1.0000     0.0981     0.9640     0.9640     0.0000
 11 H      0.8875     1.0000     0.1125     0.9611     0.9611    -0.0000

  Mayer bond orders larger than 0.1
B(  0-C ,  1-O ) :   1.0026 B(  0-C ,  3-H ) :   0.9704 B(  0-C ,  4-H ) :   0.9805 
B(  0-C ,  5-H ) :   0.9759 B(  1-O ,  2-H ) :   0.9022 B(  6-C ,  7-O ) :   1.0027 
B(  6-C ,  9-H ) :   0.9690 B(  6-C , 10-H ) :   0.9860 B(  6-C , 11-H ) :   0.9756 
B(  7-O ,  8-H ) :   0.9069 

-------
TIMINGS
-------

Total SCF time: 0 days 0 hours 0 min 17 sec 

Total time                  ....      17.370 sec
Sum of individual times     ....      16.961 sec  ( 97.6%)

Fock matrix formation       ....      16.312 sec  ( 93.9%)
  XC integration            ....       7.695 sec  ( 47.2% of F)
    Basis function eval.    ....       0.057 sec  (  0.7% of XC)
    Density eval.           ....       0.088 sec  (  1.1% of XC)
    XC-Functional eval.     ....       0.133 sec  (  1.7% of XC)
    XC-Potential eval.      ....       0.065 sec  (  0.8% of XC)
Diagonalization             ....       0.068 sec  (  0.4%)
Density matrix formation    ....       0.006 sec  (  0.0%)
Population analysis         ....       0.020 sec  (  0.1%)
Initial guess               ....       0.096 sec  (  0.6%)
Orbital Transformation      ....       0.000 sec  (  0.0%)
Orbital Orthonormalization  ....       0.000 sec  (  0.0%)
DIIS solution               ....       0.041 sec  (  0.2%)
SOSCF solution              ....       0.095 sec  (  0.5%)
Grid generation             ....       0.324 sec  (  1.9%)


-------------------------------------------------------------------------------
                          DFT DISPERSION CORRECTION                            
                                                                               
                              DFTD3 V3.1  Rev 1                                
                              USING zero damping                               
-------------------------------------------------------------------------------
The omegaB97X-D3 functional is recognized. Fit by Chai et al.
Active option DFTDOPT                   ...         3   

molecular C6(AA) [au] = 834.833384 


            DFT-D V3
 parameters
 s6 scaling factor         :     1.0000 
 rs6 scaling factor        :     1.2810 
 s8 scaling factor         :     1.0000 
 rs8 scaling factor        :     1.0940 
 Damping factor alpha6     :    14.0000 
 Damping factor alpha8     :    16.0000 
 ad hoc parameters k1-k3   :    16.0000     1.3333    -4.0000 

 Edisp/kcal,au: -0.850209319653  -0.001354894650 
 E6   /kcal   :  -0.432811963 
 E8   /kcal   :  -0.417397357 
 % E8         :  49.093481689 

-------------------------   ----------------
Dispersion correction           -0.001354895
-------------------------   ----------------


-------------------------   --------------------
FINAL SINGLE POINT ENERGY      -231.463035759261
-------------------------   --------------------


                            ***************************************
                            *     ORCA property calculations      *
                            ***************************************

                                    ---------------------
                                    Active property flags
                                    ---------------------
   (+) Dipole Moment


------------------------------------------------------------------------------
                       ORCA ELECTRIC PROPERTIES CALCULATION
------------------------------------------------------------------------------

Dipole Moment Calculation                       ... on
Quadrupole Moment Calculation                   ... off
Polarizability Calculation                      ... off
GBWName                                         ... 12-108_DFT_AB.gbw
Electron density file                           ... 12-108_DFT_AB.scfp.tmp
The origin for moment calculation is the CENTER OF MASS  = ( 4.298651, 11.399738 15.780208)

-------------
DIPOLE MOMENT
-------------
                                X             Y             Z
Electronic contribution:      2.77172      -0.17845      -0.30118
Nuclear contribution   :     -3.26821      -0.62049       0.58778
                        -----------------------------------------
Total Dipole Moment    :     -0.49649      -0.79894       0.28661
                        -----------------------------------------
Magnitude (a.u.)       :      0.98334
Magnitude (Debye)      :      2.49945



--------------------
Rotational spectrum 
--------------------
 
Rotational constants in cm-1:     0.504977     0.061474     0.058932 
Rotational constants in MHz : 15138.839578  1842.950569  1766.744546 

 Dipole components along the rotational axes: 
x,y,z [a.u.] :     0.449006    -0.259335     0.835521 
x,y,z [Debye]:     1.141284    -0.659178     2.123726 

 
------------------------------------------------------------------------------
                      ORCA CHELPG CHARGES GENERATION
------------------------------------------------------------------------------

GBW file                           ... 12-108_DFT_AB.gbw

Reading the GBW file               ... done

Grid spacing                       ...     0.300000
Point Cut-Off                      ...     2.800000
Van-der-Waals Radii                ...        COSMO
Total charge                       ...            0


Number of points X direction       ...           34
Number of points Y direction       ...           32
Number of points Z direction       ...           37
Maximum number of possible points  ...        40256
Final number of points             ...        10659


CHELPG Charges            
--------------------------------
  0   C   :      -0.012601
  1   O   :      -0.528440
  2   H   :       0.371130
  3   H   :       0.039687
  4   H   :       0.031249
  5   H   :       0.109307
  6   C   :       0.261375
  7   O   :      -0.628104
  8   H   :       0.401343
  9   H   :      -0.037354
 10   H   :      -0.042843
 11   H   :       0.035251
--------------------------------
Total charge:    -0.000000
--------------------------------

CHELPG charges calculated...

Timings for individual parts in CHELPG calculation:
Grid generation                 ...        0.002 sec (=   0.000 min)
Potential calculation           ...        2.204 sec (=   0.037 min)
Fit to the potential            ...        0.004 sec (=   0.000 min)
------------------------------------------------------------------------------


Timings for individual modules:

Sum of individual times         ...       27.258 sec (=   0.454 min)
GTO integral calculation        ...        5.920 sec (=   0.099 min)  21.7 %
SCF iterations                  ...       19.097 sec (=   0.318 min)  70.1 %
CHELPG charge generation        ...        2.242 sec (=   0.037 min)   8.2 %


                 $$$$$$$$$$$$$$$$  JOB NUMBER  2 $$$$$$$$$$$$$$


                       ****************************
                       * Single Point Calculation *
                       ****************************

---------------------------------
CARTESIAN COORDINATES (ANGSTROEM)
---------------------------------
  C      0.660958    5.234501    6.568248
  O      1.793988    4.917370    7.403906
  H      1.654328    3.934204    7.551554
  H      0.805839    4.909714    5.553898
  H     -0.204570    4.628391    6.807331
  H      0.475641    6.293078    6.607980
  C      2.788778    7.113822   10.181854
  O      3.801655    6.976364    9.220775
  H      4.465584    6.400968    9.529224
  H      2.109126    6.241315   10.280435
  H      3.263922    7.233564   11.141851
  H      2.128043    7.959936    9.959660

----------------------------
CARTESIAN COORDINATES (A.U.)
----------------------------
  NO LB      ZA    FRAG     MASS         X           Y           Z
   0 C     6.0000    0    12.011    1.249030    9.891773   12.412190
   1 O     8.0000    0    15.999    3.390146    9.292483   13.991355
   2 H     1.0000    0     1.008    3.126227    7.434568   14.270369
   3 H     1.0000    0     1.008    1.522815    9.278015   10.495346
   4 H     1.0000    0     1.008   -0.386581    8.746391   12.863991
   5 H     1.0000    0     1.008    0.898831   11.892194   12.487272
   6 C     0.0000    0     0.000    5.270027   13.443175   19.240916
   7 O     0.0000    0     0.000    7.184087   13.183417   17.424739
   8 H     0.0000    0     0.000    8.438731   12.096077   18.007624
   9 H     0.0000    0     0.000    3.985671   11.794376   19.427207
  10 H     0.0000    0     0.000    6.167919   13.669455   21.055047
  11 H     0.0000    0     0.000    4.021418   15.042099   18.821030

--------------------------------
INTERNAL COORDINATES (ANGSTROEM)
--------------------------------
 C      0   0   0     0.000000000000     0.00000000     0.00000000
 O      1   0   0     1.443140098890     0.00000000     0.00000000
 H      2   1   0     1.003952305172   101.01950891     0.00000000
 H      1   2   3     1.074887446215   111.97611835   283.33218375
 H      1   2   3     1.083359927159   112.11808407    32.90443541
 H      1   2   3     1.075409822924   109.28151836   160.14798894
 C      2   1   3     3.678451253328   121.22550943   223.34688520
 O      7   2   1     1.403027926712    67.63055937   240.53665920
 H      8   7   2     0.931140730211   110.38816606   256.21157750
 H      7   2   1     1.110366389852    55.41089571    93.07904732
 H      7   2   1     1.077819190453   149.11472860   153.41714927
 H      7   2   1     1.096289110982    98.32549233   350.79189985

---------------------------
INTERNAL COORDINATES (A.U.)
---------------------------
 C      0   0   0     0.000000000000     0.00000000     0.00000000
 O      1   0   0     2.727139559783     0.00000000     0.00000000
 H      2   1   0     1.897194908294   101.01950891     0.00000000
 H      1   2   3     2.031242898136   111.97611835   283.33218375
 H      1   2   3     2.047253566795   112.11808407    32.90443541
 H      1   2   3     2.032230047056   109.28151836   160.14798894
 C      2   1   3     6.951265465769   121.22550943   223.34688520
 O      7   2   1     2.651338539729    67.63055937   240.53665920
 H      8   7   2     1.759600972238   110.38816606   256.21157750
 H      7   2   1     2.098288385132    55.41089571    93.07904732
 H      7   2   1     2.036783091841   149.11472860   153.41714927
 H      7   2   1     2.071686183355    98.32549233   350.79189985

---------------------
BASIS SET INFORMATION
---------------------
There are 3 groups of distinct atoms

 Group   1 Type C   : 11s6p2d1f contracted to 5s3p2d1f pattern {62111/411/11/1}
 Group   2 Type O   : 11s6p2d1f contracted to 5s3p2d1f pattern {62111/411/11/1}
 Group   3 Type H   : 5s1p contracted to 3s1p pattern {311/1}

Atom   0C    basis set group =>   1
Atom   1O    basis set group =>   2
Atom   2H    basis set group =>   3
Atom   3H    basis set group =>   3
Atom   4H    basis set group =>   3
Atom   5H    basis set group =>   3
Atom   6C    basis set group =>   1
Atom   7O    basis set group =>   2
Atom   8H    basis set group =>   3
Atom   9H    basis set group =>   3
Atom  10H    basis set group =>   3
Atom  11H    basis set group =>   3


           ************************************************************
           *        Program running with 8 parallel MPI-processes     *
           *              working on a common directory               *
           ************************************************************
------------------------------------------------------------------------------
                           ORCA GTO INTEGRAL CALCULATION
------------------------------------------------------------------------------

                         BASIS SET STATISTICS AND STARTUP INFO

 # of primitive gaussian shells          ...  128
 # of primitive gaussian functions       ...  248
 # of contracted shells                  ...   76
 # of contracted basis functions         ...  172
 Highest angular momentum                ...    3
 Maximum contraction depth               ...    6
 Integral package used                   ... LIBINT
 Integral threshhold            Thresh   ...  2.500e-11
 Primitive cut-off              TCut     ...  2.500e-12


------------------------------ INTEGRAL EVALUATION ----------------------------


 * One electron integrals 
 Pre-screening matrix                    ... done
 Shell pair data                         ... done (   0.001 sec)



           ************************************************************
           *        Program running with 8 parallel MPI-processes     *
           *              working on a common directory               *
           ************************************************************
-------------------------------------------------------------------------------
                                 ORCA SCF
-------------------------------------------------------------------------------

------------
SCF SETTINGS
------------
Hamiltonian:
 Density Functional     Method          .... DFT(GTOs)
 Exchange Functional    Exchange        .... WB97X-D3
 Correlation Functional Correlation     .... WB97X-D3
 Gradients option       PostSCFGGA      .... off
 Hybrid DFT is turned on
   Fraction HF Exchange ScalHFX         ....  0.195728
   Scaling of DF-GGA-X  ScalDFX         ....  0.000000
   Scaling of DF-GGA-C  ScalDFC         ....  1.000000
   Scaling of DF-LDA-C  ScalLDAC        ....  1.000000
   Perturbative correction              ....  0.000000
   Density functional embedding theory  .... OFF
 Long-range corrected/Screened/Range-Separated Hybrid DFT is turned on
   Amount of maximum screened exact exchange              ....  0.804272
   Range separation parameter mu (erf(mu*r12)/r12)        ....  0.250000


General Settings:
 Integral files         IntName         .... 12-108_DFT_A
 Hartree-Fock type      HFTyp           .... RHF
 Total Charge           Charge          ....    0
 Multiplicity           Mult            ....    1
 Number of Electrons    NEL             ....   18
 Basis Dimension        Dim             ....  172
 Nuclear Repulsion      ENuc            ....     39.9730920524 Eh

Convergence Acceleration:
 DIIS                   CNVDIIS         .... on
   Start iteration      DIISMaxIt       ....    12
   Startup error        DIISStart       ....  0.200000
   # of expansion vecs  DIISMaxEq       ....     5
   Bias factor          DIISBfac        ....   1.050
   Max. coefficient     DIISMaxC        ....  10.000
 Newton-Raphson         CNVNR           .... off
 SOSCF                  CNVSOSCF        .... on
   Start iteration      SOSCFMaxIt      ....   150
   Startup grad/error   SOSCFStart      ....  0.003300
 Level Shifting         CNVShift        .... on
   Level shift para.    LevelShift      ....    0.2500
   Turn off err/grad.   ShiftErr        ....    0.0010
 Zerner damping         CNVZerner       .... off
 Static damping         CNVDamp         .... on
   Fraction old density DampFac         ....    0.7000
   Max. Damping (<1)    DampMax         ....    0.9800
   Min. Damping (>=0)   DampMin         ....    0.0000
   Turn off err/grad.   DampErr         ....    0.1000
 Fernandez-Rico         CNVRico         .... off

SCF Procedure:
 Maximum # iterations   MaxIter         ....  1000
 SCF integral mode      SCFMode         .... Direct
   Integral package                     .... LIBINT
 Reset frequency        DirectResetFreq ....    20
 Integral Threshold     Thresh          ....  2.500e-11 Eh
 Primitive CutOff       TCut            ....  2.500e-12 Eh

Convergence Tolerance:
 Convergence Check Mode ConvCheckMode   .... Total+1el-Energy
 Convergence forced     ConvForced      .... 0
 Energy Change          TolE            ....  1.000e-08 Eh
 1-El. energy change                    ....  1.000e-05 Eh
 Orbital Gradient       TolG            ....  1.000e-05
 Orbital Rotation angle TolX            ....  1.000e-05
 DIIS Error             TolErr          ....  5.000e-07


Diagonalization of the overlap matrix:
Smallest eigenvalue                        ... 1.563e-03
Time for diagonalization                   ...    0.004 sec
Threshold for overlap eigenvalues          ... 1.000e-08
Number of eigenvalues below threshold      ... 0
Time for construction of square roots      ...    0.006 sec
Total time needed                          ...    0.010 sec

-------------------
DFT GRID GENERATION
-------------------

General Integration Accuracy     IntAcc      ...  4.340
Radial Grid Type                 RadialGrid  ... Gauss-Chebyshev
Angular Grid (max. acc.)         AngularGrid ... Lebedev-110
Angular grid pruning method      GridPruning ... 3 (G Style)
Weight generation scheme         WeightScheme... Becke
Basis function cutoff            BFCut       ...    1.0000e-11
Integration weight cutoff        WCut        ...    1.0000e-14
Grids for H and He will be reduced by one unit

# of grid points (after initial pruning)     ...  13096 (   0.0 sec)
# of grid points (after weights+screening)   ...  12548 (   0.0 sec)
nearest neighbour list constructed           ...    0.0 sec
Grid point re-assignment to atoms done       ...    0.0 sec
Grid point division into batches done        ...    0.0 sec
Reduced shell lists constructed in    0.0 sec

Total number of grid points                  ...    12548
Total number of batches                      ...      201
Average number of points per batch           ...       62
Average number of grid points per atom       ...     1046
Average number of shells per batch           ...    54.93 (72.27%)
Average number of basis functions per batch  ...   123.07 (71.55%)
Average number of large shells per batch     ...    46.15 (84.02%)
Average number of large basis fcns per batch ...   103.70 (84.26%)
Maximum spatial batch extension              ...   6.80,  5.85,  5.21 au
Average spatial batch extension              ...   0.24,  0.24,  0.23 au

Time for grid setup =    0.038 sec

------------------------------
INITIAL GUESS: MODEL POTENTIAL
------------------------------
Loading Hartree-Fock densities                     ... done
Calculating cut-offs                               ... done
Setting up the integral package                    ... done
Initializing the effective Hamiltonian             ... done
Starting the Coulomb interaction                   ... done (   0.0 sec)
Reading the grid                                   ... done
Mapping shells                                     ... done
Starting the XC term evaluation                    ... done (   0.0 sec)
  promolecular density results
     # of electrons  =     17.997461784
     EX              =    -14.420139212
     EC              =     -0.574425406
     EX+EC           =    -14.994564617
Transforming the Hamiltonian                       ... done (   0.0 sec)
Diagonalizing the Hamiltonian                      ... done (   0.0 sec)
Back transforming the eigenvectors                 ... done (   0.0 sec)
Now organizing SCF variables                       ... done
                      ------------------
                      INITIAL GUESS DONE (   0.1 sec)
                      ------------------
--------------
SCF ITERATIONS
--------------
ITER       Energy         Delta-E        Max-DP      RMS-DP      [F,P]     Damp
               ***  Starting incremental Fock matrix formation  ***
  0   -115.6450907310   0.000000000000 0.03522698  0.00075213  0.2449679 0.7000
  1   -115.6810521787  -0.035961447730 0.02174624  0.00053728  0.1237996 0.7000
                               ***Turning on DIIS***
  2   -115.6976774188  -0.016625240118 0.03420895  0.00097339  0.0520669 0.0000
  3   -115.7248117637  -0.027134344859 0.01609577  0.00035569  0.0562334 0.0000
  4   -115.7291816868  -0.004369923066 0.00410205  0.00007017  0.0063658 0.0000
                      *** Initiating the SOSCF procedure ***
                           *** Shutting down DIIS ***
                      *** Re-Reading the Fockian *** 
                      *** Removing any level shift *** 
ITER      Energy       Delta-E        Grad      Rot      Max-DP    RMS-DP
  5   -115.72928311  -0.0001014273  0.000436  0.000436  0.000767  0.000024
               *** Restarting incremental Fock matrix formation ***
  6   -115.72929223  -0.0000091159  0.000149  0.000162  0.000427  0.000014
  7   -115.72929309  -0.0000008588  0.000045  0.000088  0.000202  0.000006
  8   -115.72929316  -0.0000000734  0.000015  0.000014  0.000029  0.000001
  9   -115.72929317  -0.0000000051  0.000009  0.000007  0.000014  0.000000
                  ***Gradient check signals convergence***
              ***Rediagonalizing the Fockian in SOSCF/NRSCF***

               *****************************************************
               *                     SUCCESS                       *
               *           SCF CONVERGED AFTER  10 CYCLES          *
               *****************************************************

Setting up the final grid:

General Integration Accuracy     IntAcc      ...  4.670
Radial Grid Type                 RadialGrid  ... Gauss-Chebyshev
Angular Grid (max. acc.)         AngularGrid ... Lebedev-302
Angular grid pruning method      GridPruning ... 3 (G Style)
Weight generation scheme         WeightScheme... Becke
Basis function cutoff            BFCut       ...    1.0000e-11
Integration weight cutoff        WCut        ...    1.0000e-14
Grids for H and He will be reduced by one unit

# of grid points (after initial pruning)     ...  52000 (   0.0 sec)
# of grid points (after weights+screening)   ...  49346 (   0.0 sec)
nearest neighbour list constructed           ...    0.0 sec
Grid point re-assignment to atoms done       ...    0.0 sec
Grid point division into batches done        ...    0.2 sec
Reduced shell lists constructed in    0.2 sec

Total number of grid points                  ...    49346
Total number of batches                      ...      778
Average number of points per batch           ...       63
Average number of grid points per atom       ...     4112
Average number of shells per batch           ...    54.00 (71.05%)
Average number of basis functions per batch  ...   120.48 (70.05%)
Average number of large shells per batch     ...    44.45 (82.32%)
Average number of large basis fcns per batch ...    99.51 (82.59%)
Maximum spatial batch extension              ...   8.28,  4.75,  6.84 au
Average spatial batch extension              ...   0.16,  0.15,  0.16 au

Final grid set up in    0.3 sec
Final integration                            ... done (   0.1 sec)
Change in XC energy                          ...    -0.000456205
Integrated number of electrons               ...    17.999990398
Previous integrated no of electrons          ...    17.999731660

----------------
TOTAL SCF ENERGY
----------------

Total Energy       :         -115.72974937 Eh           -3149.16658 eV

Components:
Nuclear Repulsion  :           39.97309205 Eh            1087.72313 eV
Electronic Energy  :         -155.70284143 Eh           -4236.88971 eV
One Electron Energy:         -236.38031511 Eh           -6432.23538 eV
Two Electron Energy:           80.67747368 Eh            2195.34567 eV

Virial components:
Potential Energy   :         -230.93218798 Eh           -6283.98431 eV
Kinetic Energy     :          115.20243861 Eh            3134.81773 eV
Virial Ratio       :            2.00457725


DFT components:
N(Alpha)           :        8.999995199098 electrons
N(Beta)            :        8.999995199098 electrons
N(Total)           :       17.999990398196 electrons
E(XC)              :      -10.641214919234 Eh       
DFET-embed. en.    :        0.000000000000 Eh       

---------------
SCF CONVERGENCE
---------------

  Last Energy change         ...   -2.3829e-09  Tolerance :   1.0000e-08
  Last MAX-Density change    ...    3.3754e-06  Tolerance :   1.0000e-07
  Last RMS-Density change    ...    9.3465e-08  Tolerance :   5.0000e-09
  Last Orbital Gradient      ...    1.7116e-06  Tolerance :   1.0000e-05
  Last Orbital Rotation      ...    2.1883e-06  Tolerance :   1.0000e-05

             **** THE GBW FILE WAS UPDATED (12-108_DFT_A.gbw) ****
             **** DENSITY FILE WAS UPDATED (12-108_DFT_A.scfp.tmp) ****
             **** ENERGY FILE WAS UPDATED (12-108_DFT_A.en.tmp) ****
----------------
ORBITAL ENERGIES
----------------

  NO   OCC          E(Eh)            E(eV) 
   0   2.0000     -19.236449      -523.4504 
   1   2.0000     -10.310479      -280.5624 
   2   2.0000      -1.124190       -30.5908 
   3   2.0000      -0.795959       -21.6592 
   4   2.0000      -0.608894       -16.5688 
   5   2.0000      -0.531098       -14.4519 
   6   2.0000      -0.522795       -14.2260 
   7   2.0000      -0.450616       -12.2619 
   8   2.0000      -0.371229       -10.1017 
   9   0.0000       0.093400         2.5415 
  10   0.0000       0.116291         3.1644 
  11   0.0000       0.152254         4.1431 
  12   0.0000       0.177117         4.8196 
  13   0.0000       0.190042         5.1713 
  14   0.0000       0.204601         5.5675 
  15   0.0000       0.221955         6.0397 
  16   0.0000       0.224881         6.1193 
  17   0.0000       0.233029         6.3411 
  18   0.0000       0.286112         7.7855 
  19   0.0000       0.301228         8.1968 
  20   0.0000       0.313890         8.5414 
  21   0.0000       0.343574         9.3491 
  22   0.0000       0.352208         9.5841 
  23   0.0000       0.372750        10.1431 
  24   0.0000       0.404428        11.0050 
  25   0.0000       0.446698        12.1553 
  26   0.0000       0.465465        12.6659 
  27   0.0000       0.475847        12.9485 
  28   0.0000       0.513354        13.9691 
  29   0.0000       0.537396        14.6233 
  30   0.0000       0.562520        15.3069 
  31   0.0000       0.564686        15.3659 
  32   0.0000       0.597578        16.2609 
  33   0.0000       0.620882        16.8951 
  34   0.0000       0.638069        17.3627 
  35   0.0000       0.668439        18.1891 
  36   0.0000       0.678084        18.4516 
  37   0.0000       0.723074        19.6758 
  38   0.0000       0.771648        20.9976 
  39   0.0000       0.818826        22.2814 
  40   0.0000       0.823930        22.4203 
  41   0.0000       0.836580        22.7645 
  42   0.0000       0.871591        23.7172 
  43   0.0000       0.946758        25.7626 
  44   0.0000       0.995280        27.0829 
  45   0.0000       1.033315        28.1179 
  46   0.0000       1.067365        29.0445 
  47   0.0000       1.119161        30.4539 
  48   0.0000       1.173085        31.9213 
  49   0.0000       1.177408        32.0389 
  50   0.0000       1.218095        33.1460 
  51   0.0000       1.224274        33.3142 
  52   0.0000       1.247424        33.9441 
  53   0.0000       1.367295        37.2060 
  54   0.0000       1.385599        37.7041 
  55   0.0000       1.410421        38.3795 
  56   0.0000       1.469554        39.9886 
  57   0.0000       1.475252        40.1437 
  58   0.0000       1.545824        42.0640 
  59   0.0000       1.552741        42.2522 
  60   0.0000       1.575616        42.8747 
  61   0.0000       1.632959        44.4351 
  62   0.0000       1.657301        45.0974 
  63   0.0000       1.705251        46.4022 
  64   0.0000       1.708186        46.4821 
  65   0.0000       1.814684        49.3800 
  66   0.0000       1.854216        50.4558 
  67   0.0000       1.928432        52.4753 
  68   0.0000       1.957591        53.2688 
  69   0.0000       1.997694        54.3600 
  70   0.0000       2.007174        54.6180 
  71   0.0000       2.057659        55.9918 
  72   0.0000       2.079485        56.5857 
  73   0.0000       2.118636        57.6510 
  74   0.0000       2.159963        58.7756 
  75   0.0000       2.204409        59.9850 
  76   0.0000       2.218302        60.3631 
  77   0.0000       2.229595        60.6704 
  78   0.0000       2.249025        61.1991 
  79   0.0000       2.318524        63.0903 
  80   0.0000       2.344933        63.8089 
  81   0.0000       2.363118        64.3037 
  82   0.0000       2.406124        65.4740 
  83   0.0000       2.471008        67.2396 
  84   0.0000       2.503053        68.1115 
  85   0.0000       2.519544        68.5603 
  86   0.0000       2.601924        70.8019 
  87   0.0000       2.619004        71.2667 
  88   0.0000       2.632073        71.6224 
  89   0.0000       2.670987        72.6813 
  90   0.0000       2.681048        72.9550 
  91   0.0000       2.723059        74.0982 
  92   0.0000       2.790596        75.9360 
  93   0.0000       2.861090        77.8542 
  94   0.0000       2.880149        78.3728 
  95   0.0000       2.909671        79.1762 
  96   0.0000       2.943370        80.0932 
  97   0.0000       2.980872        81.1136 
  98   0.0000       3.008800        81.8736 
  99   0.0000       3.097232        84.2800 
 100   0.0000       3.125916        85.0605 
 101   0.0000       3.148063        85.6632 
 102   0.0000       3.203716        87.1776 
 103   0.0000       3.230560        87.9080 
 104   0.0000       3.304363        89.9163 
 105   0.0000       3.321590        90.3851 
 106   0.0000       3.388822        92.2145 
 107   0.0000       3.402805        92.5950 
 108   0.0000       3.426604        93.2426 
 109   0.0000       3.431904        93.3869 
 110   0.0000       3.510791        95.5335 
 111   0.0000       3.575827        97.3032 
 112   0.0000       3.623426        98.5984 
 113   0.0000       3.628791        98.7444 
 114   0.0000       3.674627        99.9917 
 115   0.0000       3.694077       100.5210 
 116   0.0000       3.763545       102.4113 
 117   0.0000       3.980551       108.3163 
 118   0.0000       4.110135       111.8425 
 119   0.0000       4.166029       113.3634 
 120   0.0000       4.195122       114.1551 
 121   0.0000       4.292992       116.8183 
 122   0.0000       4.316994       117.4714 
 123   0.0000       4.374645       119.0401 
 124   0.0000       4.387618       119.3932 
 125   0.0000       4.456449       121.2662 
 126   0.0000       4.536188       123.4359 
 127   0.0000       4.553316       123.9020 
 128   0.0000       4.570844       124.3790 
 129   0.0000       4.585428       124.7758 
 130   0.0000       4.607835       125.3856 
 131   0.0000       5.065240       137.8322 
 132   0.0000       5.094591       138.6309 
 133   0.0000       5.106739       138.9614 
 134   0.0000       5.356066       145.7460 
 135   0.0000       5.435575       147.9095 
 136   0.0000       5.455629       148.4552 
 137   0.0000       5.479520       149.1053 
 138   0.0000       5.496449       149.5660 
 139   0.0000       5.694710       154.9609 
 140   0.0000       5.778757       157.2480 
 141   0.0000       5.813291       158.1877 
 142   0.0000       5.972729       162.5262 
 143   0.0000       5.975308       162.5964 
 144   0.0000       6.025705       163.9678 
 145   0.0000       6.205070       168.8485 
 146   0.0000       6.523644       177.5174 
 147   0.0000       6.628032       180.3579 
 148   0.0000       6.718984       182.8328 
 149   0.0000       6.777486       184.4248 
 150   0.0000       6.794827       184.8966 
 151   0.0000       6.917541       188.2359 
 152   0.0000       6.993064       190.2909 
 153   0.0000       7.177325       195.3050 
 154   0.0000       7.193037       195.7325 
 155   0.0000       7.286317       198.2708 
 156   0.0000       7.488934       203.7843 
 157   0.0000       8.292109       225.6398 
 158   0.0000       8.928904       242.9678 
 159   0.0000       9.359360       254.6811 
 160   0.0000       9.579181       260.6628 
 161   0.0000       9.601646       261.2741 
 162   0.0000       9.813788       267.0467 
 163   0.0000       9.886567       269.0272 
 164   0.0000       9.970499       271.3111 
 165   0.0000      10.089455       274.5480 
 166   0.0000      11.192178       304.5546 
[...]
  82   0.0000       2.434265        66.2397 
  83   0.0000       2.456490        66.8445 
  84   0.0000       2.510517        68.3146 
  85   0.0000       2.553666        69.4888 
  86   0.0000       2.570953        69.9592 
  87   0.0000       2.591860        70.5281 
  88   0.0000       2.643210        71.9254 
  89   0.0000       2.673951        72.7619 
  90   0.0000       2.698096        73.4189 
  91   0.0000       2.731302        74.3225 
  92   0.0000       2.790387        75.9303 
  93   0.0000       2.868629        78.0594 
  94   0.0000       2.882634        78.4405 
  95   0.0000       2.891940        78.6937 
  96   0.0000       2.939637        79.9916 
  97   0.0000       2.992585        81.4324 
  98   0.0000       3.057108        83.1881 
  99   0.0000       3.096019        84.2470 
 100   0.0000       3.121025        84.9274 
 101   0.0000       3.174840        86.3918 
 102   0.0000       3.207159        87.2712 
 103   0.0000       3.260082        88.7113 
 104   0.0000       3.277781        89.1929 
 105   0.0000       3.291921        89.5777 
 106   0.0000       3.341242        90.9198 
 107   0.0000       3.368738        91.6680 
 108   0.0000       3.387026        92.1657 
 109   0.0000       3.474690        94.5511 
 110   0.0000       3.528206        96.0074 
 111   0.0000       3.611442        98.2723 
 112   0.0000       3.618856        98.4741 
 113   0.0000       3.637696        98.9867 
 114   0.0000       3.660853        99.6169 
 115   0.0000       3.669725        99.8583 
 116   0.0000       3.848807       104.7313 
 117   0.0000       4.022398       109.4550 
 118   0.0000       4.042318       109.9971 
 119   0.0000       4.151005       112.9546 
 120   0.0000       4.244398       115.4959 
 121   0.0000       4.260236       115.9269 
 122   0.0000       4.282656       116.5370 
 123   0.0000       4.302437       117.0753 
 124   0.0000       4.325472       117.7021 
 125   0.0000       4.425297       120.4184 
 126   0.0000       4.520835       123.0182 
 127   0.0000       4.538429       123.4969 
 128   0.0000       4.569783       124.3501 
 129   0.0000       4.571541       124.3980 
 130   0.0000       4.615849       125.6036 
 131   0.0000       4.978611       135.4749 
 132   0.0000       5.079286       138.2144 
 133   0.0000       5.122649       139.3944 
 134   0.0000       5.211363       141.8084 
 135   0.0000       5.350559       145.5961 
 136   0.0000       5.423319       147.5760 
 137   0.0000       5.509748       149.9279 
 138   0.0000       5.588905       152.0818 
 139   0.0000       5.812535       158.1671 
 140   0.0000       5.839959       158.9134 
 141   0.0000       5.856548       159.3648 
 142   0.0000       6.000184       163.2733 
 143   0.0000       6.026602       163.9922 
 144   0.0000       6.143599       167.1758 
 145   0.0000       6.450965       175.5397 
 146   0.0000       6.534046       177.8004 
 147   0.0000       6.624454       180.2606 
 148   0.0000       6.744685       183.5322 
 149   0.0000       6.762274       184.0108 
 150   0.0000       6.780637       184.5105 
 151   0.0000       6.815111       185.4486 
 152   0.0000       6.975907       189.8241 
 153   0.0000       7.042309       191.6310 
 154   0.0000       7.195497       195.7994 
 155   0.0000       7.249891       197.2796 
 156   0.0000       7.355885       200.1638 
 157   0.0000       7.869826       214.1489 
 158   0.0000       8.875154       241.5052 
 159   0.0000       9.370771       254.9917 
 160   0.0000       9.507941       258.7242 
 161   0.0000       9.560879       260.1648 
 162   0.0000       9.775537       266.0059 
 163   0.0000       9.889700       269.1124 
 164   0.0000       9.945966       270.6435 
 165   0.0000      10.110067       275.1089 
 166   0.0000      11.131574       302.9055 
 167   0.0000      19.104279       519.8539 
 168   0.0000      22.439107       610.5991 
 169   0.0000      43.663352      1188.1402 
 170   0.0000      65.905285      1793.3740 
 171   0.0000     126.416451      3439.9665 

                    ********************************
                    * MULLIKEN POPULATION ANALYSIS *
                    ********************************

-----------------------
MULLIKEN ATOMIC CHARGES
-----------------------
   0 C :   -0.000400
   1 O :   -0.000735
   2 H :   -0.000109
   3 H :    0.000026
   4 H :   -0.000044
   5 H :   -0.000025
   6 C :   -0.162637
   7 O :   -0.471653
   8 H :    0.311464
   9 H :    0.097673
  10 H :    0.105283
  11 H :    0.121157
Sum of atomic charges:   -0.0000000

--------------------------------
MULLIKEN REDUCED ORBITAL CHARGES
--------------------------------
  0 C s       :     0.000031  s :     0.000031
      pz      :    -0.000054  p :     0.000366
      px      :     0.000381
      py      :     0.000040
      dz2     :     0.000003  d :     0.000003
      dxz     :     0.000007
      dyz     :     0.000000
      dx2y2   :    -0.000002
      dxy     :    -0.000006
      f0      :     0.000000  f :    -0.000000
      f+1     :     0.000000
      f-1     :     0.000000
      f+2     :     0.000000
      f-2     :    -0.000000
      f+3     :     0.000000
      f-3     :    -0.000000
  1 O s       :    -0.000137  s :    -0.000137
      pz      :    -0.000145  p :     0.000875
      px      :     0.000963
      py      :     0.000056
      dz2     :    -0.000000  d :    -0.000003
      dxz     :    -0.000005
      dyz     :    -0.000000
      dx2y2   :    -0.000001
      dxy     :     0.000004
      f0      :     0.000000  f :     0.000000
      f+1     :    -0.000000
      f-1     :     0.000000
      f+2     :    -0.000000
      f-2     :     0.000000
      f+3     :    -0.000000
      f-3     :     0.000000
  2 H s       :     0.000111  s :     0.000111
      pz      :     0.000000  p :    -0.000002
      px      :    -0.000001
      py      :    -0.000001
  3 H s       :    -0.000027  s :    -0.000027
      pz      :     0.000000  p :     0.000000
      px      :    -0.000000
      py      :     0.000000
  4 H s       :     0.000045  s :     0.000045
      pz      :     0.000000  p :    -0.000000
      px      :    -0.000000
      py      :    -0.000000
  5 H s       :     0.000025  s :     0.000025
      pz      :    -0.000000  p :    -0.000000
      px      :    -0.000000
      py      :     0.000000
  6 C s       :     3.221132  s :     3.221132
      pz      :     0.870978  p :     2.834009
      px      :     0.889122
      py      :     1.073909
      dz2     :     0.030710  d :     0.099697
      dxz     :     0.014471
      dyz     :     0.012026
      dx2y2   :     0.011543
      dxy     :     0.030946
      f0      :     0.000892  f :     0.007799
      f+1     :     0.002382
      f-1     :     0.000310
      f+2     :     0.000970
      f-2     :     0.001678
      f+3     :     0.000981
      f-3     :     0.000587
  7 O s       :     3.780608  s :     3.780608
      pz      :     1.600585  p :     4.659285
      px      :     1.367445
      py      :     1.691255
      dz2     :     0.006363  d :     0.029982
      dxz     :     0.009838
      dyz     :     0.004904
      dx2y2   :     0.002226
      dxy     :     0.006651
      f0      :     0.000218  f :     0.001777
      f+1     :     0.000219
      f-1     :     0.000035
      f+2     :     0.000245
      f-2     :     0.000388
      f+3     :     0.000249
      f-3     :     0.000424
  8 H s       :     0.637154  s :     0.637154
      pz      :     0.014004  p :     0.051383
      px      :     0.018026
      py      :     0.019353
  9 H s       :     0.883045  s :     0.883045
      pz      :     0.003319  p :     0.019282
      px      :     0.007090
      py      :     0.008873
 10 H s       :     0.874873  s :     0.874873
      pz      :     0.010470  p :     0.019844
      px      :     0.004933
      py      :     0.004442
 11 H s       :     0.858980  s :     0.858980
      pz      :     0.003320  p :     0.019863
      px      :     0.007089
      py      :     0.009454


                     *******************************
                     * LOEWDIN POPULATION ANALYSIS *
                     *******************************

----------------------
LOEWDIN ATOMIC CHARGES
----------------------
   0 C :   -0.000447
   1 O :   -0.002528
   2 H :   -0.000169
   3 H :   -0.000003
   4 H :   -0.000013
   5 H :   -0.000047
   6 C :   -0.391187
   7 O :   -0.053618
   8 H :    0.150659
   9 H :    0.094841
  10 H :    0.092896
  11 H :    0.109615

-------------------------------
LOEWDIN REDUCED ORBITAL CHARGES
-------------------------------
  0 C s       :     0.000059  s :     0.000059
      pz      :     0.000116  p :     0.000384
      px      :     0.000235
      py      :     0.000033
      dz2     :     0.000000  d :     0.000004
      dxz     :     0.000000
      dyz     :     0.000001
      dx2y2   :     0.000001
      dxy     :     0.000001
      f0      :     0.000000  f :     0.000000
      f+1     :     0.000000
      f-1     :     0.000000
      f+2     :     0.000000
      f-2     :     0.000000
      f+3     :     0.000000
      f-3     :     0.000000
  1 O s       :     0.000186  s :     0.000186
      pz      :     0.000400  p :     0.002313
      px      :     0.001270
      py      :     0.000644
      dz2     :     0.000005  d :     0.000029
      dxz     :     0.000010
      dyz     :     0.000003
      dx2y2   :     0.000000
      dxy     :     0.000010
      f0      :     0.000000  f :     0.000001
      f+1     :     0.000000
      f-1     :     0.000000
      f+2     :     0.000000
      f-2     :     0.000000
      f+3     :     0.000000
      f-3     :     0.000000
  2 H s       :     0.000167  s :     0.000167
      pz      :     0.000000  p :     0.000001
      px      :     0.000001
      py      :     0.000000
  3 H s       :     0.000003  s :     0.000003
      pz      :     0.000000  p :     0.000000
      px      :     0.000000
      py      :     0.000000
  4 H s       :     0.000013  s :     0.000013
      pz      :     0.000000  p :     0.000000
      px      :     0.000000
      py      :     0.000000
  5 H s       :     0.000047  s :     0.000047
      pz      :     0.000000  p :     0.000000
      px      :     0.000000
      py      :     0.000000
  6 C s       :     2.859229  s :     2.859229
      pz      :     0.974260  p :     3.054599
      px      :     0.972568
      py      :     1.107771
      dz2     :     0.121921  d :     0.419117
      dxz     :     0.096817
      dyz     :     0.040179
      dx2y2   :     0.038928
      dxy     :     0.121272
      f0      :     0.005296  f :     0.058243
      f+1     :     0.015705
      f-1     :     0.004734
      f+2     :     0.011936
      f-2     :     0.009792
      f+3     :     0.006951
      f-3     :     0.003828
  7 O s       :     3.341889  s :     3.341889
      pz      :     1.617429  p :     4.634310
      px      :     1.384076
      py      :     1.632805
      dz2     :     0.016286  d :     0.072598
      dxz     :     0.021294
      dyz     :     0.008820
      dx2y2   :     0.007317
      dxy     :     0.018881
      f0      :     0.000823  f :     0.004821
      f+1     :     0.000833
      f-1     :     0.000146
      f+2     :     0.000663
      f-2     :     0.001227
      f+3     :     0.000401
      f-3     :     0.000728
  8 H s       :     0.677837  s :     0.677837
      pz      :     0.048256  p :     0.171505
      px      :     0.057223
      py      :     0.066026
  9 H s       :     0.847310  s :     0.847310
      pz      :     0.010331  p :     0.057849
      px      :     0.020324
      py      :     0.027195
 10 H s       :     0.844377  s :     0.844377
      pz      :     0.031711  p :     0.062727
      px      :     0.016006
      py      :     0.015010
 11 H s       :     0.831403  s :     0.831403
      pz      :     0.010970  p :     0.058982
      px      :     0.019599
      py      :     0.028412


                      *****************************
                      * MAYER POPULATION ANALYSIS *
                      *****************************

  NA   - Mulliken gross atomic population
  ZA   - Total nuclear charge
  QA   - Mulliken gross atomic charge
  VA   - Mayer's total valence
  BVA  - Mayer's bonded valence
  FA   - Mayer's free valence

  ATOM       NA         ZA         QA         VA         BVA        FA
  0 C      0.0004     0.0000    -0.0004     0.0008     0.0008    -0.0000
  1 O      0.0007     0.0000    -0.0007     0.0015     0.0015    -0.0000
  2 H      0.0001     0.0000    -0.0001     0.0002     0.0002     0.0000
  3 H     -0.0000     0.0000     0.0000    -0.0001    -0.0001     0.0000
  4 H      0.0000     0.0000    -0.0000     0.0001     0.0001    -0.0000
  5 H      0.0000     0.0000    -0.0000     0.0000     0.0000    -0.0000
  6 C      6.1626     6.0000    -0.1626     3.9354     3.9354     0.0000
  7 O      8.4717     8.0000    -0.4717     1.8907     1.8907    -0.0000
  8 H      0.6885     1.0000     0.3115     0.9178     0.9178    -0.0000
  9 H      0.9023     1.0000     0.0977     0.9509     0.9509    -0.0000
 10 H      0.8947     1.0000     0.1053     0.9655     0.9655     0.0000
 11 H      0.8788     1.0000     0.1212     0.9594     0.9594     0.0000

  Mayer bond orders larger than 0.1
B(  6-C ,  7-O ) :   0.9941 B(  6-C ,  9-H ) :   0.9703 B(  6-C , 10-H ) :   0.9864 
B(  6-C , 11-H ) :   0.9737 B(  7-O ,  8-H ) :   0.9038 

-------
TIMINGS
-------

Total SCF time: 0 days 0 hours 0 min 13 sec 

Total time                  ....      13.881 sec
Sum of individual times     ....      13.432 sec  ( 96.8%)

Fock matrix formation       ....      12.750 sec  ( 91.8%)
  XC integration            ....       5.658 sec  ( 44.4% of F)
    Basis function eval.    ....       0.056 sec  (  1.0% of XC)
    Density eval.           ....       0.062 sec  (  1.1% of XC)
    XC-Functional eval.     ....       0.097 sec  (  1.7% of XC)
    XC-Potential eval.      ....       0.060 sec  (  1.1% of XC)
Diagonalization             ....       0.099 sec  (  0.7%)
Density matrix formation    ....       0.005 sec  (  0.0%)
Population analysis         ....       0.022 sec  (  0.2%)
Initial guess               ....       0.112 sec  (  0.8%)
Orbital Transformation      ....       0.000 sec  (  0.0%)
Orbital Orthonormalization  ....       0.000 sec  (  0.0%)
DIIS solution               ....       0.022 sec  (  0.2%)
SOSCF solution              ....       0.020 sec  (  0.1%)
Grid generation             ....       0.403 sec  (  2.9%)


-------------------------------------------------------------------------------
                          DFT DISPERSION CORRECTION                            
                                                                               
                              DFTD3 V3.1  Rev 1                                
                              USING zero damping                               
-------------------------------------------------------------------------------
The omegaB97X-D3 functional is recognized. Fit by Chai et al.
Active option DFTDOPT                   ...         3   

molecular C6(AA) [au] = 208.701366 


            DFT-D V3
 parameters
 s6 scaling factor         :     1.0000 
 rs6 scaling factor        :     1.2810 
 s8 scaling factor         :     1.0000 
 rs8 scaling factor        :     1.0940 
 Damping factor alpha6     :    14.0000 
 Damping factor alpha8     :    16.0000 
 ad hoc parameters k1-k3   :    16.0000     1.3333    -4.0000 

 Edisp/kcal,au: -0.149954284106  -0.000238967337 
 E6   /kcal   :  -0.030572945 
 E8   /kcal   :  -0.119381339 
 % E8         :  79.611823061 

-------------------------   ----------------
Dispersion correction           -0.000238967
-------------------------   ----------------


-------------------------   --------------------
FINAL SINGLE POINT ENERGY      -115.734451092061
-------------------------   --------------------


                            ***************************************
                            *     ORCA property calculations      *
                            ***************************************

                                    ---------------------
                                    Active property flags
                                    ---------------------
   (+) Dipole Moment


------------------------------------------------------------------------------
                       ORCA ELECTRIC PROPERTIES CALCULATION
------------------------------------------------------------------------------

Dipole Moment Calculation                       ... on
Quadrupole Moment Calculation                   ... off
Polarizability Calculation                      ... off
GBWName                                         ... 12-108_DFT_B.gbw
Electron density file                           ... 12-108_DFT_B.scfp.tmp
The origin for moment calculation is the CENTER OF MASS  = ( 6.273989, 13.276646 18.344998)

-------------
DIPOLE MOMENT
-------------
                                X             Y             Z
Electronic contribution:      1.26894      -0.05375      -1.34918
Nuclear contribution   :     -1.22520      -0.25123       1.94435
                        -----------------------------------------
Total Dipole Moment    :      0.04374      -0.30498       0.59516
                        -----------------------------------------
Magnitude (a.u.)       :      0.67018
Magnitude (Debye)      :      1.70346



--------------------
Rotational spectrum 
--------------------
 
Rotational constants in cm-1:     4.417692     0.838872     0.807034 
Rotational constants in MHz : 132439.071103 25148.735778 24194.285003 

 Dipole components along the rotational axes: 
x,y,z [a.u.] :    -0.313580    -0.592138    -0.013535 
x,y,z [Debye]:    -0.797056    -1.505094    -0.034404 

 
------------------------------------------------------------------------------
                      ORCA CHELPG CHARGES GENERATION
------------------------------------------------------------------------------

GBW file                           ... 12-108_DFT_B.gbw

Reading the GBW file               ... done

Grid spacing                       ...     0.300000
Point Cut-Off                      ...     2.800000
Van-der-Waals Radii                ...        COSMO
Total charge                       ...            0


Number of points X direction       ...           34
Number of points Y direction       ...           32
Number of points Z direction       ...           37
Maximum number of possible points  ...        40256
Final number of points             ...         5972


CHELPG Charges            
--------------------------------
  0   C   :      -0.072701
  1   O   :       0.001742
  2   H   :       0.010735
  3   H   :      -0.035645
  4   H   :       0.031148
  5   H   :       0.063793
  6   C   :       0.088968
  7   O   :      -0.617074
  8   H   :       0.423432
  9   H   :       0.011839
 10   H   :       0.018350
 11   H   :       0.075411
--------------------------------
Total charge:    -0.000000
--------------------------------

CHELPG charges calculated...

Timings for individual parts in CHELPG calculation:
Grid generation                 ...        0.001 sec (=   0.000 min)
Potential calculation           ...        1.150 sec (=   0.019 min)
Fit to the potential            ...        0.005 sec (=   0.000 min)
------------------------------------------------------------------------------


Timings for individual modules:

Sum of individual times         ...       16.101 sec (=   0.268 min)
GTO integral calculation        ...        0.663 sec (=   0.011 min)   4.1 %
SCF iterations                  ...       14.253 sec (=   0.238 min)  88.5 %
CHELPG charge generation        ...        1.185 sec (=   0.020 min)   7.4 %



                             ****ORCA TERMINATED NORMALLY****
TOTAL RUN TIME: 0 days 0 hours 0 minutes 59 seconds 896 msec
