
                                 *****************
                                 * O   R   C   A *
                                 *****************

           --- An Ab Initio, DFT and Semiempirical electronic structure package ---

                  #######################################################
                  #                        -***-                        #
                  #          Department of theory and spectroscopy      #
                  #               Directorship: Frank Neese             #
                  #        Max Planck Institute fuer Kohlenforschung    #
                  #                Kaiser Wilhelm Platz 1               #
                  #                 D-45470 Muelheim/Ruhr               #
                  #                      Germany                        #
                  #                                                     #
                  #                  All rights reserved                #
                  #                        -***-                        #
                  #######################################################


                         Program Version 4.1.2  - RELEASE  -


 With contributions from (in alphabetic order):
   Daniel Aravena         : Magnetic Properties
   Michael Atanasov       : Ab Initio Ligand Field Theory
   Alexander A. Auer      : GIAO ZORA
   Ute Becker             : Parallelization
   Giovanni Bistoni       : ED, Open-shell LED
   Martin Brehm           : Molecular dynamics
   Dmytro Bykov           : SCF Hessian
   Vijay G. Chilkuri      : MRCI spin determinant printing
   Dipayan Datta          : RHF DLPNO-CCSD density
   Achintya Kumar Dutta   : EOM-CC, STEOM-CC
   Dmitry Ganyushin       : Spin-Orbit,Spin-Spin,Magnetic field MRCI
   Miquel Garcia          : C-PCM Hessian
   Yang Guo               : DLPNO-NEVPT2, CIM, IAO-localization
   Andreas Hansen         : Spin unrestricted coupled pair/coupled cluster methods
   Benjamin Helmich-Paris : CASSCF linear response (MC-RPA)
   Lee Huntington         : MR-EOM, pCC
   Robert Izsak           : Overlap fitted RIJCOSX, COSX-SCS-MP3, EOM
   Christian Kollmar      : KDIIS, OOCD, Brueckner-CCSD(T), CCSD density
   Simone Kossmann        : Meta GGA functionals, TD-DFT gradient, OOMP2, MP2 Hessian
   Martin Krupicka        : AUTO-CI
   Lucas Lang             : DCDCAS
   Dagmar Lenk            : GEPOL surface, SMD
   Dimitrios Liakos       : Extrapolation schemes; parallel MDCI
   Dimitrios Manganas     : ROCIS; embedding schemes
   Dimitrios Pantazis     : SARC Basis sets
   Taras Petrenko         : DFT Hessian,TD-DFT gradient, ASA, ECA, R-Raman, ABS, FL, XAS/XES, NRVS
   Peter Pinski           : DLPNO-MP2, DLPNO-MP2 Gradient
   Christoph Reimann      : Effective Core Potentials
   Marius Retegan         : Local ZFS, SOC
   Christoph Riplinger    : Optimizer, TS searches, QM/MM, DLPNO-CCSD(T), (RO)-DLPNO pert. Triples
   Tobias Risthaus        : Range-separated hybrids, TD-DFT gradient, RPA, STAB
   Michael Roemelt        : Restricted open shell CIS
   Masaaki Saitow         : Open-shell DLPNO
   Barbara Sandhoefer     : DKH picture change effects
   Avijit Sen             : IP-ROCIS
   Kantharuban Sivalingam : CASSCF convergence, NEVPT2, FIC-MRCI
   Bernardo de Souza      : ESD, SOC TD-DFT
   Georgi Stoychev        : AutoAux, RI-MP2 NMR
   Willem Van den Heuvel  : Paramagnetic NMR
   Boris Wezisla          : Elementary symmetry handling
   Frank Wennmohs         : Technical directorship


 We gratefully acknowledge several colleagues who have allowed us to
 interface, adapt or use parts of their codes:
   Stefan Grimme, W. Hujo, H. Kruse,             : VdW corrections, initial TS optimization,
                  C. Bannwarth                     DFT functionals, gCP, sTDA/sTD-DF
   Ed Valeev                                     : LibInt (2-el integral package), F12 methods
   Garnet Chan, S. Sharma, J. Yang, R. Olivares  : DMRG
   Ulf Ekstrom                                   : XCFun DFT Library
   Mihaly Kallay                                 : mrcc  (arbitrary order and MRCC methods)
   Andreas Klamt, Michael Diedenhofen            : otool_cosmo (COSMO solvation model)
   Jiri Pittner, Ondrej Demel                    : Mk-CCSD
   Frank Weinhold                                : gennbo (NPA and NBO analysis)
   Christopher J. Cramer and Donald G. Truhlar   : smd solvation model
   Lars Goerigk                                  : TD-DFT with DH, B97 family of functionals
   V. Asgeirsson, H. Jonsson                     : NEB implementation
   FAccTs GmbH                                   : IRC, NEB, NEB-TS, Multilevel


 Your calculation uses the libint2 library for the computation of 2-el integrals
 For citations please refer to: http://libint.valeyev.net

 This ORCA versions uses:
   CBLAS   interface :  Fast vector & matrix operations
   LAPACKE interface :  Fast linear algebra routines
   SCALAPACK package :  Parallel linear algebra routines


Your calculation utilizes the atom-pairwise dispersion correction
with the zero-damping scheme (D30)
Cite in your paper:
S.Grimme, J.Antony, S.Ehrlich and H.Krieg, J.Chem.Phys., 132, (2010), 154104 
   

XCFun DFT library Copyright 2009-2010 Ulf Ekstrom and contributors.
See http://admol.org/xcfun for more information. This is free soft-
ware; see the source code for copying conditions. There is ABSOLUTELY
NO WARRANTY; not even for MERCHANTABILITY or FITNESS FOR A PARTICULAR
PURPOSE. For details see the documentation. Scientific users of this 
library should cite U. Ekstrom, L. Visscher, R. Bast, A. J. Thorvald-
sen and K. Ruud; J.Chem.Theor.Comp. 2010, DOI: 10.1021/ct100117s
XCFun Version 0.99 
----- Orbital basis set information -----
Your calculation utilizes the basis: def2-TZVP
   F. Weigend and R. Ahlrichs, Phys. Chem. Chem. Phys. 7, 3297 (2005).

================================================================================
                                        WARNINGS
                       Please study these warnings very carefully!
================================================================================


INFO   : the flag for use of LIBINT has been found!

Your calculation utilizes the atom-pairwise dispersion correction
with the zero-damping scheme (D30)
Cite in your paper:
S.Grimme, J.Antony, S.Ehrlich and H.Krieg, J.Chem.Phys., 132, (2010), 154104 
   

XCFun DFT library Copyright 2009-2010 Ulf Ekstrom and contributors.
See http://admol.org/xcfun for more information. This is free soft-
ware; see the source code for copying conditions. There is ABSOLUTELY
NO WARRANTY; not even for MERCHANTABILITY or FITNESS FOR A PARTICULAR
PURPOSE. For details see the documentation. Scientific users of this 
library should cite U. Ekstrom, L. Visscher, R. Bast, A. J. Thorvald-
sen and K. Ruud; J.Chem.Theor.Comp. 2010, DOI: 10.1021/ct100117s
XCFun Version 0.99 
----- Orbital basis set information -----
Your calculation utilizes the basis: def2-TZVP
   F. Weigend and R. Ahlrichs, Phys. Chem. Chem. Phys. 7, 3297 (2005).

================================================================================
                                        WARNINGS
                       Please study these warnings very carefully!
================================================================================


WARNING: MOInp is set but Guess=PModel. MOInp will be ignored!
         To read the initial guess from a file you must also specify
         'MORead' in the simple input or 'Guess MORead' in the %scf block


INFO   : the flag for use of LIBINT has been found!

Your calculation utilizes the atom-pairwise dispersion correction
with the zero-damping scheme (D30)
Cite in your paper:
S.Grimme, J.Antony, S.Ehrlich and H.Krieg, J.Chem.Phys., 132, (2010), 154104 
   

XCFun DFT library Copyright 2009-2010 Ulf Ekstrom and contributors.
See http://admol.org/xcfun for more information. This is free soft-
ware; see the source code for copying conditions. There is ABSOLUTELY
NO WARRANTY; not even for MERCHANTABILITY or FITNESS FOR A PARTICULAR
PURPOSE. For details see the documentation. Scientific users of this 
library should cite U. Ekstrom, L. Visscher, R. Bast, A. J. Thorvald-
sen and K. Ruud; J.Chem.Theor.Comp. 2010, DOI: 10.1021/ct100117s
XCFun Version 0.99 
----- Orbital basis set information -----
Your calculation utilizes the basis: def2-TZVP
   F. Weigend and R. Ahlrichs, Phys. Chem. Chem. Phys. 7, 3297 (2005).

================================================================================
                                        WARNINGS
                       Please study these warnings very carefully!
================================================================================


WARNING: MOInp is set but Guess=PModel. MOInp will be ignored!
         To read the initial guess from a file you must also specify
         'MORead' in the simple input or 'Guess MORead' in the %scf block


INFO   : the flag for use of LIBINT has been found!

================================================================================
                                       INPUT FILE
================================================================================
NAME = 7-146.in
|  1> #Run DFT-D3 single point of the dimer
|  2> ! wB97X-D3 def2-TZVP TIGHTSCF CHELPG PMODEL PAL8
|  3> 
|  4> %base "7-146_DFT_AB"
|  5> 
|  6> %scf
|  7> MaxIter 1000
|  8> end
|  9> 
| 10> * xyz 0 1
| 11>   C                      3.721256             2.865454             0.278842            
| 12>   O                      3.810652             4.224513             0.718855            
| 13>   H                      3.847158             4.251311             1.654711            
| 14>   H                      4.630489             2.337793             0.330650            
| 15>   H                      3.118835             2.213713             0.975832            
| 16>   H                      3.309772             2.784025             -0.718189           
| 17>   C                      4.556806             5.347333             -2.628685           
| 18>   O                      3.423993             5.475076             -1.851315           
| 19>   H                      3.701064             5.189540             -1.017325           
| 20>   H                      4.699981             6.061713             -3.358107           
| 21>   H                      5.501978             5.323743             -2.028070           
| 22>   H                      4.491684             4.380159             -3.170814           
| 23> *
| 24> 
| 25> #Run DFT-D3 single point of the molecule with dimer basis set
| 26> $new_job
| 27> %base "7-146_DFT_A"
| 28> ! wB97X-D3 def2-TZVP TIGHTSCF CHELPG PMODEL
| 29> 
| 30> %scf
| 31> MaxIter 1000
| 32> end
| 33> 
| 34> * xyz 0 1
| 35>   C                      3.721256             2.865454             0.278842            
| 36>   O                      3.810652             4.224513             0.718855            
| 37>   H                      3.847158             4.251311             1.654711            
| 38>   H                      4.630489             2.337793             0.330650            
| 39>   H                      3.118835             2.213713             0.975832            
| 40>   H                      3.309772             2.784025             -0.718189           
| 41>   C                    : 4.556806             5.347333             -2.628685           
| 42>   O                    : 3.423993             5.475076             -1.851315           
| 43>   H                    : 3.701064             5.189540             -1.017325           
| 44>   H                    : 4.699981             6.061713             -3.358107           
| 45>   H                    : 5.501978             5.323743             -2.028070           
| 46>   H                    : 4.491684             4.380159             -3.170814           
| 47> *
| 48> 
| 49> #Run DFT-D3 single point of the particle with dimer basis set
| 50> $new_job
| 51> %base "7-146_DFT_B"
| 52> ! wB97X-D3 def2-TZVP TIGHTSCF CHELPG PMODEL
| 53> 
| 54> %scf
| 55> MaxIter 1000
| 56> end
| 57> 
| 58> * xyz 0 1
| 59>   C                    : 3.721256             2.865454             0.278842            
| 60>   O                    : 3.810652             4.224513             0.718855            
| 61>   H                    : 3.847158             4.251311             1.654711            
| 62>   H                    : 4.630489             2.337793             0.330650            
| 63>   H                    : 3.118835             2.213713             0.975832            
| 64>   H                    : 3.309772             2.784025             -0.718189           
| 65>   C                      4.556806             5.347333             -2.628685           
| 66>   O                      3.423993             5.475076             -1.851315           
| 67>   H                      3.701064             5.189540             -1.017325           
| 68>   H                      4.699981             6.061713             -3.358107           
| 69>   H                      5.501978             5.323743             -2.028070           
| 70>   H                      4.491684             4.380159             -3.170814           
| 71> *
| 72> 
| 73>                          ****END OF INPUT****
================================================================================


                 $$$$$$$$$$$$$$$$$$$$$$$$$$$$$$$$$$$$$$$$$$$$$$ 
                 $ THERE ARE  3 JOBS TO BE PROCESSED THIS RUN $
                 $$$$$$$$$$$$$$$$$$$$$$$$$$$$$$$$$$$$$$$$$$$$$$ 




                 $$$$$$$$$$$$$$$$  JOB NUMBER  1 $$$$$$$$$$$$$$


                       ****************************
                       * Single Point Calculation *
                       ****************************

---------------------------------
CARTESIAN COORDINATES (ANGSTROEM)
---------------------------------
  C      3.721256    2.865454    0.278842
  O      3.810652    4.224513    0.718855
  H      3.847158    4.251311    1.654711
  H      4.630489    2.337793    0.330650
  H      3.118835    2.213713    0.975832
  H      3.309772    2.784025   -0.718189
  C      4.556806    5.347333   -2.628685
  O      3.423993    5.475076   -1.851315
  H      3.701064    5.189540   -1.017325
  H      4.699981    6.061713   -3.358107
  H      5.501978    5.323743   -2.028070
  H      4.491684    4.380159   -3.170814

----------------------------
CARTESIAN COORDINATES (A.U.)
----------------------------
  NO LB      ZA    FRAG     MASS         X           Y           Z
   0 C     6.0000    0    12.011    7.032155    5.414923    0.526935
   1 O     8.0000    0    15.999    7.201089    7.983173    1.358439
   2 H     1.0000    0     1.008    7.270075    8.033814    3.126951
   3 H     1.0000    0     1.008    8.750356    4.417789    0.624838
   4 H     1.0000    0     1.008    5.893744    4.183311    1.844055
   5 H     1.0000    0     1.008    6.254563    5.261045   -1.357181
   6 C     6.0000    0    12.011    8.611115   10.104995   -4.967495
   7 O     8.0000    0    15.999    6.470409   10.346394   -3.498478
   8 H     1.0000    0     1.008    6.993997    9.806809   -1.922466
   9 H     1.0000    0     1.008    8.881677   11.454977   -6.345903
  10 H     1.0000    0     1.008   10.397232   10.060416   -3.832497
  11 H     1.0000    0     1.008    8.488053    8.277301   -5.991970

--------------------------------
INTERNAL COORDINATES (ANGSTROEM)
--------------------------------
 C      0   0   0     0.000000000000     0.00000000     0.00000000
 O      1   0   0     1.431308649616     0.00000000     0.00000000
 H      2   1   0     0.936951051857   109.67301566     0.00000000
 H      1   2   3     1.052527837197   114.01244290   283.82113579
 H      1   2   3     1.128482366908   113.06985918    34.78479857
 H      1   2   3     1.081674895363   112.24722605   158.37435938
 C      6   1   2     3.431564754749   108.58430828    39.03211027
 O      7   6   1     1.379814365746    57.12183008   272.94852613
 H      8   7   6     0.924033801566   103.51535551    52.46605550
 H      7   6   1     1.030967661524   164.14726696   201.69824739
 H      7   6   1     1.120109358906    89.56354854    31.14151305
 H      7   6   1     1.110662088036    66.41992926   139.97896143

---------------------------
INTERNAL COORDINATES (A.U.)
---------------------------
 C      0   0   0     0.000000000000     0.00000000     0.00000000
 O      1   0   0     2.704781360887     0.00000000     0.00000000
 H      2   1   0     1.770580888899   109.67301566     0.00000000
 H      1   2   3     1.988989360630   114.01244290   283.82113579
 H      1   2   3     2.132522620415   113.06985918    34.78479857
 H      1   2   3     2.044069318174   112.24722605   158.37435938
 C      6   1   2     6.484717597292   108.58430828    39.03211027
 O      7   6   1     2.607471266909    57.12183008   272.94852613
 H      8   7   6     1.746170823446   103.51535551    52.46605550
 H      7   6   1     1.948246533210   164.14726696   201.69824739
 H      7   6   1     2.116699928375    89.56354854    31.14151305
 H      7   6   1     2.098847173718    66.41992926   139.97896143

---------------------
BASIS SET INFORMATION
---------------------
There are 3 groups of distinct atoms

 Group   1 Type C   : 11s6p2d1f contracted to 5s3p2d1f pattern {62111/411/11/1}
 Group   2 Type O   : 11s6p2d1f contracted to 5s3p2d1f pattern {62111/411/11/1}
 Group   3 Type H   : 5s1p contracted to 3s1p pattern {311/1}

Atom   0C    basis set group =>   1
Atom   1O    basis set group =>   2
Atom   2H    basis set group =>   3
Atom   3H    basis set group =>   3
Atom   4H    basis set group =>   3
Atom   5H    basis set group =>   3
Atom   6C    basis set group =>   1
Atom   7O    basis set group =>   2
Atom   8H    basis set group =>   3
Atom   9H    basis set group =>   3
Atom  10H    basis set group =>   3
Atom  11H    basis set group =>   3


           ************************************************************
           *        Program running with 8 parallel MPI-processes     *
           *              working on a common directory               *
           ************************************************************
------------------------------------------------------------------------------
                           ORCA GTO INTEGRAL CALCULATION
------------------------------------------------------------------------------

                         BASIS SET STATISTICS AND STARTUP INFO

 # of primitive gaussian shells          ...  128
 # of primitive gaussian functions       ...  248
 # of contracted shells                  ...   76
 # of contracted basis functions         ...  172
 Highest angular momentum                ...    3
 Maximum contraction depth               ...    6
 Integral package used                   ... LIBINT
 Integral threshhold            Thresh   ...  2.500e-11
 Primitive cut-off              TCut     ...  2.500e-12


------------------------------ INTEGRAL EVALUATION ----------------------------


 * One electron integrals 
 Pre-screening matrix                    ... done
 Shell pair data                         ... done (   0.001 sec)



           ************************************************************
           *        Program running with 8 parallel MPI-processes     *
           *              working on a common directory               *
           ************************************************************
-------------------------------------------------------------------------------
                                 ORCA SCF
-------------------------------------------------------------------------------

------------
SCF SETTINGS
------------
Hamiltonian:
 Density Functional     Method          .... DFT(GTOs)
 Exchange Functional    Exchange        .... WB97X-D3
 Correlation Functional Correlation     .... WB97X-D3
 Gradients option       PostSCFGGA      .... off
 Hybrid DFT is turned on
   Fraction HF Exchange ScalHFX         ....  0.195728
   Scaling of DF-GGA-X  ScalDFX         ....  0.000000
   Scaling of DF-GGA-C  ScalDFC         ....  1.000000
   Scaling of DF-LDA-C  ScalLDAC        ....  1.000000
   Perturbative correction              ....  0.000000
   Density functional embedding theory  .... OFF
 Long-range corrected/Screened/Range-Separated Hybrid DFT is turned on
   Amount of maximum screened exact exchange              ....  0.804272
   Range separation parameter mu (erf(mu*r12)/r12)        ....  0.250000


General Settings:
 Integral files         IntName         .... 7-146_DFT_AB
 Hartree-Fock type      HFTyp           .... RHF
 Total Charge           Charge          ....    0
 Multiplicity           Mult            ....    1
 Number of Electrons    NEL             ....   36
 Basis Dimension        Dim             ....  172
 Nuclear Repulsion      ENuc            ....    131.2917135068 Eh

Convergence Acceleration:
 DIIS                   CNVDIIS         .... on
   Start iteration      DIISMaxIt       ....    12
   Startup error        DIISStart       ....  0.200000
   # of expansion vecs  DIISMaxEq       ....     5
   Bias factor          DIISBfac        ....   1.050
   Max. coefficient     DIISMaxC        ....  10.000
 Newton-Raphson         CNVNR           .... off
 SOSCF                  CNVSOSCF        .... on
   Start iteration      SOSCFMaxIt      ....   150
   Startup grad/error   SOSCFStart      ....  0.003300
 Level Shifting         CNVShift        .... on
   Level shift para.    LevelShift      ....    0.2500
   Turn off err/grad.   ShiftErr        ....    0.0010
 Zerner damping         CNVZerner       .... off
 Static damping         CNVDamp         .... on
   Fraction old density DampFac         ....    0.7000
   Max. Damping (<1)    DampMax         ....    0.9800
   Min. Damping (>=0)   DampMin         ....    0.0000
   Turn off err/grad.   DampErr         ....    0.1000
 Fernandez-Rico         CNVRico         .... off

SCF Procedure:
 Maximum # iterations   MaxIter         ....  1000
 SCF integral mode      SCFMode         .... Direct
   Integral package                     .... LIBINT
 Reset frequency        DirectResetFreq ....    20
 Integral Threshold     Thresh          ....  2.500e-11 Eh
 Primitive CutOff       TCut            ....  2.500e-12 Eh

Convergence Tolerance:
 Convergence Check Mode ConvCheckMode   .... Total+1el-Energy
 Convergence forced     ConvForced      .... 0
 Energy Change          TolE            ....  1.000e-08 Eh
 1-El. energy change                    ....  1.000e-05 Eh
 Orbital Gradient       TolG            ....  1.000e-05
 Orbital Rotation angle TolX            ....  1.000e-05
 DIIS Error             TolErr          ....  5.000e-07


Diagonalization of the overlap matrix:
Smallest eigenvalue                        ... 1.485e-03
Time for diagonalization                   ...    0.004 sec
Threshold for overlap eigenvalues          ... 1.000e-08
Number of eigenvalues below threshold      ... 0
Time for construction of square roots      ...    0.005 sec
Total time needed                          ...    0.009 sec

-------------------
DFT GRID GENERATION
-------------------

General Integration Accuracy     IntAcc      ...  4.340
Radial Grid Type                 RadialGrid  ... Gauss-Chebyshev
Angular Grid (max. acc.)         AngularGrid ... Lebedev-110
Angular grid pruning method      GridPruning ... 3 (G Style)
Weight generation scheme         WeightScheme... Becke
Basis function cutoff            BFCut       ...    1.0000e-11
Integration weight cutoff        WCut        ...    1.0000e-14
Grids for H and He will be reduced by one unit

# of grid points (after initial pruning)     ...  13096 (   0.0 sec)
# of grid points (after weights+screening)   ...  12425 (   0.0 sec)
nearest neighbour list constructed           ...    0.0 sec
Grid point re-assignment to atoms done       ...    0.0 sec
Grid point division into batches done        ...    0.0 sec
Reduced shell lists constructed in    0.0 sec

Total number of grid points                  ...    12425
Total number of batches                      ...      201
Average number of points per batch           ...       61
Average number of grid points per atom       ...     1035
Average number of shells per batch           ...    59.22 (77.92%)
Average number of basis functions per batch  ...   134.78 (78.36%)
Average number of large shells per batch     ...    49.07 (82.86%)
Average number of large basis fcns per batch ...   110.41 (81.92%)
Maximum spatial batch extension              ...   6.07,  3.79,  2.47 au
Average spatial batch extension              ...   0.25,  0.21,  0.20 au

Time for grid setup =    0.040 sec

------------------------------
INITIAL GUESS: MODEL POTENTIAL
------------------------------
Loading Hartree-Fock densities                     ... done
Calculating cut-offs                               ... done
Setting up the integral package                    ... done
Initializing the effective Hamiltonian             ... done
Starting the Coulomb interaction                   ... done (   0.0 sec)
Reading the grid                                   ... done
Mapping shells                                     ... done
Starting the XC term evaluation                    ... done (   0.0 sec)
  promolecular density results
     # of electrons  =     35.998536556
     EX              =    -28.896089829
     EC              =     -1.160016387
     EX+EC           =    -30.056106216
Transforming the Hamiltonian                       ... done (   0.0 sec)
Diagonalizing the Hamiltonian                      ... done (   0.0 sec)
Back transforming the eigenvectors                 ... done (   0.0 sec)
Now organizing SCF variables                       ... done
                      ------------------
                      INITIAL GUESS DONE (   0.1 sec)
                      ------------------
--------------
SCF ITERATIONS
--------------
ITER       Energy         Delta-E        Max-DP      RMS-DP      [F,P]     Damp
               ***  Starting incremental Fock matrix formation  ***
  0   -231.2993891145   0.000000000000 0.03880073  0.00105980  0.2489345 0.7000
  1   -231.3700505136  -0.070661399081 0.02290816  0.00076300  0.1260056 0.7000
                               ***Turning on DIIS***
  2   -231.4031798251  -0.033129311595 0.03642627  0.00139819  0.0497244 0.0000
  3   -231.4571437528  -0.053963927607 0.01875064  0.00050015  0.0617506 0.0000
  4   -231.4656942348  -0.008550482017 0.00407688  0.00009884  0.0060716 0.0000
                      *** Initiating the SOSCF procedure ***
                           *** Shutting down DIIS ***
                      *** Re-Reading the Fockian *** 
                      *** Removing any level shift *** 
ITER      Energy       Delta-E        Grad      Rot      Max-DP    RMS-DP
  5   -231.46586704  -0.0001728029  0.000424  0.000424  0.000756  0.000036
               *** Restarting incremental Fock matrix formation ***
  6   -231.46588411  -0.0000170673  0.000133  0.000257  0.000593  0.000023
  7   -231.46588588  -0.0000017719  0.000046  0.000138  0.000287  0.000011
  8   -231.46588603  -0.0000001580  0.000021  0.000018  0.000041  0.000001
  9   -231.46588606  -0.0000000299  0.000010  0.000007  0.000018  0.000001
 10   -231.46588607  -0.0000000027  0.000003  0.000004  0.000006  0.000000
                  ***Gradient check signals convergence***
              ***Rediagonalizing the Fockian in SOSCF/NRSCF***

               *****************************************************
               *                     SUCCESS                       *
               *           SCF CONVERGED AFTER  11 CYCLES          *
               *****************************************************

Setting up the final grid:

General Integration Accuracy     IntAcc      ...  4.670
Radial Grid Type                 RadialGrid  ... Gauss-Chebyshev
Angular Grid (max. acc.)         AngularGrid ... Lebedev-302
Angular grid pruning method      GridPruning ... 3 (G Style)
Weight generation scheme         WeightScheme... Becke
Basis function cutoff            BFCut       ...    1.0000e-11
Integration weight cutoff        WCut        ...    1.0000e-14
Grids for H and He will be reduced by one unit

# of grid points (after initial pruning)     ...  52000 (   0.0 sec)
# of grid points (after weights+screening)   ...  48914 (   0.0 sec)
nearest neighbour list constructed           ...    0.0 sec
Grid point re-assignment to atoms done       ...    0.0 sec
Grid point division into batches done        ...    0.2 sec
Reduced shell lists constructed in    0.2 sec

Total number of grid points                  ...    48914
Total number of batches                      ...      771
Average number of points per batch           ...       63
Average number of grid points per atom       ...     4076
Average number of shells per batch           ...    58.32 (76.73%)
Average number of basis functions per batch  ...   131.03 (76.18%)
Average number of large shells per batch     ...    48.22 (82.69%)
Average number of large basis fcns per batch ...   107.51 (82.05%)
Maximum spatial batch extension              ...   6.75,  4.15,  2.34 au
Average spatial batch extension              ...   0.16,  0.14,  0.13 au

Final grid set up in    0.2 sec
Final integration                            ... done (   0.1 sec)
Change in XC energy                          ...    -0.000254642
Integrated number of electrons               ...    36.000098192
Previous integrated no of electrons          ...    36.001696778

----------------
TOTAL SCF ENERGY
----------------

Total Energy       :         -231.46614071 Eh           -6298.51390 eV

Components:
Nuclear Repulsion  :          131.29171351 Eh            3572.62915 eV
Electronic Energy  :         -362.75785422 Eh           -9871.14305 eV
One Electron Energy:         -575.26526639 Eh          -15653.76372 eV
Two Electron Energy:          212.50741217 Eh            5782.62067 eV

Virial components:
Potential Energy   :         -462.17451431 Eh          -12576.40791 eV
Kinetic Energy     :          230.70837360 Eh            6277.89401 eV
Virial Ratio       :            2.00328452


DFT components:
N(Alpha)           :       18.000049096022 electrons
N(Beta)            :       18.000049096022 electrons
N(Total)           :       36.000098192045 electrons
E(XC)              :      -21.354468520329 Eh       
DFET-embed. en.    :        0.000000000000 Eh       

---------------
SCF CONVERGENCE
---------------

  Last Energy change         ...   -8.4390e-10  Tolerance :   1.0000e-08
  Last MAX-Density change    ...    2.2214e-06  Tolerance :   1.0000e-07
  Last RMS-Density change    ...    9.7736e-08  Tolerance :   5.0000e-09
  Last Orbital Gradient      ...    9.9011e-07  Tolerance :   1.0000e-05
  Last Orbital Rotation      ...    1.9764e-06  Tolerance :   1.0000e-05

             **** THE GBW FILE WAS UPDATED (7-146_DFT_AB.gbw) ****
             **** DENSITY FILE WAS UPDATED (7-146_DFT_AB.scfp.tmp) ****
             **** ENERGY FILE WAS UPDATED (7-146_DFT_AB.en.tmp) ****
----------------
ORBITAL ENERGIES
----------------

  NO   OCC          E(Eh)            E(eV) 
   0   2.0000     -19.252766      -523.8944 
   1   2.0000     -19.204969      -522.5938 
   2   2.0000     -10.325833      -280.9802 
   3   2.0000     -10.293553      -280.1018 
   4   2.0000      -1.158134       -31.5144 
   5   2.0000      -1.135222       -30.8910 
   6   2.0000      -0.817267       -22.2390 
   7   2.0000      -0.782940       -21.3049 
   8   2.0000      -0.642230       -17.4760 
   9   2.0000      -0.600185       -16.3319 
  10   2.0000      -0.550966       -14.9925 
  11   2.0000      -0.541515       -14.7354 
  12   2.0000      -0.531803       -14.4711 
  13   2.0000      -0.518509       -14.1093 
  14   2.0000      -0.461167       -12.5490 
  15   2.0000      -0.417357       -11.3569 
  16   2.0000      -0.393688       -10.7128 
  17   2.0000      -0.352554        -9.5935 
  18   0.0000       0.100943         2.7468 
  19   0.0000       0.137858         3.7513 
  20   0.0000       0.152612         4.1528 
  21   0.0000       0.181416         4.9366 
  22   0.0000       0.194469         5.2918 
  23   0.0000       0.201954         5.4954 
  24   0.0000       0.222609         6.0575 
  25   0.0000       0.226507         6.1636 
  26   0.0000       0.242701         6.6042 
  27   0.0000       0.269098         7.3225 
  28   0.0000       0.293057         7.9745 
  29   0.0000       0.311315         8.4713 
  30   0.0000       0.322414         8.7733 
  31   0.0000       0.370094        10.0708 
  32   0.0000       0.414101        11.2683 
  33   0.0000       0.439450        11.9580 
  34   0.0000       0.452396        12.3103 
  35   0.0000       0.461235        12.5508 
  36   0.0000       0.483071        13.1450 
  37   0.0000       0.506229        13.7752 
  38   0.0000       0.529408        14.4059 
  39   0.0000       0.538910        14.6645 
  40   0.0000       0.558188        15.1891 
  41   0.0000       0.577887        15.7251 
  42   0.0000       0.580902        15.8071 
  43   0.0000       0.602425        16.3928 
  44   0.0000       0.621092        16.9008 
  45   0.0000       0.639795        17.4097 
  46   0.0000       0.652576        17.7575 
  47   0.0000       0.659950        17.9582 
  48   0.0000       0.720419        19.6036 
  49   0.0000       0.777318        21.1519 
  50   0.0000       0.781610        21.2687 
  51   0.0000       0.820163        22.3178 
  52   0.0000       0.834275        22.7018 
  53   0.0000       0.864838        23.5334 
  54   0.0000       0.901180        24.5223 
  55   0.0000       0.961641        26.1676 
  56   0.0000       0.991624        26.9835 
  57   0.0000       1.023493        27.8507 
  58   0.0000       1.031433        28.0667 
  59   0.0000       1.101715        29.9792 
  60   0.0000       1.118786        30.4437 
  61   0.0000       1.144809        31.1518 
  62   0.0000       1.382258        37.6132 
  63   0.0000       1.445366        39.3304 
  64   0.0000       1.474520        40.1237 
  65   0.0000       1.509022        41.0626 
  66   0.0000       1.547527        42.1103 
  67   0.0000       1.557940        42.3937 
  68   0.0000       1.582616        43.0652 
  69   0.0000       1.619728        44.0750 
  70   0.0000       1.629084        44.3296 
  71   0.0000       1.637736        44.5651 
  72   0.0000       1.656193        45.0673 
  73   0.0000       1.666742        45.3543 
  74   0.0000       1.680460        45.7276 
  75   0.0000       1.709668        46.5224 
  76   0.0000       1.731255        47.1098 
  77   0.0000       1.764529        48.0153 
  78   0.0000       1.785195        48.5776 
  79   0.0000       1.884227        51.2724 
  80   0.0000       1.964622        53.4601 
  81   0.0000       1.976641        53.7871 
  82   0.0000       1.990132        54.1542 
  83   0.0000       2.048000        55.7289 
  84   0.0000       2.072273        56.3894 
  85   0.0000       2.085375        56.7459 
  86   0.0000       2.109604        57.4052 
  87   0.0000       2.138802        58.1998 
  88   0.0000       2.155618        58.6574 
  89   0.0000       2.196549        59.7711 
  90   0.0000       2.269945        61.7683 
  91   0.0000       2.284364        62.1607 
  92   0.0000       2.303281        62.6755 
  93   0.0000       2.332917        63.4819 
  94   0.0000       2.361496        64.2596 
  95   0.0000       2.397673        65.2440 
  96   0.0000       2.420982        65.8783 
  97   0.0000       2.448733        66.6334 
  98   0.0000       2.493464        67.8506 
  99   0.0000       2.501003        68.0557 
 100   0.0000       2.552041        69.4446 
 101   0.0000       2.581652        70.2503 
 102   0.0000       2.584625        70.3312 
 103   0.0000       2.630534        71.5805 
 104   0.0000       2.667361        72.5826 
 105   0.0000       2.676869        72.8413 
 106   0.0000       2.735926        74.4483 
 107   0.0000       2.747147        74.7537 
 108   0.0000       2.856342        77.7250 
 109   0.0000       2.866571        78.0034 
 110   0.0000       2.890755        78.6615 
 111   0.0000       2.917839        79.3984 
 112   0.0000       2.952869        80.3517 
 113   0.0000       2.988369        81.3177 
 114   0.0000       3.027289        82.3767 
 115   0.0000       3.038178        82.6730 
 116   0.0000       3.092598        84.1539 
 117   0.0000       3.144975        85.5791 
 118   0.0000       3.158971        85.9600 
 119   0.0000       3.219211        87.5992 
 120   0.0000       3.262316        88.7721 
 121   0.0000       3.282207        89.3134 
 122   0.0000       3.351716        91.2048 
 123   0.0000       3.404226        92.6337 
 124   0.0000       3.472632        94.4951 
 125   0.0000       3.490701        94.9868 
 126   0.0000       3.520588        95.8001 
 127   0.0000       3.569777        97.1386 
 128   0.0000       3.587059        97.6088 
 129   0.0000       3.641462        99.0892 
 130   0.0000       3.652733        99.3959 
 131   0.0000       3.666822        99.7793 
 132   0.0000       3.706221       100.8514 
 133   0.0000       3.711433       100.9932 
 134   0.0000       4.023878       109.4953 
 135   0.0000       4.081721       111.0693 
 136   0.0000       4.185604       113.8961 
 137   0.0000       4.300173       117.0137 
 138   0.0000       4.340698       118.1164 
 139   0.0000       4.378924       119.1566 
 140   0.0000       4.439128       120.7948 
 141   0.0000       4.474891       121.7680 
 142   0.0000       4.536187       123.4359 
 143   0.0000       4.606569       125.3511 
 144   0.0000       5.316905       144.6803 
 145   0.0000       5.404624       147.0673 
 146   0.0000       5.423403       147.5783 
 147   0.0000       5.515467       150.0835 
 148   0.0000       5.549740       151.0161 
 149   0.0000       5.614189       152.7699 
 150   0.0000       5.773112       157.0944 
 151   0.0000       5.809216       158.0768 
 152   0.0000       5.838855       158.8833 
 153   0.0000       5.916589       160.9986 
 154   0.0000       5.935963       161.5258 
 155   0.0000       6.098087       165.9374 
 156   0.0000       6.387568       173.8146 
 157   0.0000       6.501217       176.9071 
 158   0.0000       6.506272       177.0447 
 159   0.0000       6.567263       178.7043 
 160   0.0000       6.758094       183.8971 
 161   0.0000       6.765590       184.1011 
 162   0.0000       6.834320       185.9713 
 163   0.0000       6.860345       186.6795 
 164   0.0000       7.040877       191.5920 
 165   0.0000       7.063012       192.1943 
 166   0.0000       7.215105       196.3330 
 167   0.0000       7.338869       199.7008 
 168   0.0000      22.385106       609.1297 
 169   0.0000      22.564595       614.0139 
 170   0.0000      43.675420      1188.4686 
 171   0.0000      43.749678      1190.4893 

                    ********************************
                    * MULLIKEN POPULATION ANALYSIS *
                    ********************************

-----------------------
MULLIKEN ATOMIC CHARGES
-----------------------
   0 C :   -0.187905
   1 O :   -0.496701
   2 H :    0.319733
   3 H :    0.118703
   4 H :    0.109153
   5 H :    0.146864
   6 C :   -0.170080
   7 O :   -0.456993
   8 H :    0.321141
   9 H :    0.117528
  10 H :    0.095871
  11 H :    0.082686
Sum of atomic charges:   -0.0000000

--------------------------------
MULLIKEN REDUCED ORBITAL CHARGES
--------------------------------
  0 C s       :     3.223709  s :     3.223709
      pz      :     1.071649  p :     2.864660
      px      :     1.082533
      py      :     0.710478
      dz2     :     0.016604  d :     0.092266
      dxz     :     0.008584
      dyz     :     0.021763
      dx2y2   :     0.009517
      dxy     :     0.035799
      f0      :     0.000621  f :     0.007270
      f+1     :     0.000511
      f-1     :     0.001228
      f+2     :     0.000973
      f-2     :     0.000555
      f+3     :     0.001956
      f-3     :     0.001426
  1 O s       :     3.787109  s :     3.787109
      pz      :     1.365701  p :     4.680704
      px      :     1.909518
      py      :     1.405485
      dz2     :     0.011493  d :     0.027198
      dxz     :     0.001190
      dyz     :     0.003687
      dx2y2   :     0.006689
      dxy     :     0.004140
      f0      :     0.000724  f :     0.001689
      f+1     :     0.000098
      f-1     :     0.000081
      f+2     :     0.000220
      f-2     :     0.000044
      f+3     :     0.000211
      f-3     :     0.000311
  2 H s       :     0.628969  s :     0.628969
      pz      :     0.020484  p :     0.051298
      px      :     0.018811
      py      :     0.012003
  3 H s       :     0.860034  s :     0.860034
      pz      :     0.004883  p :     0.021263
      px      :     0.010414
      py      :     0.005966
  4 H s       :     0.871705  s :     0.871705
      pz      :     0.006388  p :     0.019142
      px      :     0.006925
      py      :     0.005830
  5 H s       :     0.832786  s :     0.832786
      pz      :     0.011830  p :     0.020350
      px      :     0.005843
      py      :     0.002677
  6 C s       :     3.209159  s :     3.209159
      pz      :     0.981526  p :     2.842978
      px      :     0.796362
      py      :     1.065090
      dz2     :     0.021646  d :     0.109509
      dxz     :     0.012928
      dyz     :     0.030774
      dx2y2   :     0.022331
      dxy     :     0.021831
      f0      :     0.000522  f :     0.008434
      f+1     :     0.001821
      f-1     :     0.000157
      f+2     :     0.002143
      f-2     :     0.001609
      f+3     :     0.000737
      f-3     :     0.001446
  7 O s       :     3.786187  s :     3.786187
      pz      :     1.301715  p :     4.638023
      px      :     1.497368
      py      :     1.838940
      dz2     :     0.005887  d :     0.031081
      dxz     :     0.009374
      dyz     :     0.004220
      dx2y2   :     0.006736
      dxy     :     0.004865
      f0      :     0.000225  f :     0.001701
      f+1     :     0.000356
      f-1     :     0.000298
      f+2     :     0.000265
      f-2     :     0.000205
      f+3     :     0.000198
      f-3     :     0.000155
  8 H s       :     0.621839  s :     0.621839
      pz      :     0.024967  p :     0.057020
      px      :     0.012848
      py      :     0.019204
  9 H s       :     0.860338  s :     0.860338
      pz      :     0.009290  p :     0.022134
      px      :     0.004081
      py      :     0.008763
 10 H s       :     0.885386  s :     0.885386
      pz      :     0.005334  p :     0.018743
      px      :     0.009400
      py      :     0.004009
 11 H s       :     0.897806  s :     0.897806
      pz      :     0.006036  p :     0.019508
      px      :     0.003125
      py      :     0.010347


                     *******************************
                     * LOEWDIN POPULATION ANALYSIS *
                     *******************************

----------------------
LOEWDIN ATOMIC CHARGES
----------------------
   0 C :   -0.368923
   1 O :   -0.072245
   2 H :    0.158346
   3 H :    0.089048
   4 H :    0.107018
   5 H :    0.111729
   6 C :   -0.413910
   7 O :   -0.028358
   8 H :    0.136695
   9 H :    0.085484
  10 H :    0.100970
  11 H :    0.094144

-------------------------------
LOEWDIN REDUCED ORBITAL CHARGES
-------------------------------
  0 C s       :     2.856191  s :     2.856191
      pz      :     1.088801  p :     3.065180
      px      :     1.127678
      py      :     0.848701
      dz2     :     0.072787  d :     0.394605
      dxz     :     0.030001
      dyz     :     0.076707
      dx2y2   :     0.075364
      dxy     :     0.139746
      f0      :     0.003766  f :     0.052946
      f+1     :     0.002359
      f-1     :     0.010038
      f+2     :     0.007722
      f-2     :     0.006882
      f+3     :     0.011085
      f-3     :     0.011094
  1 O s       :     3.353693  s :     3.353693
      pz      :     1.369261  p :     4.647192
      px      :     1.802473
      py      :     1.475458
      dz2     :     0.026089  d :     0.066965
      dxz     :     0.001662
      dyz     :     0.013111
      dx2y2   :     0.013981
      dxy     :     0.012123
      f0      :     0.001645  f :     0.004395
      f+1     :     0.000028
      f-1     :     0.000535
      f+2     :     0.000616
      f-2     :     0.000187
      f+3     :     0.000752
      f-3     :     0.000632
  2 H s       :     0.672681  s :     0.672681
      pz      :     0.083996  p :     0.168973
      px      :     0.051536
      py      :     0.033440
  3 H s       :     0.842338  s :     0.842338
      pz      :     0.016419  p :     0.068614
      px      :     0.034136
      py      :     0.018060
  4 H s       :     0.837182  s :     0.837182
      pz      :     0.019252  p :     0.055800
      px      :     0.019917
      py      :     0.016631
  5 H s       :     0.825347  s :     0.825347
      pz      :     0.036024  p :     0.062924
      px      :     0.018405
      py      :     0.008495
  6 C s       :     2.844973  s :     2.844973
      pz      :     1.023766  p :     3.060397
      px      :     0.931779
      py      :     1.104852
      dz2     :     0.061480  d :     0.445359
      dxz     :     0.096909
      dyz     :     0.109460
      dx2y2   :     0.112073
      dxy     :     0.065437
      f0      :     0.008763  f :     0.063181
      f+1     :     0.013613
      f-1     :     0.002239
      f+2     :     0.009770
      f-2     :     0.010227
      f+3     :     0.007397
      f-3     :     0.011172
  7 O s       :     3.328690  s :     3.328690
      pz      :     1.327633  p :     4.619022
      px      :     1.555149
      py      :     1.736240
      dz2     :     0.019768  d :     0.075249
      dxz     :     0.021048
      dyz     :     0.010352
      dx2y2   :     0.013118
      dxy     :     0.010962
      f0      :     0.000475  f :     0.005397
      f+1     :     0.001620
      f-1     :     0.000566
      f+2     :     0.000784
      f-2     :     0.000920
      f+3     :     0.000548
      f-3     :     0.000484
  8 H s       :     0.678462  s :     0.678462
      pz      :     0.080057  p :     0.184843
      px      :     0.046171
      py      :     0.058615
  9 H s       :     0.844029  s :     0.844029
      pz      :     0.028282  p :     0.070487
      px      :     0.013496
      py      :     0.028708
 10 H s       :     0.843362  s :     0.843362
      pz      :     0.016400  p :     0.055668
      px      :     0.026844
      py      :     0.012424
 11 H s       :     0.849313  s :     0.849313
      pz      :     0.017064  p :     0.056543
      px      :     0.009411
      py      :     0.030068


                      *****************************
                      * MAYER POPULATION ANALYSIS *
                      *****************************

  NA   - Mulliken gross atomic population
  ZA   - Total nuclear charge
  QA   - Mulliken gross atomic charge
  VA   - Mayer's total valence
  BVA  - Mayer's bonded valence
  FA   - Mayer's free valence

  ATOM       NA         ZA         QA         VA         BVA        FA
  0 C      6.1879     6.0000    -0.1879     3.8839     3.8839    -0.0000
  1 O      8.4967     8.0000    -0.4967     1.8967     1.8967    -0.0000
  2 H      0.6803     1.0000     0.3197     0.9172     0.9172    -0.0000
  3 H      0.8813     1.0000     0.1187     0.9468     0.9468    -0.0000
  4 H      0.8908     1.0000     0.1092     0.9636     0.9636    -0.0000
  5 H      0.8531     1.0000     0.1469     0.9678     0.9678    -0.0000
  6 C      6.1701     6.0000    -0.1701     3.9710     3.9710    -0.0000
  7 O      8.4570     8.0000    -0.4570     1.8930     1.8930    -0.0000
  8 H      0.6789     1.0000     0.3211     0.9385     0.9385    -0.0000
  9 H      0.8825     1.0000     0.1175     0.9528     0.9528    -0.0000
 10 H      0.9041     1.0000     0.0959     0.9629     0.9629    -0.0000
 11 H      0.9173     1.0000     0.0827     0.9531     0.9531     0.0000

  Mayer bond orders larger than 0.1
B(  0-C ,  1-O ) :   0.9545 B(  0-C ,  3-H ) :   0.9695 B(  0-C ,  4-H ) :   0.9786 
B(  0-C ,  5-H ) :   0.9702 B(  1-O ,  2-H ) :   0.8987 B(  6-C ,  7-O ) :   1.0167 
B(  6-C ,  9-H ) :   0.9764 B(  6-C , 10-H ) :   0.9867 B(  6-C , 11-H ) :   0.9804 
B(  7-O ,  8-H ) :   0.8825 

-------
TIMINGS
-------

Total SCF time: 0 days 0 hours 0 min 21 sec 

Total time                  ....      21.130 sec
Sum of individual times     ....      20.777 sec  ( 98.3%)

Fock matrix formation       ....      20.211 sec  ( 95.7%)
  XC integration            ....      10.023 sec  ( 49.6% of F)
    Basis function eval.    ....       0.064 sec  (  0.6% of XC)
    Density eval.           ....       0.076 sec  (  0.8% of XC)
    XC-Functional eval.     ....       0.097 sec  (  1.0% of XC)
    XC-Potential eval.      ....       0.073 sec  (  0.7% of XC)
Diagonalization             ....       0.063 sec  (  0.3%)
Density matrix formation    ....       0.011 sec  (  0.1%)
Population analysis         ....       0.023 sec  (  0.1%)
Initial guess               ....       0.108 sec  (  0.5%)
Orbital Transformation      ....       0.000 sec  (  0.0%)
Orbital Orthonormalization  ....       0.000 sec  (  0.0%)
DIIS solution               ....       0.043 sec  (  0.2%)
SOSCF solution              ....       0.031 sec  (  0.1%)
Grid generation             ....       0.287 sec  (  1.4%)


-------------------------------------------------------------------------------
                          DFT DISPERSION CORRECTION                            
                                                                               
                              DFTD3 V3.1  Rev 1                                
                              USING zero damping                               
-------------------------------------------------------------------------------
The omegaB97X-D3 functional is recognized. Fit by Chai et al.
Active option DFTDOPT                   ...         3   

molecular C6(AA) [au] = 834.619483 


            DFT-D V3
 parameters
 s6 scaling factor         :     1.0000 
 rs6 scaling factor        :     1.2810 
 s8 scaling factor         :     1.0000 
 rs8 scaling factor        :     1.0940 
 Damping factor alpha6     :    14.0000 
 Damping factor alpha8     :    16.0000 
 ad hoc parameters k1-k3   :    16.0000     1.3333    -4.0000 

 Edisp/kcal,au: -1.247357609377  -0.001987790668 
 E6   /kcal   :  -0.546584789 
 E8   /kcal   :  -0.700772820 
 % E8         :  56.180586474 

-------------------------   ----------------
Dispersion correction           -0.001987791
-------------------------   ----------------


-------------------------   --------------------
FINAL SINGLE POINT ENERGY      -231.468128501597
-------------------------   --------------------


                            ***************************************
                            *     ORCA property calculations      *
                            ***************************************

                                    ---------------------
                                    Active property flags
                                    ---------------------
   (+) Dipole Moment


------------------------------------------------------------------------------
                       ORCA ELECTRIC PROPERTIES CALCULATION
------------------------------------------------------------------------------

Dipole Moment Calculation                       ... on
Quadrupole Moment Calculation                   ... off
Polarizability Calculation                      ... off
GBWName                                         ... 7-146_DFT_AB.gbw
Electron density file                           ... 7-146_DFT_AB.scfp.tmp
The origin for moment calculation is the CENTER OF MASS  = ( 7.334978,  8.452217 -1.584468)

-------------
DIPOLE MOMENT
-------------
                                X             Y             Z
Electronic contribution:     -1.54592       2.16868       1.43477
Nuclear contribution   :      2.10208      -3.02832      -0.57699
                        -----------------------------------------
Total Dipole Moment    :      0.55616      -0.85964       0.85777
                        -----------------------------------------
Magnitude (a.u.)       :      1.33569
Magnitude (Debye)      :      3.39505



--------------------
Rotational spectrum 
--------------------
 
Rotational constants in cm-1:     0.480012     0.085484     0.080254 
Rotational constants in MHz : 14390.393794  2562.753823  2405.945889 

 Dipole components along the rotational axes: 
x,y,z [a.u.] :     1.127864    -0.442739    -0.562113 
x,y,z [Debye]:     2.866803    -1.125352    -1.428778 

 
------------------------------------------------------------------------------
                      ORCA CHELPG CHARGES GENERATION
------------------------------------------------------------------------------

GBW file                           ... 7-146_DFT_AB.gbw

Reading the GBW file               ... done

Grid spacing                       ...     0.300000
Point Cut-Off                      ...     2.800000
Van-der-Waals Radii                ...        COSMO
Total charge                       ...            0


Number of points X direction       ...           26
Number of points Y direction       ...           31
Number of points Z direction       ...           35
Maximum number of possible points  ...        28210
Final number of points             ...         9605


CHELPG Charges            
--------------------------------
  0   C   :       0.038401
  1   O   :      -0.626821
  2   H   :       0.437490
  3   H   :       0.050757
  4   H   :       0.031108
  5   H   :       0.088599
  6   C   :       0.217294
  7   O   :      -0.592529
  8   H   :       0.380076
  9   H   :       0.020363
 10   H   :      -0.028539
 11   H   :      -0.016198
--------------------------------
Total charge:    -0.000000
--------------------------------

CHELPG charges calculated...

Timings for individual parts in CHELPG calculation:
Grid generation                 ...        0.001 sec (=   0.000 min)
Potential calculation           ...        2.139 sec (=   0.036 min)
Fit to the potential            ...        0.003 sec (=   0.000 min)
------------------------------------------------------------------------------


Timings for individual modules:

Sum of individual times         ...       29.283 sec (=   0.488 min)
GTO integral calculation        ...        3.913 sec (=   0.065 min)  13.4 %
SCF iterations                  ...       23.191 sec (=   0.387 min)  79.2 %
CHELPG charge generation        ...        2.178 sec (=   0.036 min)   7.4 %


                 $$$$$$$$$$$$$$$$  JOB NUMBER  2 $$$$$$$$$$$$$$


                       ****************************
                       * Single Point Calculation *
                       ****************************

---------------------------------
CARTESIAN COORDINATES (ANGSTROEM)
---------------------------------
  C      3.721256    2.865454    0.278842
  O      3.810652    4.224513    0.718855
  H      3.847158    4.251311    1.654711
  H      4.630489    2.337793    0.330650
  H      3.118835    2.213713    0.975832
  H      3.309772    2.784025   -0.718189
  C      4.556806    5.347333   -2.628685
  O      3.423993    5.475076   -1.851315
  H      3.701064    5.189540   -1.017325
  H      4.699981    6.061713   -3.358107
  H      5.501978    5.323743   -2.028070
  H      4.491684    4.380159   -3.170814

----------------------------
CARTESIAN COORDINATES (A.U.)
----------------------------
  NO LB      ZA    FRAG     MASS         X           Y           Z
   0 C     6.0000    0    12.011    7.032155    5.414923    0.526935
   1 O     8.0000    0    15.999    7.201089    7.983173    1.358439
   2 H     1.0000    0     1.008    7.270075    8.033814    3.126951
   3 H     1.0000    0     1.008    8.750356    4.417789    0.624838
   4 H     1.0000    0     1.008    5.893744    4.183311    1.844055
   5 H     1.0000    0     1.008    6.254563    5.261045   -1.357181
   6 C     0.0000    0     0.000    8.611115   10.104995   -4.967495
   7 O     0.0000    0     0.000    6.470409   10.346394   -3.498478
   8 H     0.0000    0     0.000    6.993997    9.806809   -1.922466
   9 H     0.0000    0     0.000    8.881677   11.454977   -6.345903
  10 H     0.0000    0     0.000   10.397232   10.060416   -3.832497
  11 H     0.0000    0     0.000    8.488053    8.277301   -5.991970

--------------------------------
INTERNAL COORDINATES (ANGSTROEM)
--------------------------------
 C      0   0   0     0.000000000000     0.00000000     0.00000000
 O      1   0   0     1.431308649616     0.00000000     0.00000000
 H      2   1   0     0.936951051857   109.67301566     0.00000000
 H      1   2   3     1.052527837197   114.01244290   283.82113579
 H      1   2   3     1.128482366908   113.06985918    34.78479857
 H      1   2   3     1.081674895363   112.24722605   158.37435938
 C      6   1   2     3.431564754749   108.58430828    39.03211027
 O      7   6   1     1.379814365746    57.12183008   272.94852613
 H      8   7   6     0.924033801566   103.51535551    52.46605550
 H      7   6   1     1.030967661524   164.14726696   201.69824739
 H      7   6   1     1.120109358906    89.56354854    31.14151305
 H      7   6   1     1.110662088036    66.41992926   139.97896143

---------------------------
INTERNAL COORDINATES (A.U.)
---------------------------
 C      0   0   0     0.000000000000     0.00000000     0.00000000
 O      1   0   0     2.704781360887     0.00000000     0.00000000
 H      2   1   0     1.770580888899   109.67301566     0.00000000
 H      1   2   3     1.988989360630   114.01244290   283.82113579
 H      1   2   3     2.132522620415   113.06985918    34.78479857
 H      1   2   3     2.044069318174   112.24722605   158.37435938
 C      6   1   2     6.484717597292   108.58430828    39.03211027
 O      7   6   1     2.607471266909    57.12183008   272.94852613
 H      8   7   6     1.746170823446   103.51535551    52.46605550
 H      7   6   1     1.948246533210   164.14726696   201.69824739
 H      7   6   1     2.116699928375    89.56354854    31.14151305
 H      7   6   1     2.098847173718    66.41992926   139.97896143

---------------------
BASIS SET INFORMATION
---------------------
There are 3 groups of distinct atoms

 Group   1 Type C   : 11s6p2d1f contracted to 5s3p2d1f pattern {62111/411/11/1}
 Group   2 Type O   : 11s6p2d1f contracted to 5s3p2d1f pattern {62111/411/11/1}
 Group   3 Type H   : 5s1p contracted to 3s1p pattern {311/1}

Atom   0C    basis set group =>   1
Atom   1O    basis set group =>   2
Atom   2H    basis set group =>   3
Atom   3H    basis set group =>   3
Atom   4H    basis set group =>   3
Atom   5H    basis set group =>   3
Atom   6C    basis set group =>   1
Atom   7O    basis set group =>   2
Atom   8H    basis set group =>   3
Atom   9H    basis set group =>   3
Atom  10H    basis set group =>   3
Atom  11H    basis set group =>   3


           ************************************************************
           *        Program running with 8 parallel MPI-processes     *
           *              working on a common directory               *
           ************************************************************
------------------------------------------------------------------------------
                           ORCA GTO INTEGRAL CALCULATION
------------------------------------------------------------------------------

                         BASIS SET STATISTICS AND STARTUP INFO

 # of primitive gaussian shells          ...  128
 # of primitive gaussian functions       ...  248
 # of contracted shells                  ...   76
 # of contracted basis functions         ...  172
 Highest angular momentum                ...    3
 Maximum contraction depth               ...    6
 Integral package used                   ... LIBINT
 Integral threshhold            Thresh   ...  2.500e-11
 Primitive cut-off              TCut     ...  2.500e-12


------------------------------ INTEGRAL EVALUATION ----------------------------


 * One electron integrals 
 Pre-screening matrix                    ... done
 Shell pair data                         ... done (   0.001 sec)



           ************************************************************
           *        Program running with 8 parallel MPI-processes     *
           *              working on a common directory               *
           ************************************************************
-------------------------------------------------------------------------------
                                 ORCA SCF
-------------------------------------------------------------------------------

------------
SCF SETTINGS
------------
Hamiltonian:
 Density Functional     Method          .... DFT(GTOs)
 Exchange Functional    Exchange        .... WB97X-D3
 Correlation Functional Correlation     .... WB97X-D3
 Gradients option       PostSCFGGA      .... off
 Hybrid DFT is turned on
   Fraction HF Exchange ScalHFX         ....  0.195728
   Scaling of DF-GGA-X  ScalDFX         ....  0.000000
   Scaling of DF-GGA-C  ScalDFC         ....  1.000000
   Scaling of DF-LDA-C  ScalLDAC        ....  1.000000
   Perturbative correction              ....  0.000000
   Density functional embedding theory  .... OFF
 Long-range corrected/Screened/Range-Separated Hybrid DFT is turned on
   Amount of maximum screened exact exchange              ....  0.804272
   Range separation parameter mu (erf(mu*r12)/r12)        ....  0.250000


General Settings:
 Integral files         IntName         .... 7-146_DFT_A
 Hartree-Fock type      HFTyp           .... RHF
 Total Charge           Charge          ....    0
 Multiplicity           Mult            ....    1
 Number of Electrons    NEL             ....   18
 Basis Dimension        Dim             ....  172
 Nuclear Repulsion      ENuc            ....     40.2254333867 Eh

Convergence Acceleration:
 DIIS                   CNVDIIS         .... on
   Start iteration      DIISMaxIt       ....    12
   Startup error        DIISStart       ....  0.200000
   # of expansion vecs  DIISMaxEq       ....     5
   Bias factor          DIISBfac        ....   1.050
   Max. coefficient     DIISMaxC        ....  10.000
 Newton-Raphson         CNVNR           .... off
 SOSCF                  CNVSOSCF        .... on
   Start iteration      SOSCFMaxIt      ....   150
   Startup grad/error   SOSCFStart      ....  0.003300
 Level Shifting         CNVShift        .... on
   Level shift para.    LevelShift      ....    0.2500
   Turn off err/grad.   ShiftErr        ....    0.0010
 Zerner damping         CNVZerner       .... off
 Static damping         CNVDamp         .... on
   Fraction old density DampFac         ....    0.7000
   Max. Damping (<1)    DampMax         ....    0.9800
   Min. Damping (>=0)   DampMin         ....    0.0000
   Turn off err/grad.   DampErr         ....    0.1000
 Fernandez-Rico         CNVRico         .... off

SCF Procedure:
 Maximum # iterations   MaxIter         ....  1000
 SCF integral mode      SCFMode         .... Direct
   Integral package                     .... LIBINT
 Reset frequency        DirectResetFreq ....    20
 Integral Threshold     Thresh          ....  2.500e-11 Eh
 Primitive CutOff       TCut            ....  2.500e-12 Eh

Convergence Tolerance:
 Convergence Check Mode ConvCheckMode   .... Total+1el-Energy
 Convergence forced     ConvForced      .... 0
 Energy Change          TolE            ....  1.000e-08 Eh
 1-El. energy change                    ....  1.000e-05 Eh
 Orbital Gradient       TolG            ....  1.000e-05
 Orbital Rotation angle TolX            ....  1.000e-05
 DIIS Error             TolErr          ....  5.000e-07


Diagonalization of the overlap matrix:
Smallest eigenvalue                        ... 1.485e-03
Time for diagonalization                   ...    0.004 sec
Threshold for overlap eigenvalues          ... 1.000e-08
Number of eigenvalues below threshold      ... 0
Time for construction of square roots      ...    0.005 sec
Total time needed                          ...    0.010 sec

-------------------
DFT GRID GENERATION
-------------------

General Integration Accuracy     IntAcc      ...  4.340
Radial Grid Type                 RadialGrid  ... Gauss-Chebyshev
Angular Grid (max. acc.)         AngularGrid ... Lebedev-110
Angular grid pruning method      GridPruning ... 3 (G Style)
Weight generation scheme         WeightScheme... Becke
Basis function cutoff            BFCut       ...    1.0000e-11
Integration weight cutoff        WCut        ...    1.0000e-14
Grids for H and He will be reduced by one unit

# of grid points (after initial pruning)     ...  13096 (   0.0 sec)
# of grid points (after weights+screening)   ...  12425 (   0.0 sec)
nearest neighbour list constructed           ...    0.0 sec
Grid point re-assignment to atoms done       ...    0.0 sec
Grid point division into batches done        ...    0.0 sec
Reduced shell lists constructed in    0.0 sec

Total number of grid points                  ...    12425
Total number of batches                      ...      201
Average number of points per batch           ...       61
Average number of grid points per atom       ...     1035
Average number of shells per batch           ...    59.22 (77.92%)
Average number of basis functions per batch  ...   134.78 (78.36%)
Average number of large shells per batch     ...    49.07 (82.86%)
Average number of large basis fcns per batch ...   110.41 (81.92%)
Maximum spatial batch extension              ...   6.07,  3.79,  2.47 au
Average spatial batch extension              ...   0.25,  0.21,  0.20 au

Time for grid setup =    0.040 sec

------------------------------
INITIAL GUESS: MODEL POTENTIAL
------------------------------
Loading Hartree-Fock densities                     ... done
Calculating cut-offs                               ... done
Setting up the integral package                    ... done
Initializing the effective Hamiltonian             ... done
Starting the Coulomb interaction                   ... done (   0.0 sec)
Reading the grid                                   ... done
Mapping shells                                     ... done
Starting the XC term evaluation                    ... done (   0.0 sec)
  promolecular density results
     # of electrons  =     17.999477107
     EX              =    -14.431968761
     EC              =     -0.574828108
     EX+EC           =    -15.006796869
Transforming the Hamiltonian                       ... done (   0.0 sec)
Diagonalizing the Hamiltonian                      ... done (   0.0 sec)
Back transforming the eigenvectors                 ... done (   0.0 sec)
Now organizing SCF variables                       ... done
                      ------------------
                      INITIAL GUESS DONE (   0.1 sec)
                      ------------------
--------------
SCF ITERATIONS
--------------
ITER       Energy         Delta-E        Max-DP      RMS-DP      [F,P]     Damp
               ***  Starting incremental Fock matrix formation  ***
  0   -115.6450395779   0.000000000000 0.03749335  0.00075748  0.2484806 0.7000
  1   -115.6817243740  -0.036684796153 0.02340754  0.00054102  0.1250214 0.7000
                               ***Turning on DIIS***
  2   -115.6987116926  -0.016987318560 0.03658236  0.00097901  0.0505907 0.0000
  3   -115.7264172940  -0.027705601368 0.01848100  0.00035742  0.0619202 0.0000
  4   -115.7308682845  -0.004450990522 0.00403720  0.00006941  0.0062943 0.0000
                      *** Initiating the SOSCF procedure ***
                           *** Shutting down DIIS ***
                      *** Re-Reading the Fockian *** 
                      *** Removing any level shift *** 
ITER      Energy       Delta-E        Grad      Rot      Max-DP    RMS-DP
  5   -115.73095976  -0.0000914792  0.000425  0.000425  0.000740  0.000024
               *** Restarting incremental Fock matrix formation ***
  6   -115.73096821  -0.0000084481  0.000128  0.000176  0.000583  0.000015
  7   -115.73096909  -0.0000008788  0.000046  0.000097  0.000300  0.000007
  8   -115.73096917  -0.0000000818  0.000020  0.000017  0.000030  0.000001
  9   -115.73096918  -0.0000000065  0.000009  0.000007  0.000013  0.000000
                  ***Gradient check signals convergence***
              ***Rediagonalizing the Fockian in SOSCF/NRSCF***

               *****************************************************
               *                     SUCCESS                       *
               *           SCF CONVERGED AFTER  10 CYCLES          *
               *****************************************************

Setting up the final grid:

General Integration Accuracy     IntAcc      ...  4.670
Radial Grid Type                 RadialGrid  ... Gauss-Chebyshev
Angular Grid (max. acc.)         AngularGrid ... Lebedev-302
Angular grid pruning method      GridPruning ... 3 (G Style)
Weight generation scheme         WeightScheme... Becke
Basis function cutoff            BFCut       ...    1.0000e-11
Integration weight cutoff        WCut        ...    1.0000e-14
Grids for H and He will be reduced by one unit

# of grid points (after initial pruning)     ...  52000 (   0.0 sec)
# of grid points (after weights+screening)   ...  48914 (   0.0 sec)
nearest neighbour list constructed           ...    0.0 sec
Grid point re-assignment to atoms done       ...    0.0 sec
Grid point division into batches done        ...    0.2 sec
Reduced shell lists constructed in    0.2 sec

Total number of grid points                  ...    48914
Total number of batches                      ...      771
Average number of points per batch           ...       63
Average number of grid points per atom       ...     4076
Average number of shells per batch           ...    58.32 (76.73%)
Average number of basis functions per batch  ...   131.03 (76.18%)
Average number of large shells per batch     ...    48.22 (82.69%)
Average number of large basis fcns per batch ...   107.51 (82.05%)
Maximum spatial batch extension              ...   6.75,  4.15,  2.34 au
Average spatial batch extension              ...   0.16,  0.14,  0.13 au

Final grid set up in    0.3 sec
Final integration                            ... done (   0.1 sec)
Change in XC energy                          ...    -0.000222333
Integrated number of electrons               ...    17.999977622
Previous integrated no of electrons          ...    17.998954648

----------------
TOTAL SCF ENERGY
----------------

Total Energy       :         -115.73119151 Eh           -3149.20582 eV

Components:
Nuclear Repulsion  :           40.22543339 Eh            1094.58969 eV
Electronic Energy  :         -155.95662490 Eh           -4243.79551 eV
One Electron Energy:         -236.82870813 Eh           -6444.43678 eV
Two Electron Energy:           80.87208323 Eh            2200.64126 eV

Virial components:
Potential Energy   :         -231.00106770 Eh           -6285.85862 eV
Kinetic Energy     :          115.26987619 Eh            3136.65280 eV
Virial Ratio       :            2.00400205


DFT components:
N(Alpha)           :        8.999988811140 electrons
N(Beta)            :        8.999988811140 electrons
N(Total)           :       17.999977622280 electrons
E(XC)              :      -10.658890792749 Eh       
DFET-embed. en.    :        0.000000000000 Eh       

---------------
SCF CONVERGENCE
---------------

  Last Energy change         ...   -1.2658e-09  Tolerance :   1.0000e-08
  Last MAX-Density change    ...    3.9209e-06  Tolerance :   1.0000e-07
  Last RMS-Density change    ...    1.0673e-07  Tolerance :   5.0000e-09
  Last Orbital Gradient      ...    2.2291e-06  Tolerance :   1.0000e-05
  Last Orbital Rotation      ...    2.7268e-06  Tolerance :   1.0000e-05

             **** THE GBW FILE WAS UPDATED (7-146_DFT_A.gbw) ****
             **** DENSITY FILE WAS UPDATED (7-146_DFT_A.scfp.tmp) ****
             **** ENERGY FILE WAS UPDATED (7-146_DFT_A.en.tmp) ****
----------------
ORBITAL ENERGIES
----------------

  NO   OCC          E(Eh)            E(eV) 
   0   2.0000     -19.230223      -523.2810 
   1   2.0000     -10.313856      -280.6543 
   2   2.0000      -1.135616       -30.9017 
   3   2.0000      -0.803291       -21.8586 
   4   2.0000      -0.617491       -16.8028 
   5   2.0000      -0.536739       -14.6054 
   6   2.0000      -0.525528       -14.3004 
   7   2.0000      -0.438744       -11.9388 
   8   2.0000      -0.373947       -10.1756 
   9   0.0000       0.097011         2.6398 
  10   0.0000       0.125383         3.4118 
  11   0.0000       0.151550         4.1239 
  12   0.0000       0.185173         5.0388 
  13   0.0000       0.203184         5.5289 
  14   0.0000       0.205277         5.5859 
  15   0.0000       0.216567         5.8931 
  16   0.0000       0.238105         6.4792 
  17   0.0000       0.251378         6.8403 
  18   0.0000       0.296998         8.0817 
  19   0.0000       0.320819         8.7299 
  20   0.0000       0.325014         8.8441 
  21   0.0000       0.340128         9.2554 
  22   0.0000       0.358303         9.7499 
  23   0.0000       0.391932        10.6650 
  24   0.0000       0.448276        12.1982 
  25   0.0000       0.453784        12.3481 
  26   0.0000       0.474823        12.9206 
  27   0.0000       0.498839        13.5741 
  28   0.0000       0.546252        14.8643 
  29   0.0000       0.561284        15.2733 
  30   0.0000       0.565606        15.3909 
  31   0.0000       0.587583        15.9889 
  32   0.0000       0.610319        16.6076 
  33   0.0000       0.620127        16.8745 
  34   0.0000       0.656793        17.8722 
  35   0.0000       0.697292        18.9743 
  36   0.0000       0.736480        20.0406 
  37   0.0000       0.765925        20.8419 
  38   0.0000       0.793026        21.5793 
  39   0.0000       0.805406        21.9162 
  40   0.0000       0.833177        22.6719 
  41   0.0000       0.853956        23.2373 
  42   0.0000       0.876718        23.8567 
  43   0.0000       0.987089        26.8601 
  44   0.0000       1.032614        28.0989 
  45   0.0000       1.072940        29.1962 
  46   0.0000       1.100684        29.9511 
  47   0.0000       1.114022        30.3141 
  48   0.0000       1.169889        31.8343 
  49   0.0000       1.178352        32.0646 
  50   0.0000       1.216970        33.1154 
  51   0.0000       1.241174        33.7741 
  52   0.0000       1.294173        35.2162 
  53   0.0000       1.385518        37.7019 
  54   0.0000       1.397535        38.0288 
  55   0.0000       1.425535        38.7908 
  56   0.0000       1.481504        40.3138 
  57   0.0000       1.515073        41.2272 
  58   0.0000       1.554994        42.3135 
  59   0.0000       1.579809        42.9888 
  60   0.0000       1.604586        43.6630 
  61   0.0000       1.645787        44.7841 
  62   0.0000       1.655825        45.0573 
  63   0.0000       1.705266        46.4026 
  64   0.0000       1.725392        46.9503 
  65   0.0000       1.792715        48.7822 
  66   0.0000       1.867539        50.8183 
  67   0.0000       1.937758        52.7291 
  68   0.0000       1.951336        53.0986 
  69   0.0000       1.995299        54.2948 
  70   0.0000       2.043320        55.6016 
  71   0.0000       2.084404        56.7195 
  72   0.0000       2.096477        57.0480 
  73   0.0000       2.158868        58.7458 
  74   0.0000       2.198559        59.8258 
  75   0.0000       2.224812        60.5402 
  76   0.0000       2.234093        60.7928 
  77   0.0000       2.271603        61.8135 
  78   0.0000       2.296701        62.4964 
  79   0.0000       2.321583        63.1735 
  80   0.0000       2.356494        64.1235 
  81   0.0000       2.370768        64.5119 
  82   0.0000       2.417280        65.7775 
  83   0.0000       2.471580        67.2551 
  84   0.0000       2.509646        68.2909 
  85   0.0000       2.556350        69.5618 
  86   0.0000       2.629406        71.5498 
  87   0.0000       2.668252        72.6068 
  88   0.0000       2.683469        73.0209 
  89   0.0000       2.719141        73.9916 
  90   0.0000       2.749115        74.8072 
  91   0.0000       2.773185        75.4622 
  92   0.0000       2.857084        77.7452 
  93   0.0000       2.872682        78.1697 
  94   0.0000       2.908439        79.1427 
  95   0.0000       2.925097        79.5959 
  96   0.0000       2.975930        80.9792 
  97   0.0000       3.035013        82.5869 
  98   0.0000       3.090678        84.1016 
  99   0.0000       3.139411        85.4277 
 100   0.0000       3.146156        85.6113 
 101   0.0000       3.164103        86.0996 
 102   0.0000       3.180680        86.5507 
 103   0.0000       3.255117        88.5762 
 104   0.0000       3.273340        89.0721 
 105   0.0000       3.319728        90.3344 
 106   0.0000       3.369386        91.6857 
 107   0.0000       3.391085        92.2761 
 108   0.0000       3.442278        93.6692 
 109   0.0000       3.493070        95.0513 
 110   0.0000       3.509771        95.5057 
 111   0.0000       3.594800        97.8195 
 112   0.0000       3.640379        99.0598 
 113   0.0000       3.658235        99.5456 
 114   0.0000       3.681665       100.1832 
 115   0.0000       3.736673       101.6800 
 116   0.0000       3.750062       102.0444 
 117   0.0000       4.041811       109.9833 
 118   0.0000       4.149153       112.9042 
 119   0.0000       4.156546       113.1054 
 120   0.0000       4.199087       114.2630 
 121   0.0000       4.278448       116.4225 
 122   0.0000       4.308332       117.2357 
 123   0.0000       4.366654       118.8227 
 124   0.0000       4.437560       120.7521 
 125   0.0000       4.457603       121.2975 
 126   0.0000       4.537628       123.4751 
 127   0.0000       4.560437       124.0958 
 128   0.0000       4.579504       124.6146 
 129   0.0000       4.600392       125.1830 
 130   0.0000       4.655902       126.6935 
 131   0.0000       5.073673       138.0617 
 132   0.0000       5.138587       139.8281 
 133   0.0000       5.185181       141.0959 
 134   0.0000       5.339653       145.2994 
 135   0.0000       5.410514       147.2276 
 136   0.0000       5.450121       148.3053 
 137   0.0000       5.532170       150.5380 
 138   0.0000       5.574458       151.6887 
 139   0.0000       5.779528       157.2689 
 140   0.0000       5.794274       157.6702 
 141   0.0000       5.833445       158.7361 
 142   0.0000       5.898296       160.5008 
 143   0.0000       5.959894       162.1770 
 144   0.0000       6.232631       169.5985 
 145   0.0000       6.439624       175.2311 
 146   0.0000       6.530012       177.6906 
 147   0.0000       6.711039       182.6167 
 148   0.0000       6.771836       184.2710 
 149   0.0000       6.784299       184.6101 
 150   0.0000       6.838552       186.0865 
 151   0.0000       6.914337       188.1487 
 152   0.0000       7.061122       192.1429 
 153   0.0000       7.185079       195.5160 
 154   0.0000       7.241428       197.0493 
 155   0.0000       7.376064       200.7129 
 156   0.0000       7.560717       205.7376 
 157   0.0000       8.388082       228.2513 
 158   0.0000       8.956504       243.7189 
 159   0.0000       9.392796       255.5910 
 160   0.0000       9.592159       261.0159 
 161   0.0000       9.640441       262.3297 
 162   0.0000       9.842376       267.8247 
 163   0.0000       9.942585       270.5515 
 164   0.0000      10.001188       272.1462 
[...]
  82   0.0000       2.455263        66.8111 
  83   0.0000       2.478467        67.4425 
  84   0.0000       2.526202        68.7415 
  85   0.0000       2.535389        68.9914 
  86   0.0000       2.558281        69.6144 
  87   0.0000       2.600605        70.7661 
  88   0.0000       2.647678        72.0470 
  89   0.0000       2.657150        72.3047 
  90   0.0000       2.686661        73.1078 
  91   0.0000       2.719331        73.9968 
  92   0.0000       2.786855        75.8342 
  93   0.0000       2.863418        77.9176 
  94   0.0000       2.912647        79.2572 
  95   0.0000       2.960909        80.5704 
  96   0.0000       2.968966        80.7897 
  97   0.0000       3.019441        82.1632 
  98   0.0000       3.058053        83.2138 
  99   0.0000       3.087536        84.0161 
 100   0.0000       3.118591        84.8612 
 101   0.0000       3.176688        86.4421 
 102   0.0000       3.198783        87.0433 
 103   0.0000       3.225860        87.7801 
 104   0.0000       3.265412        88.8564 
 105   0.0000       3.311501        90.1105 
 106   0.0000       3.382193        92.0342 
 107   0.0000       3.405534        92.6693 
 108   0.0000       3.410796        92.8125 
 109   0.0000       3.503558        95.3366 
 110   0.0000       3.555553        96.7515 
 111   0.0000       3.578158        97.3666 
 112   0.0000       3.637861        98.9912 
 113   0.0000       3.661280        99.6285 
 114   0.0000       3.691834       100.4599 
 115   0.0000       3.694427       100.5305 
 116   0.0000       3.816008       103.8389 
 117   0.0000       4.039804       109.9287 
 118   0.0000       4.080413       111.0337 
 119   0.0000       4.109865       111.8351 
 120   0.0000       4.266685       116.1024 
 121   0.0000       4.284056       116.5751 
 122   0.0000       4.289776       116.7307 
 123   0.0000       4.348689       118.3339 
 124   0.0000       4.361866       118.6924 
 125   0.0000       4.441361       120.8556 
 126   0.0000       4.509844       122.7191 
 127   0.0000       4.538381       123.4956 
 128   0.0000       4.561363       124.1210 
 129   0.0000       4.568752       124.3221 
 130   0.0000       4.634320       126.1063 
 131   0.0000       5.014428       136.4495 
 132   0.0000       5.083916       138.3404 
 133   0.0000       5.141770       139.9147 
 134   0.0000       5.393101       146.7537 
 135   0.0000       5.431557       147.8002 
 136   0.0000       5.491173       149.4224 
 137   0.0000       5.500772       149.6836 
 138   0.0000       5.595144       152.2516 
 139   0.0000       5.676186       154.4569 
 140   0.0000       5.816925       158.2866 
 141   0.0000       5.895520       160.4253 
 142   0.0000       5.986070       162.8892 
 143   0.0000       6.076703       165.3555 
 144   0.0000       6.174767       168.0239 
 145   0.0000       6.465103       175.9244 
 146   0.0000       6.542094       178.0194 
 147   0.0000       6.573511       178.8743 
 148   0.0000       6.691693       182.0902 
 149   0.0000       6.806414       185.2119 
 150   0.0000       6.837727       186.0640 
 151   0.0000       6.855587       186.5500 
 152   0.0000       7.036928       191.4845 
 153   0.0000       7.098345       193.1558 
 154   0.0000       7.186996       195.5681 
 155   0.0000       7.313579       199.0126 
 156   0.0000       7.372315       200.6109 
 157   0.0000       8.223836       223.7820 
 158   0.0000       8.848494       240.7797 
 159   0.0000       9.374954       255.1055 
 160   0.0000       9.534959       259.4594 
 161   0.0000       9.567530       260.3457 
 162   0.0000       9.749262       265.2909 
 163   0.0000       9.878253       268.8009 
 164   0.0000       9.913199       269.7519 
 165   0.0000      10.057706       273.6841 
 166   0.0000      11.107423       302.2483 
 167   0.0000      19.098364       519.6929 
 168   0.0000      22.549409       613.6006 
 169   0.0000      43.724318      1189.7992 
 170   0.0000      65.897299      1793.1567 
 171   0.0000     126.433493      3440.4302 

                    ********************************
                    * MULLIKEN POPULATION ANALYSIS *
                    ********************************

-----------------------
MULLIKEN ATOMIC CHARGES
-----------------------
   0 C :   -0.001920
   1 O :   -0.002509
   2 H :   -0.000208
   3 H :   -0.000050
   4 H :   -0.000297
   5 H :   -0.004615
   6 C :   -0.174736
   7 O :   -0.443467
   8 H :    0.310793
   9 H :    0.124132
  10 H :    0.095587
  11 H :    0.097290
Sum of atomic charges:   -0.0000000

--------------------------------
MULLIKEN REDUCED ORBITAL CHARGES
--------------------------------
  0 C s       :     0.000339  s :     0.000339
      pz      :    -0.000069  p :     0.001541
      px      :    -0.000537
      py      :     0.002147
      dz2     :     0.000042  d :     0.000040
      dxz     :     0.000028
      dyz     :    -0.000024
      dx2y2   :     0.000007
      dxy     :    -0.000014
      f0      :     0.000000  f :    -0.000000
      f+1     :     0.000000
      f-1     :    -0.000000
      f+2     :     0.000001
      f-2     :    -0.000000
      f+3     :    -0.000000
      f-3     :    -0.000001
  1 O s       :    -0.000428  s :    -0.000428
      pz      :     0.002929  p :     0.003103
      px      :     0.000263
      py      :    -0.000089
      dz2     :    -0.000088  d :    -0.000164
      dxz     :     0.000000
      dyz     :    -0.000075
      dx2y2   :    -0.000001
      dxy     :    -0.000001
      f0      :     0.000000  f :    -0.000002
      f+1     :     0.000000
      f-1     :    -0.000002
      f+2     :    -0.000000
      f-2     :    -0.000000
      f+3     :    -0.000000
      f-3     :    -0.000000
  2 H s       :     0.000205  s :     0.000205
      pz      :     0.000005  p :     0.000004
      px      :    -0.000000
      py      :    -0.000001
  3 H s       :     0.000047  s :     0.000047
      pz      :     0.000001  p :     0.000003
      px      :     0.000001
      py      :     0.000002
  4 H s       :     0.000297  s :     0.000297
      pz      :     0.000000  p :    -0.000000
      px      :     0.000000
      py      :    -0.000000
  5 H s       :     0.004597  s :     0.004597
      pz      :     0.000007  p :     0.000018
      px      :     0.000002
      py      :     0.000009
  6 C s       :     3.211499  s :     3.211499
      pz      :     0.984344  p :     2.846869
      px      :     0.787308
      py      :     1.075217
      dz2     :     0.020915  d :     0.107962
      dxz     :     0.012874
      dyz     :     0.030705
      dx2y2   :     0.022061
      dxy     :     0.021408
      f0      :     0.000498  f :     0.008405
      f+1     :     0.001751
      f-1     :     0.000161
      f+2     :     0.002188
      f-2     :     0.001607
      f+3     :     0.000760
      f-3     :     0.001441
  7 O s       :     3.787657  s :     3.787657
      pz      :     1.285130  p :     4.621896
      px      :     1.501572
      py      :     1.835193
      dz2     :     0.006368  d :     0.032151
      dxz     :     0.009576
      dyz     :     0.004556
      dx2y2   :     0.006743
      dxy     :     0.004908
      f0      :     0.000236  f :     0.001764
      f+1     :     0.000373
      f-1     :     0.000321
      f+2     :     0.000265
      f-2     :     0.000214
      f+3     :     0.000199
      f-3     :     0.000156
  8 H s       :     0.636892  s :     0.636892
      pz      :     0.019667  p :     0.052315
      px      :     0.013303
      py      :     0.019345
  9 H s       :     0.853644  s :     0.853644
      pz      :     0.009393  p :     0.022224
      px      :     0.004049
      py      :     0.008783
 10 H s       :     0.885646  s :     0.885646
      pz      :     0.005176  p :     0.018767
      px      :     0.009532
      py      :     0.004059
 11 H s       :     0.883132  s :     0.883132
      pz      :     0.006058  p :     0.019578
      px      :     0.003072
      py      :     0.010449


                     *******************************
                     * LOEWDIN POPULATION ANALYSIS *
                     *******************************

----------------------
LOEWDIN ATOMIC CHARGES
----------------------
   0 C :   -0.008521
   1 O :   -0.015736
   2 H :   -0.000637
   3 H :   -0.000119
   4 H :   -0.000120
   5 H :   -0.003780
   6 C :   -0.405405
   7 O :   -0.015402
   8 H :    0.159375
   9 H :    0.088239
  10 H :    0.101978
  11 H :    0.100128

-------------------------------
LOEWDIN REDUCED ORBITAL CHARGES
-------------------------------
  0 C s       :     0.001214  s :     0.001214
      pz      :     0.001978  p :     0.006883
      px      :     0.000401
      py      :     0.004504
      dz2     :     0.000022  d :     0.000416
      dxz     :     0.000024
      dyz     :     0.000239
      dx2y2   :     0.000120
      dxy     :     0.000012
      f0      :     0.000000  f :     0.000008
      f+1     :     0.000001
      f-1     :     0.000002
      f+2     :     0.000003
      f-2     :     0.000001
      f+3     :     0.000000
      f-3     :     0.000001
  1 O s       :     0.001947  s :     0.001947
      pz      :     0.009626  p :     0.013295
      px      :     0.000341
      py      :     0.003329
      dz2     :     0.000202  d :     0.000480
      dxz     :     0.000010
      dyz     :     0.000240
      dx2y2   :     0.000025
      dxy     :     0.000003
      f0      :     0.000002  f :     0.000014
      f+1     :     0.000000
      f-1     :     0.000008
      f+2     :     0.000003
      f-2     :     0.000000
      f+3     :     0.000000
      f-3     :     0.000000
  2 H s       :     0.000633  s :     0.000633
      pz      :     0.000003  p :     0.000004
      px      :     0.000000
      py      :     0.000001
  3 H s       :     0.000116  s :     0.000116
      pz      :     0.000000  p :     0.000003
      px      :     0.000002
      py      :     0.000000
  4 H s       :     0.000118  s :     0.000118
      pz      :     0.000001  p :     0.000002
      px      :     0.000001
      py      :     0.000000
  5 H s       :     0.003726  s :     0.003726
      pz      :     0.000014  p :     0.000054
      px      :     0.000002
      py      :     0.000038
  6 C s       :     2.844763  s :     2.844763
      pz      :     1.022929  p :     3.057172
      px      :     0.925444
      py      :     1.108799
      dz2     :     0.060427  d :     0.440370
      dxz     :     0.096770
      dyz     :     0.107850
      dx2y2   :     0.110799
      dxy     :     0.064523
      f0      :     0.008782  f :     0.063101
      f+1     :     0.013403
      f-1     :     0.002240
      f+2     :     0.009844
      f-2     :     0.010267
      f+3     :     0.007459
      f-3     :     0.011106
  7 O s       :     3.329759  s :     3.329759
      pz      :     1.311811  p :     4.603261
      px      :     1.557413
      py      :     1.734037
      dz2     :     0.020817  d :     0.076890
      dxz     :     0.021004
      dyz     :     0.010847
      dx2y2   :     0.013094
      dxy     :     0.011127
      f0      :     0.000481  f :     0.005492
      f+1     :     0.001669
      f-1     :     0.000595
      f+2     :     0.000767
      f-2     :     0.000940
      f+3     :     0.000549
      f-3     :     0.000492
  8 H s       :     0.665372  s :     0.665372
      pz      :     0.070642  p :     0.175253
      px      :     0.046404
      py      :     0.058208
  9 H s       :     0.841000  s :     0.841000
      pz      :     0.028511  p :     0.070761
      px      :     0.013346
      py      :     0.028904
 10 H s       :     0.842293  s :     0.842293
      pz      :     0.016180  p :     0.055729
      px      :     0.026988
      py      :     0.012560
 11 H s       :     0.842995  s :     0.842995
      pz      :     0.017118  p :     0.056877
      px      :     0.009235
      py      :     0.030524


                      *****************************
                      * MAYER POPULATION ANALYSIS *
                      *****************************

  NA   - Mulliken gross atomic population
  ZA   - Total nuclear charge
  QA   - Mulliken gross atomic charge
  VA   - Mayer's total valence
  BVA  - Mayer's bonded valence
  FA   - Mayer's free valence

  ATOM       NA         ZA         QA         VA         BVA        FA
  0 C      0.0019     0.0000    -0.0019     0.0038     0.0038     0.0000
  1 O      0.0025     0.0000    -0.0025     0.0050     0.0050    -0.0000
  2 H      0.0002     0.0000    -0.0002     0.0004     0.0004     0.0000
  3 H      0.0000     0.0000    -0.0000     0.0001     0.0001    -0.0000
  4 H      0.0003     0.0000    -0.0003     0.0006     0.0006    -0.0000
  5 H      0.0046     0.0000    -0.0046     0.0092     0.0092    -0.0000
  6 C      6.1747     6.0000    -0.1747     3.9569     3.9569    -0.0000
  7 O      8.4435     8.0000    -0.4435     1.9131     1.9131    -0.0000
  8 H      0.6892     1.0000     0.3108     0.9267     0.9267    -0.0000
  9 H      0.8759     1.0000     0.1241     0.9532     0.9532    -0.0000
 10 H      0.9044     1.0000     0.0956     0.9622     0.9622    -0.0000
 11 H      0.9027     1.0000     0.0973     0.9547     0.9547    -0.0000

  Mayer bond orders larger than 0.1
B(  6-C ,  7-O ) :   1.0027 B(  6-C ,  9-H ) :   0.9751 B(  6-C , 10-H ) :   0.9869 
B(  6-C , 11-H ) :   0.9806 B(  7-O ,  8-H ) :   0.9120 

-------
TIMINGS
-------

Total SCF time: 0 days 0 hours 0 min 10 sec 

Total time                  ....      10.523 sec
Sum of individual times     ....      10.254 sec  ( 97.4%)

Fock matrix formation       ....       9.746 sec  ( 92.6%)
  XC integration            ....       1.252 sec  ( 12.8% of F)
    Basis function eval.    ....       0.065 sec  (  5.2% of XC)
    Density eval.           ....       0.058 sec  (  4.6% of XC)
    XC-Functional eval.     ....       0.085 sec  (  6.8% of XC)
    XC-Potential eval.      ....       0.071 sec  (  5.6% of XC)
Diagonalization             ....       0.052 sec  (  0.5%)
Density matrix formation    ....       0.004 sec  (  0.0%)
Population analysis         ....       0.020 sec  (  0.2%)
Initial guess               ....       0.102 sec  (  1.0%)
Orbital Transformation      ....       0.000 sec  (  0.0%)
Orbital Orthonormalization  ....       0.000 sec  (  0.0%)
DIIS solution               ....       0.026 sec  (  0.2%)
SOSCF solution              ....       0.023 sec  (  0.2%)
Grid generation             ....       0.280 sec  (  2.7%)


-------------------------------------------------------------------------------
                          DFT DISPERSION CORRECTION                            
                                                                               
                              DFTD3 V3.1  Rev 1                                
                              USING zero damping                               
-------------------------------------------------------------------------------
The omegaB97X-D3 functional is recognized. Fit by Chai et al.
Active option DFTDOPT                   ...         3   

molecular C6(AA) [au] = 208.604676 


            DFT-D V3
 parameters
 s6 scaling factor         :     1.0000 
 rs6 scaling factor        :     1.2810 
 s8 scaling factor         :     1.0000 
 rs8 scaling factor        :     1.0940 
 Damping factor alpha6     :    14.0000 
 Damping factor alpha8     :    16.0000 
 ad hoc parameters k1-k3   :    16.0000     1.3333    -4.0000 

 Edisp/kcal,au: -0.136727384041  -0.000217888933 
 E6   /kcal   :  -0.024359699 
 E8   /kcal   :  -0.112367685 
 % E8         :  82.183745487 

-------------------------   ----------------
Dispersion correction           -0.000217889
-------------------------   ----------------


-------------------------   --------------------
FINAL SINGLE POINT ENERGY      -115.728863121403
-------------------------   --------------------


                            ***************************************
                            *     ORCA property calculations      *
                            ***************************************

                                    ---------------------
                                    Active property flags
                                    ---------------------
   (+) Dipole Moment


------------------------------------------------------------------------------
                       ORCA ELECTRIC PROPERTIES CALCULATION
------------------------------------------------------------------------------

Dipole Moment Calculation                       ... on
Quadrupole Moment Calculation                   ... off
Polarizability Calculation                      ... off
GBWName                                         ... 7-146_DFT_B.gbw
Electron density file                           ... 7-146_DFT_B.scfp.tmp
The origin for moment calculation is the CENTER OF MASS  = ( 7.552189, 10.199718 -4.178089)

-------------
DIPOLE MOMENT
-------------
                                X             Y             Z
Electronic contribution:     -1.65008       0.39577       0.91361
Nuclear contribution   :      2.25153      -0.59429      -0.68004
                        -----------------------------------------
Total Dipole Moment    :      0.60145      -0.19852       0.23358
                        -----------------------------------------
Magnitude (a.u.)       :      0.67507
Magnitude (Debye)      :      1.71588



--------------------
Rotational spectrum 
--------------------
 
Rotational constants in cm-1:     4.435714     0.868564     0.835981 
Rotational constants in MHz : 132979.373017 26038.895949 25062.072166 

 Dipole components along the rotational axes: 
x,y,z [a.u.] :     0.354233     0.572978    -0.043929 
x,y,z [Debye]:     0.900388     1.456394    -0.111658 

 
------------------------------------------------------------------------------
                      ORCA CHELPG CHARGES GENERATION
------------------------------------------------------------------------------

GBW file                           ... 7-146_DFT_B.gbw

Reading the GBW file               ... done

Grid spacing                       ...     0.300000
Point Cut-Off                      ...     2.800000
Van-der-Waals Radii                ...        COSMO
Total charge                       ...            0


Number of points X direction       ...           26
Number of points Y direction       ...           31
Number of points Z direction       ...           35
Maximum number of possible points  ...        28210
Final number of points             ...         5867


CHELPG Charges            
--------------------------------
  0   C   :       0.003091
  1   O   :       0.002986
  2   H   :       0.002174
  3   H   :       0.001915
  4   H   :      -0.015467
  5   H   :      -0.000591
  6   C   :       0.161138
  7   O   :      -0.584972
  8   H   :       0.390445
  9   H   :       0.051327
 10   H   :      -0.017278
 11   H   :       0.005230
--------------------------------
Total charge:    -0.000000
--------------------------------

CHELPG charges calculated...

Timings for individual parts in CHELPG calculation:
Grid generation                 ...        0.001 sec (=   0.000 min)
Potential calculation           ...        1.250 sec (=   0.021 min)
Fit to the potential            ...        0.002 sec (=   0.000 min)
------------------------------------------------------------------------------


Timings for individual modules:

Sum of individual times         ...       13.682 sec (=   0.228 min)
GTO integral calculation        ...        1.217 sec (=   0.020 min)   8.9 %
SCF iterations                  ...       11.185 sec (=   0.186 min)  81.8 %
CHELPG charge generation        ...        1.280 sec (=   0.021 min)   9.4 %



                             ****ORCA TERMINATED NORMALLY****
TOTAL RUN TIME: 0 days 0 hours 1 minutes 10 seconds 328 msec
