
                                 *****************
                                 * O   R   C   A *
                                 *****************

           --- An Ab Initio, DFT and Semiempirical electronic structure package ---

                  #######################################################
                  #                        -***-                        #
                  #          Department of theory and spectroscopy      #
                  #               Directorship: Frank Neese             #
                  #        Max Planck Institute fuer Kohlenforschung    #
                  #                Kaiser Wilhelm Platz 1               #
                  #                 D-45470 Muelheim/Ruhr               #
                  #                      Germany                        #
                  #                                                     #
                  #                  All rights reserved                #
                  #                        -***-                        #
                  #######################################################


                         Program Version 4.1.2  - RELEASE  -


 With contributions from (in alphabetic order):
   Daniel Aravena         : Magnetic Properties
   Michael Atanasov       : Ab Initio Ligand Field Theory
   Alexander A. Auer      : GIAO ZORA
   Ute Becker             : Parallelization
   Giovanni Bistoni       : ED, Open-shell LED
   Martin Brehm           : Molecular dynamics
   Dmytro Bykov           : SCF Hessian
   Vijay G. Chilkuri      : MRCI spin determinant printing
   Dipayan Datta          : RHF DLPNO-CCSD density
   Achintya Kumar Dutta   : EOM-CC, STEOM-CC
   Dmitry Ganyushin       : Spin-Orbit,Spin-Spin,Magnetic field MRCI
   Miquel Garcia          : C-PCM Hessian
   Yang Guo               : DLPNO-NEVPT2, CIM, IAO-localization
   Andreas Hansen         : Spin unrestricted coupled pair/coupled cluster methods
   Benjamin Helmich-Paris : CASSCF linear response (MC-RPA)
   Lee Huntington         : MR-EOM, pCC
   Robert Izsak           : Overlap fitted RIJCOSX, COSX-SCS-MP3, EOM
   Christian Kollmar      : KDIIS, OOCD, Brueckner-CCSD(T), CCSD density
   Simone Kossmann        : Meta GGA functionals, TD-DFT gradient, OOMP2, MP2 Hessian
   Martin Krupicka        : AUTO-CI
   Lucas Lang             : DCDCAS
   Dagmar Lenk            : GEPOL surface, SMD
   Dimitrios Liakos       : Extrapolation schemes; parallel MDCI
   Dimitrios Manganas     : ROCIS; embedding schemes
   Dimitrios Pantazis     : SARC Basis sets
   Taras Petrenko         : DFT Hessian,TD-DFT gradient, ASA, ECA, R-Raman, ABS, FL, XAS/XES, NRVS
   Peter Pinski           : DLPNO-MP2, DLPNO-MP2 Gradient
   Christoph Reimann      : Effective Core Potentials
   Marius Retegan         : Local ZFS, SOC
   Christoph Riplinger    : Optimizer, TS searches, QM/MM, DLPNO-CCSD(T), (RO)-DLPNO pert. Triples
   Tobias Risthaus        : Range-separated hybrids, TD-DFT gradient, RPA, STAB
   Michael Roemelt        : Restricted open shell CIS
   Masaaki Saitow         : Open-shell DLPNO
   Barbara Sandhoefer     : DKH picture change effects
   Avijit Sen             : IP-ROCIS
   Kantharuban Sivalingam : CASSCF convergence, NEVPT2, FIC-MRCI
   Bernardo de Souza      : ESD, SOC TD-DFT
   Georgi Stoychev        : AutoAux, RI-MP2 NMR
   Willem Van den Heuvel  : Paramagnetic NMR
   Boris Wezisla          : Elementary symmetry handling
   Frank Wennmohs         : Technical directorship


 We gratefully acknowledge several colleagues who have allowed us to
 interface, adapt or use parts of their codes:
   Stefan Grimme, W. Hujo, H. Kruse,             : VdW corrections, initial TS optimization,
                  C. Bannwarth                     DFT functionals, gCP, sTDA/sTD-DF
   Ed Valeev                                     : LibInt (2-el integral package), F12 methods
   Garnet Chan, S. Sharma, J. Yang, R. Olivares  : DMRG
   Ulf Ekstrom                                   : XCFun DFT Library
   Mihaly Kallay                                 : mrcc  (arbitrary order and MRCC methods)
   Andreas Klamt, Michael Diedenhofen            : otool_cosmo (COSMO solvation model)
   Jiri Pittner, Ondrej Demel                    : Mk-CCSD
   Frank Weinhold                                : gennbo (NPA and NBO analysis)
   Christopher J. Cramer and Donald G. Truhlar   : smd solvation model
   Lars Goerigk                                  : TD-DFT with DH, B97 family of functionals
   V. Asgeirsson, H. Jonsson                     : NEB implementation
   FAccTs GmbH                                   : IRC, NEB, NEB-TS, Multilevel


 Your calculation uses the libint2 library for the computation of 2-el integrals
 For citations please refer to: http://libint.valeyev.net

 This ORCA versions uses:
   CBLAS   interface :  Fast vector & matrix operations
   LAPACKE interface :  Fast linear algebra routines
   SCALAPACK package :  Parallel linear algebra routines


Your calculation utilizes the atom-pairwise dispersion correction
with the zero-damping scheme (D30)
Cite in your paper:
S.Grimme, J.Antony, S.Ehrlich and H.Krieg, J.Chem.Phys., 132, (2010), 154104 
   

XCFun DFT library Copyright 2009-2010 Ulf Ekstrom and contributors.
See http://admol.org/xcfun for more information. This is free soft-
ware; see the source code for copying conditions. There is ABSOLUTELY
NO WARRANTY; not even for MERCHANTABILITY or FITNESS FOR A PARTICULAR
PURPOSE. For details see the documentation. Scientific users of this 
library should cite U. Ekstrom, L. Visscher, R. Bast, A. J. Thorvald-
sen and K. Ruud; J.Chem.Theor.Comp. 2010, DOI: 10.1021/ct100117s
XCFun Version 0.99 
----- Orbital basis set information -----
Your calculation utilizes the basis: def2-TZVP
   F. Weigend and R. Ahlrichs, Phys. Chem. Chem. Phys. 7, 3297 (2005).

================================================================================
                                        WARNINGS
                       Please study these warnings very carefully!
================================================================================


WARNING: Geometry Optimization
  ===> : Switching off AutoStart
         For restart on a previous wavefunction, please use MOREAD

INFO   : the flag for use of LIBINT has been found!

================================================================================
                                       INPUT FILE
================================================================================
NAME = bonds_angles_[1[6[8][1][1]]]-[6[8[1]][1][1][1]]_2.in
|  1> #Run DFT geometry optimization
|  2> ! wB97X-D3 def2-TZVP TIGHTSCF Grid5 FinalGrid6 Opt CHELPG PAL4
|  3> 
|  4> %base "2_geo_opt"
|  5> %geom MaxIter 500
|  6> end
|  7> 
|  8> %geom
|  9>   Constraints
| 10>     { B 5 0 C }
| 11>   end
| 12> end
| 13> 
| 14> 
| 15> * xyz 0 1
| 16>   C                    3.011452             -1.181143            0.598397            
| 17>   O                    4.394817             -1.128295            0.874212            
| 18>   H                    4.772340             -0.379267            0.412398            
| 19>   H                    2.806578             -1.319210            -0.469445           
| 20>   H                    2.611776             -2.040510            1.135803            
| 21>   H                    2.484613             -0.284246            0.945754            
| 22> *
| 23> 
| 24>                          ****END OF INPUT****
================================================================================

                       *****************************
                       * Geometry Optimization Run *
                       *****************************

Geometry optimization settings:
Update method            Update   .... BFGS
Choice of coordinates    CoordSys .... Z-matrix Internals
Initial Hessian          InHess   .... Almoef's Model

Convergence Tolerances:
Energy Change            TolE     ....  5.0000e-06 Eh
Max. Gradient            TolMAXG  ....  3.0000e-04 Eh/bohr
RMS Gradient             TolRMSG  ....  1.0000e-04 Eh/bohr
Max. Displacement        TolMAXD  ....  4.0000e-03 bohr
RMS Displacement         TolRMSD  ....  2.0000e-03 bohr

------------------------------------------------------------------------------
                        ORCA OPTIMIZATION COORDINATE SETUP
------------------------------------------------------------------------------

The optimization will be done in new redundant internal coordinates
Making redundant internal coordinates   ...  (new redundants) done
Evaluating the initial hessian          ...  (Almloef) done
Evaluating the coordinates              ...  done
Calculating the B-matrix                .... done
Calculating the G-matrix                .... done
Diagonalizing the G-matrix              .... done
Imposing constraints:
 Iter   0:  RMS(Cart)=    0.0000000000 RMS(Int)=    0.0000000000
CONVERGED
The first mode is                       ....    3
The number of degrees of freedom        ....   12
Storing new coordinates                 .... done

    -----------------------------------------------------------------
                    Redundant Internal Coordinates


    -----------------------------------------------------------------
         Definition                    Initial Value    Approx d2E/dq
    -----------------------------------------------------------------
      1. B(O   1,C   0)                  1.4116         0.516942   
      2. B(H   2,O   1)                  0.9575         0.524721   
      3. B(H   3,C   0)                  1.0960         0.352187   
      4. B(H   4,C   0)                  1.0895         0.360733   
      5. B(H   5,C   0)                  1.0966         0.351410 C 
      6. A(O   1,C   0,H   4)          107.0170         0.340286   
      7. A(O   1,C   0,H   3)          112.2263         0.338926   
      8. A(O   1,C   0,H   5)          112.2281         0.338802   
      9. A(H   3,C   0,H   5)          108.7729         0.288720   
     10. A(H   4,C   0,H   5)          108.2173         0.289806   
     11. A(H   3,C   0,H   4)          108.2177         0.289907   
     12. A(C   0,O   1,H   2)          108.7500         0.359342   
     13. D(H   2,O   1,C   0,H   5)    -61.4304         0.021176   
     14. D(H   2,O   1,C   0,H   3)     61.4271         0.021176   
     15. D(H   2,O   1,C   0,H   4)    179.9981         0.021176   
    -----------------------------------------------------------------

Number of atoms                         .... 6
Number of degrees of freedom            .... 15

         *************************************************************
         *                GEOMETRY OPTIMIZATION CYCLE   1            *
         *************************************************************
---------------------------------
CARTESIAN COORDINATES (ANGSTROEM)
---------------------------------
  C      3.011452   -1.181143    0.598397
  O      4.394817   -1.128295    0.874212
  H      4.772340   -0.379267    0.412398
  H      2.806578   -1.319210   -0.469445
  H      2.611776   -2.040510    1.135803
  H      2.484613   -0.284246    0.945754

----------------------------
CARTESIAN COORDINATES (A.U.)
----------------------------
  NO LB      ZA    FRAG     MASS         X           Y           Z
   0 C     6.0000    0    12.011    5.690820   -2.232037    1.130806
   1 O     8.0000    0    15.999    8.305001   -2.132169    1.652021
   2 H     1.0000    0     1.008    9.018416   -0.716711    0.779319
   3 H     1.0000    0     1.008    5.303664   -2.492946   -0.887122
   4 H     1.0000    0     1.008    4.935541   -3.856005    2.146357
   5 H     1.0000    0     1.008    4.695238   -0.537147    1.787216

--------------------------------
INTERNAL COORDINATES (ANGSTROEM)
--------------------------------
 C      0   0   0     0.000000000000     0.00000000     0.00000000
 O      1   0   0     1.411582639647     0.00000000     0.00000000
 H      2   1   0     0.957516961160   108.74996974     0.00000000
 H      1   2   3     1.096048534203   112.22630544    61.42706249
 H      1   2   3     1.089521800838   107.01698208   179.99810595
 H      1   2   3     1.096649645958   112.22811498   298.56963015

---------------------------
INTERNAL COORDINATES (A.U.)
---------------------------
 C      0   0   0     0.000000000000     0.00000000     0.00000000
 O      1   0   0     2.667504604331     0.00000000     0.00000000
 H      2   1   0     1.809444825177   108.74996974     0.00000000
 H      1   2   3     2.071231559130   112.22630544    61.42706249
 H      1   2   3     2.058897820520   107.01698208   179.99810595
 H      1   2   3     2.072367495722   112.22811498   298.56963015

---------------------
BASIS SET INFORMATION
---------------------
There are 3 groups of distinct atoms

 Group   1 Type C   : 11s6p2d1f contracted to 5s3p2d1f pattern {62111/411/11/1}
 Group   2 Type O   : 11s6p2d1f contracted to 5s3p2d1f pattern {62111/411/11/1}
 Group   3 Type H   : 5s1p contracted to 3s1p pattern {311/1}

Atom   0C    basis set group =>   1
Atom   1O    basis set group =>   2
Atom   2H    basis set group =>   3
Atom   3H    basis set group =>   3
Atom   4H    basis set group =>   3
Atom   5H    basis set group =>   3


           ************************************************************
           *        Program running with 4 parallel MPI-processes     *
           *              working on a common directory               *
           ************************************************************
------------------------------------------------------------------------------
                           ORCA GTO INTEGRAL CALCULATION
------------------------------------------------------------------------------

                         BASIS SET STATISTICS AND STARTUP INFO

 # of primitive gaussian shells          ...   64
 # of primitive gaussian functions       ...  124
 # of contracted shells                  ...   38
 # of contracted basis functions         ...   86
 Highest angular momentum                ...    3
 Maximum contraction depth               ...    6
 Integral package used                   ... LIBINT
 Integral threshhold            Thresh   ...  2.500e-11
 Primitive cut-off              TCut     ...  2.500e-12


------------------------------ INTEGRAL EVALUATION ----------------------------


 * One electron integrals 
 Pre-screening matrix                    ... done
 Shell pair data                         ... done (   0.000 sec)



           ************************************************************
           *        Program running with 4 parallel MPI-processes     *
           *              working on a common directory               *
           ************************************************************
-------------------------------------------------------------------------------
                                 ORCA SCF
-------------------------------------------------------------------------------

------------
SCF SETTINGS
------------
Hamiltonian:
 Density Functional     Method          .... DFT(GTOs)
 Exchange Functional    Exchange        .... WB97X-D3
 Correlation Functional Correlation     .... WB97X-D3
 Gradients option       PostSCFGGA      .... off
 Hybrid DFT is turned on
   Fraction HF Exchange ScalHFX         ....  0.195728
   Scaling of DF-GGA-X  ScalDFX         ....  0.000000
   Scaling of DF-GGA-C  ScalDFC         ....  1.000000
   Scaling of DF-LDA-C  ScalLDAC        ....  1.000000
   Perturbative correction              ....  0.000000
   Density functional embedding theory  .... OFF
 Long-range corrected/Screened/Range-Separated Hybrid DFT is turned on
   Amount of maximum screened exact exchange              ....  0.804272
   Range separation parameter mu (erf(mu*r12)/r12)        ....  0.250000


General Settings:
 Integral files         IntName         .... 2_geo_opt
 Hartree-Fock type      HFTyp           .... RHF
 Total Charge           Charge          ....    0
 Multiplicity           Mult            ....    1
 Number of Electrons    NEL             ....   18
 Basis Dimension        Dim             ....   86
 Nuclear Repulsion      ENuc            ....     40.4359467622 Eh

Convergence Acceleration:
 DIIS                   CNVDIIS         .... on
   Start iteration      DIISMaxIt       ....    12
   Startup error        DIISStart       ....  0.200000
   # of expansion vecs  DIISMaxEq       ....     5
   Bias factor          DIISBfac        ....   1.050
   Max. coefficient     DIISMaxC        ....  10.000
 Newton-Raphson         CNVNR           .... off
 SOSCF                  CNVSOSCF        .... on
   Start iteration      SOSCFMaxIt      ....   150
   Startup grad/error   SOSCFStart      ....  0.003300
 Level Shifting         CNVShift        .... on
   Level shift para.    LevelShift      ....    0.2500
   Turn off err/grad.   ShiftErr        ....    0.0010
 Zerner damping         CNVZerner       .... off
 Static damping         CNVDamp         .... on
   Fraction old density DampFac         ....    0.7000
   Max. Damping (<1)    DampMax         ....    0.9800
   Min. Damping (>=0)   DampMin         ....    0.0000
   Turn off err/grad.   DampErr         ....    0.1000
 Fernandez-Rico         CNVRico         .... off

SCF Procedure:
 Maximum # iterations   MaxIter         ....   125
 SCF integral mode      SCFMode         .... Direct
   Integral package                     .... LIBINT
 Reset frequency        DirectResetFreq ....    20
 Integral Threshold     Thresh          ....  2.500e-11 Eh
 Primitive CutOff       TCut            ....  2.500e-12 Eh

Convergence Tolerance:
 Convergence Check Mode ConvCheckMode   .... Total+1el-Energy
 Convergence forced     ConvForced      .... 0
 Energy Change          TolE            ....  1.000e-08 Eh
 1-El. energy change                    ....  1.000e-05 Eh
 Orbital Gradient       TolG            ....  1.000e-05
 Orbital Rotation angle TolX            ....  1.000e-05
 DIIS Error             TolErr          ....  5.000e-07


Diagonalization of the overlap matrix:
Smallest eigenvalue                        ... 1.651e-03
Time for diagonalization                   ...    0.002 sec
Threshold for overlap eigenvalues          ... 1.000e-08
Number of eigenvalues below threshold      ... 0
Time for construction of square roots      ...    0.003 sec
Total time needed                          ...    0.005 sec

-------------------
DFT GRID GENERATION
-------------------

General Integration Accuracy     IntAcc      ...  5.010
Radial Grid Type                 RadialGrid  ... Gauss-Chebyshev
Angular Grid (max. acc.)         AngularGrid ... Lebedev-434
Angular grid pruning method      GridPruning ... 3 (G Style)
Weight generation scheme         WeightScheme... Becke
Basis function cutoff            BFCut       ...    1.0000e-11
Integration weight cutoff        WCut        ...    1.0000e-14
Grids for H and He will be reduced by one unit

# of grid points (after initial pruning)     ...  48308 (   0.0 sec)
# of grid points (after weights+screening)   ...  46676 (   0.0 sec)
nearest neighbour list constructed           ...    0.0 sec
Grid point re-assignment to atoms done       ...    0.0 sec
Grid point division into batches done        ...    0.3 sec
Reduced shell lists constructed in    0.3 sec

Total number of grid points                  ...    46676
Total number of batches                      ...      733
Average number of points per batch           ...       63
Average number of grid points per atom       ...     7779
Average number of shells per batch           ...    33.11 (87.14%)
Average number of basis functions per batch  ...    76.78 (89.28%)
Average number of large shells per batch     ...    30.61 (92.44%)
Average number of large basis fcns per batch ...    72.21 (94.05%)
Maximum spatial batch extension              ...  15.77, 14.99, 16.58 au
Average spatial batch extension              ...   0.41,  0.40,  0.43 au

Time for grid setup =    0.383 sec

------------------------------
INITIAL GUESS: MODEL POTENTIAL
------------------------------
Loading Hartree-Fock densities                     ... done
Calculating cut-offs                               ... done
Setting up the integral package                    ... done
Initializing the effective Hamiltonian             ... done
Starting the Coulomb interaction                   ... done (   0.0 sec)
Reading the grid                                   ... done
Mapping shells                                     ... done
Starting the XC term evaluation                    ... done (   0.1 sec)
  promolecular density results
     # of electrons  =     17.998045202
     EX              =    -14.430193468
     EC              =     -0.575107977
     EX+EC           =    -15.005301445
Transforming the Hamiltonian                       ... done (   0.0 sec)
Diagonalizing the Hamiltonian                      ... done (   0.0 sec)
Back transforming the eigenvectors                 ... done (   0.0 sec)
Now organizing SCF variables                       ... done
                      ------------------
                      INITIAL GUESS DONE (   0.5 sec)
                      ------------------
--------------
SCF ITERATIONS
--------------
ITER       Energy         Delta-E        Max-DP      RMS-DP      [F,P]     Damp
               ***  Starting incremental Fock matrix formation  ***
  0   -115.6512237508   0.000000000000 0.03697000  0.00147461  0.2523738 0.7000
  1   -115.6882871879  -0.037063437042 0.02203110  0.00104072  0.1262545 0.7000
                               ***Turning on DIIS***
  2   -115.7053475914  -0.017060403528 0.03156450  0.00188087  0.0490925 0.0000
  3   -115.7330770113  -0.027729419876 0.01774075  0.00068023  0.0611352 0.0000
  4   -115.7376011588  -0.004524147557 0.00406444  0.00013180  0.0065524 0.0000
                      *** Initiating the SOSCF procedure ***
                           *** Shutting down DIIS ***
                      *** Re-Reading the Fockian *** 
                      *** Removing any level shift *** 
ITER      Energy       Delta-E        Grad      Rot      Max-DP    RMS-DP
  5   -115.73769532  -0.0000941634  0.000489  0.000489  0.000678  0.000043
               *** Restarting incremental Fock matrix formation ***
  6   -115.73770346  -0.0000081409  0.000152  0.000203  0.000490  0.000026
  7   -115.73770419  -0.0000007225  0.000056  0.000109  0.000208  0.000011
  8   -115.73770424  -0.0000000575  0.000019  0.000017  0.000030  0.000001
  9   -115.73770425  -0.0000000056  0.000010  0.000008  0.000015  0.000001
 10   -115.73770425  -0.0000000015  0.000003  0.000003  0.000003  0.000000
                  ***Gradient check signals convergence***
              ***Rediagonalizing the Fockian in SOSCF/NRSCF***

               *****************************************************
               *                     SUCCESS                       *
               *           SCF CONVERGED AFTER  11 CYCLES          *
               *****************************************************

Setting up the final grid:

General Integration Accuracy     IntAcc      ...  5.340
Radial Grid Type                 RadialGrid  ... Gauss-Chebyshev
Angular Grid (max. acc.)         AngularGrid ... Lebedev-590
Angular grid pruning method      GridPruning ... 3 (G Style)
Weight generation scheme         WeightScheme... Becke
Basis function cutoff            BFCut       ...    1.0000e-11
Integration weight cutoff        WCut        ...    1.0000e-14
Grids for H and He will be reduced by one unit

# of grid points (after initial pruning)     ...  77324 (   0.0 sec)
# of grid points (after weights+screening)   ...  74512 (   0.0 sec)
nearest neighbour list constructed           ...    0.0 sec
Grid point re-assignment to atoms done       ...    0.0 sec
Grid point division into batches done        ...    0.8 sec
Reduced shell lists constructed in    0.8 sec

Total number of grid points                  ...    74512
Total number of batches                      ...     1167
Average number of points per batch           ...       63
Average number of grid points per atom       ...    12419
Average number of shells per batch           ...    32.92 (86.63%)
Average number of basis functions per batch  ...    76.34 (88.77%)
Average number of large shells per batch     ...    30.32 (92.10%)
Average number of large basis fcns per batch ...    71.51 (93.66%)
Maximum spatial batch extension              ...  13.18, 14.25, 15.48 au
Average spatial batch extension              ...   0.34,  0.36,  0.37 au

Final grid set up in    0.9 sec
Final integration                            ... done (   0.2 sec)
Change in XC energy                          ...    -0.000107548
Integrated number of electrons               ...    18.000000742
Previous integrated no of electrons          ...    18.000002268

----------------
TOTAL SCF ENERGY
----------------

Total Energy       :         -115.73781180 Eh           -3149.38597 eV

Components:
Nuclear Repulsion  :           40.43594676 Eh            1100.31805 eV
Electronic Energy  :         -156.17375856 Eh           -4249.70402 eV
One Electron Energy:         -237.29125447 Eh           -6457.02330 eV
Two Electron Energy:           81.11749591 Eh            2207.31928 eV

Virial components:
Potential Energy   :         -230.98759498 Eh           -6285.49201 eV
Kinetic Energy     :          115.24978318 Eh            3136.10604 eV
Virial Ratio       :            2.00423453


DFT components:
N(Alpha)           :        9.000000370763 electrons
N(Beta)            :        9.000000370763 electrons
N(Total)           :       18.000000741527 electrons
E(XC)              :      -10.655447358630 Eh       
DFET-embed. en.    :        0.000000000000 Eh       

---------------
SCF CONVERGENCE
---------------

  Last Energy change         ...   -8.4555e-11  Tolerance :   1.0000e-08
  Last MAX-Density change    ...    1.8669e-06  Tolerance :   1.0000e-07
  Last RMS-Density change    ...    7.8182e-08  Tolerance :   5.0000e-09
  Last Orbital Gradient      ...    1.3512e-06  Tolerance :   1.0000e-05
  Last Orbital Rotation      ...    7.8122e-07  Tolerance :   1.0000e-05

             **** THE GBW FILE WAS UPDATED (2_geo_opt.gbw) ****
             **** DENSITY FILE WAS UPDATED (2_geo_opt.scfp.tmp) ****
             **** ENERGY FILE WAS UPDATED (2_geo_opt.en.tmp) ****
----------------
ORBITAL ENERGIES
----------------

  NO   OCC          E(Eh)            E(eV) 
   0   2.0000     -19.228100      -523.2232 
   1   2.0000     -10.315186      -280.6905 
   2   2.0000      -1.136809       -30.9342 
   3   2.0000      -0.795303       -21.6413 
   4   2.0000      -0.611575       -16.6418 
   5   2.0000      -0.541726       -14.7411 
   6   2.0000      -0.526331       -14.3222 
   7   2.0000      -0.433795       -11.8042 
   8   2.0000      -0.373604       -10.1663 
   9   0.0000       0.116633         3.1737 
  10   0.0000       0.156658         4.2629 
  11   0.0000       0.202559         5.5119 
  12   0.0000       0.205067         5.5801 
  13   0.0000       0.226354         6.1594 
  14   0.0000       0.304323         8.2810 
  15   0.0000       0.313373         8.5273 
  16   0.0000       0.404490        11.0067 
  17   0.0000       0.452637        12.3169 
  18   0.0000       0.484970        13.1967 
  19   0.0000       0.535746        14.5784 
  20   0.0000       0.543613        14.7925 
  21   0.0000       0.567586        15.4448 
  22   0.0000       0.598533        16.2869 
  23   0.0000       0.603401        16.4194 
  24   0.0000       0.671321        18.2676 
  25   0.0000       0.779010        21.1979 
  26   0.0000       0.832194        22.6452 
  27   0.0000       0.861294        23.4370 
  28   0.0000       0.989574        26.9277 
  29   0.0000       1.013925        27.5903 
  30   0.0000       1.109773        30.1985 
  31   0.0000       1.382642        37.6236 
  32   0.0000       1.512899        41.1681 
  33   0.0000       1.553585        42.2752 
  34   0.0000       1.602841        43.6155 
  35   0.0000       1.613130        43.8955 
  36   0.0000       1.624000        44.1913 
  37   0.0000       1.660334        45.1800 
  38   0.0000       1.687845        45.9286 
  39   0.0000       1.774600        48.2893 
  40   0.0000       1.952067        53.1185 
  41   0.0000       2.030645        55.2567 
  42   0.0000       2.055221        55.9254 
  43   0.0000       2.094100        56.9834 
  44   0.0000       2.114641        57.5423 
  45   0.0000       2.268383        61.7258 
  46   0.0000       2.333471        63.4970 
  47   0.0000       2.345500        63.8243 
  48   0.0000       2.380982        64.7898 
  49   0.0000       2.429263        66.1036 
  50   0.0000       2.497451        67.9591 
  51   0.0000       2.596079        70.6429 
  52   0.0000       2.639679        71.8293 
  53   0.0000       2.707160        73.6656 
  54   0.0000       2.841742        77.3277 
  55   0.0000       2.871346        78.1333 
  56   0.0000       2.888397        78.5973 
  57   0.0000       2.992904        81.4411 
  58   0.0000       3.095968        84.2456 
  59   0.0000       3.172934        86.3399 
  60   0.0000       3.299107        89.7733 
  61   0.0000       3.408179        92.7413 
  62   0.0000       3.441702        93.6535 
  63   0.0000       3.488089        94.9157 
  64   0.0000       3.612561        98.3028 
  65   0.0000       3.645099        99.1882 
  66   0.0000       3.666960        99.7831 
  67   0.0000       4.005462       108.9942 
  68   0.0000       4.223206       114.9193 
  69   0.0000       4.273138       116.2780 
  70   0.0000       4.455416       121.2380 
  71   0.0000       4.564350       124.2023 
  72   0.0000       5.346041       145.4732 
  73   0.0000       5.425335       147.6309 
  74   0.0000       5.554328       151.1409 
  75   0.0000       5.826043       158.5347 
  76   0.0000       5.834057       158.7528 
  77   0.0000       5.985543       162.8749 
  78   0.0000       6.379581       173.5972 
  79   0.0000       6.530905       177.7150 
  80   0.0000       6.744986       183.5404 
  81   0.0000       6.804009       185.1465 
  82   0.0000       7.039389       191.5515 
  83   0.0000       7.215896       196.3545 
  84   0.0000      22.405258       609.6781 
  85   0.0000      43.664252      1188.1647 

                    ********************************
                    * MULLIKEN POPULATION ANALYSIS *
                    ********************************

-----------------------
MULLIKEN ATOMIC CHARGES
-----------------------
   0 C :   -0.150892
   1 O :   -0.477610
   2 H :    0.313019
   3 H :    0.098659
   4 H :    0.118253
   5 H :    0.098571
Sum of atomic charges:   -0.0000000

--------------------------------
MULLIKEN REDUCED ORBITAL CHARGES
--------------------------------
  0 C s       :     3.223206  s :     3.223206
      pz      :     1.047252  p :     2.826009
      px      :     0.702171
      py      :     1.076586
      dz2     :     0.011112  d :     0.094257
      dxz     :     0.032492
      dyz     :     0.002646
      dx2y2   :     0.012742
      dxy     :     0.035265
      f0      :     0.001356  f :     0.007421
      f+1     :     0.000956
      f-1     :     0.000175
      f+2     :     0.001464
      f-2     :     0.000123
      f+3     :     0.001361
      f-3     :     0.001986
  1 O s       :     3.792781  s :     3.792781
      pz      :     1.759404  p :     4.652566
      px      :     1.313612
      py      :     1.579551
      dz2     :     0.003136  d :     0.030577
      dxz     :     0.006477
      dyz     :     0.005835
      dx2y2   :     0.008936
      dxy     :     0.006192
      f0      :     0.000269  f :     0.001685
      f+1     :     0.000233
      f-1     :     0.000087
      f+2     :     0.000287
      f-2     :     0.000235
      f+3     :     0.000367
      f-3     :     0.000206
  2 H s       :     0.639290  s :     0.639290
      pz      :     0.017006  p :     0.047692
      px      :     0.012719
      py      :     0.017966
  3 H s       :     0.881976  s :     0.881976
      pz      :     0.012072  p :     0.019365
      px      :     0.003007
      py      :     0.004285
  4 H s       :     0.861528  s :     0.861528
      pz      :     0.006297  p :     0.020219
      px      :     0.004194
      py      :     0.009728
  5 H s       :     0.882083  s :     0.882083
      pz      :     0.004922  p :     0.019347
      px      :     0.004971
      py      :     0.009453


                     *******************************
                     * LOEWDIN POPULATION ANALYSIS *
                     *******************************

----------------------
LOEWDIN ATOMIC CHARGES
----------------------
   0 C :   -0.385240
   1 O :   -0.076105
   2 H :    0.165785
   3 H :    0.093385
   4 H :    0.108677
   5 H :    0.093497

-------------------------------
LOEWDIN REDUCED ORBITAL CHARGES
-------------------------------
  0 C s       :     2.863078  s :     2.863078
      pz      :     1.096651  p :     3.052198
      px      :     0.846060
      py      :     1.109487
      dz2     :     0.072412  d :     0.412948
      dxz     :     0.114040
      dyz     :     0.020706
      dx2y2   :     0.082141
      dxy     :     0.123648
      f0      :     0.007820  f :     0.057016
      f+1     :     0.007163
      f-1     :     0.000854
      f+2     :     0.012526
      f-2     :     0.004829
      f+3     :     0.011733
      f-3     :     0.012091
  1 O s       :     3.366288  s :     3.366288
      pz      :     1.699038  p :     4.633606
      px      :     1.381196
      py      :     1.553372
      dz2     :     0.006132  d :     0.071566
      dxz     :     0.017864
      dyz     :     0.008086
      dx2y2   :     0.019340
      dxy     :     0.020146
      f0      :     0.000483  f :     0.004645
      f+1     :     0.000622
      f-1     :     0.000072
      f+2     :     0.001050
      f-2     :     0.000560
      f+3     :     0.000890
      f-3     :     0.000966
  2 H s       :     0.675135  s :     0.675135
      pz      :     0.055755  p :     0.159080
      px      :     0.033904
      py      :     0.069422
  3 H s       :     0.846786  s :     0.846786
      pz      :     0.036187  p :     0.059828
      px      :     0.009713
      py      :     0.013928
  4 H s       :     0.831724  s :     0.831724
      pz      :     0.019213  p :     0.059599
      px      :     0.011609
      py      :     0.028777
  5 H s       :     0.846773  s :     0.846773
      pz      :     0.015571  p :     0.059730
      px      :     0.015176
      py      :     0.028983


                      *****************************
                      * MAYER POPULATION ANALYSIS *
                      *****************************

  NA   - Mulliken gross atomic population
  ZA   - Total nuclear charge
  QA   - Mulliken gross atomic charge
  VA   - Mayer's total valence
  BVA  - Mayer's bonded valence
  FA   - Mayer's free valence

  ATOM       NA         ZA         QA         VA         BVA        FA
  0 C      6.1509     6.0000    -0.1509     3.9349     3.9349     0.0000
  1 O      8.4776     8.0000    -0.4776     1.8881     1.8881    -0.0000
  2 H      0.6870     1.0000     0.3130     0.9136     0.9136    -0.0000
  3 H      0.9013     1.0000     0.0987     0.9596     0.9596    -0.0000
  4 H      0.8817     1.0000     0.1183     0.9598     0.9598     0.0000
  5 H      0.9014     1.0000     0.0986     0.9596     0.9596    -0.0000

  Mayer bond orders larger than 0.1
B(  0-C ,  1-O ) :   0.9987 B(  0-C ,  3-H ) :   0.9755 B(  0-C ,  4-H ) :   0.9749 
B(  0-C ,  5-H ) :   0.9755 B(  1-O ,  2-H ) :   0.9002 

-------
TIMINGS
-------

Total SCF time: 0 days 0 hours 0 min 8 sec 

Total time                  ....       8.618 sec
Sum of individual times     ....       8.247 sec  ( 95.7%)

Fock matrix formation       ....       6.700 sec  ( 77.7%)
  XC integration            ....       1.874 sec  ( 28.0% of F)
    Basis function eval.    ....       0.405 sec  ( 21.6% of XC)
    Density eval.           ....       0.258 sec  ( 13.7% of XC)
    XC-Functional eval.     ....       0.670 sec  ( 35.7% of XC)
    XC-Potential eval.      ....       0.267 sec  ( 14.2% of XC)
Diagonalization             ....       0.030 sec  (  0.3%)
Density matrix formation    ....       0.013 sec  (  0.2%)
Population analysis         ....       0.028 sec  (  0.3%)
Initial guess               ....       0.166 sec  (  1.9%)
Orbital Transformation      ....       0.000 sec  (  0.0%)
Orbital Orthonormalization  ....       0.000 sec  (  0.0%)
DIIS solution               ....       0.026 sec  (  0.3%)
SOSCF solution              ....       0.016 sec  (  0.2%)
Grid generation             ....       1.269 sec  ( 14.7%)


-------------------------------------------------------------------------------
                          DFT DISPERSION CORRECTION                            
                                                                               
                              DFTD3 V3.1  Rev 1                                
                              USING zero damping                               
-------------------------------------------------------------------------------
The omegaB97X-D3 functional is recognized. Fit by Chai et al.
Active option DFTDOPT                   ...         3   

molecular C6(AA) [au] = 208.716406 


            DFT-D V3
 parameters
 s6 scaling factor         :     1.0000 
 rs6 scaling factor        :     1.2810 
 s8 scaling factor         :     1.0000 
 rs8 scaling factor        :     1.0940 
 Damping factor alpha6     :    14.0000 
 Damping factor alpha8     :    16.0000 
 ad hoc parameters k1-k3   :    16.0000     1.3333    -4.0000 

 Edisp/kcal,au: -0.150210192253  -0.000239375153 
 E6   /kcal   :  -0.029618624 
 E8   /kcal   :  -0.120591568 
 % E8         :  80.281880999 

-------------------------   ----------------
Dispersion correction           -0.000239375
-------------------------   ----------------


-------------------------   --------------------
FINAL SINGLE POINT ENERGY      -115.738051173505
-------------------------   --------------------



           ************************************************************
           *        Program running with 4 parallel MPI-processes     *
           *              working on a common directory               *
           ************************************************************
------------------------------------------------------------------------------
                         ORCA SCF GRADIENT CALCULATION
------------------------------------------------------------------------------

Gradient of the Kohn-Sham DFT energy:
Kohn-Sham wavefunction type      ... RKS
Hartree-Fock exchange scaling    ...    0.196
Number of operators              ...    1
Number of atoms                  ...    6
Basis set dimensions             ...   86
Integral neglect threshold       ... 2.5e-11
Integral primitive cutoff        ... 2.5e-12

Nuclear repulsion gradient       ... done
One Electron Gradient            ... done
Pre-screening matrix             ... done
Starting the two electron gradient:
Two electron gradient done
Exchange-correlation gradient    ... done
Dispersion correction            ... done

------------------
CARTESIAN GRADIENT
------------------

   1   C   :    0.000053616   -0.000254915   -0.000158281
   2   O   :    0.000052002   -0.000034906    0.000031173
   3   H   :    0.000000352    0.000010333   -0.000008041
   4   H   :    0.000012592   -0.000005854   -0.000003605
   5   H   :    0.000044036   -0.000023369    0.000010201
   6   H   :   -0.000162598    0.000308710    0.000128554

Difference to translation invariance:
           :    0.0000000000   -0.0000000000   -0.0000000000

Norm of the cartesian gradient     ...    0.0004889136
RMS gradient                       ...    0.0001152380
MAX gradient                       ...    0.0003087104

-------
TIMINGS
-------

Total SCF gradient time            ...        1.790 sec

One electron gradient       ....       0.005 sec  (  0.3%)
Prescreening matrices       ....       0.025 sec  (  1.4%)
Two electron gradient       ....       0.838 sec  ( 46.8%)
XC gradient                 ....       0.628 sec  ( 35.1%)
------------------------------------------------------------------------------
                         ORCA GEOMETRY RELAXATION STEP
------------------------------------------------------------------------------

Reading the OPT-File                    .... done
Getting information on internals        .... done
Copying old internal coords+grads       .... done
Making the new internal coordinates     .... (new redundants).... done
Validating the new internal coordinates .... (new redundants).... done
Calculating the B-matrix                .... done
Calculating the G,G- and P matrices     .... done
Transforming gradient to internals      .... done
Projecting the internal gradient        .... done
Number of atoms                         ....   6
Number of internal coordinates          ....  15
Current Energy                          ....  -115.738051174 Eh
Current gradient norm                   ....     0.000488914 Eh/bohr
Maximum allowed component of the step   ....  0.300
Current trust radius                    ....  0.300
Evaluating the initial hessian          ....  (Almloef) done
Projecting the Hessian                  .... done
Forming the augmented Hessian           .... done
Diagonalizing the augmented Hessian     .... done
Last element of RFO vector              ....  0.999999949
Lowest eigenvalues of augmented Hessian:
 -0.000000032  0.021176476  0.181803627  0.192306512  0.313320762
Length of the computed step             ....  0.000319012
The final length of the internal step   ....  0.000319012
Converting the step to cartesian space:
 Initial RMS(Int)=    0.0000823685
Transforming coordinates:
 Iter   0:  RMS(Cart)=    0.0000731137 RMS(Int)=    1.6222987973
 Iter   1:  RMS(Cart)=    0.0000000085 RMS(Int)=    0.0000000090
Imposing constraints:
 Iter   0:  RMS(Cart)=    0.0000000009 RMS(Int)=    0.0000000000
CONVERGED
done
Storing new coordinates                 .... done

                                .--------------------.
          ----------------------|Geometry convergence|-------------------------
          Item                value                   Tolerance       Converged
          ---------------------------------------------------------------------
          RMS gradient        0.0000270388            0.0001000000      YES
          MAX gradient        0.0000692943            0.0003000000      YES
          RMS step            0.0000823685            0.0020000000      YES
          MAX step            0.0002258732            0.0040000000      YES
          ........................................................
          Max(Bonds)      0.0001      Max(Angles)    0.01
          Max(Dihed)        0.00      Max(Improp)    0.00
          ---------------------------------------------------------------------

                    ***********************HURRAY********************
                    ***        THE OPTIMIZATION HAS CONVERGED     ***
                    *************************************************


    ---------------------------------------------------------------------------
                         Redundant Internal Coordinates

                          --- Optimized Parameters ---  
                            (Angstroem and degrees)

        Definition                    OldVal   dE/dq     Step     FinalVal
    ----------------------------------------------------------------------------
     1. B(O   1,C   0)                1.4116  0.000055 -0.0001    1.4115   
     2. B(H   2,O   1)                0.9575  0.000012 -0.0000    0.9575   
     3. B(H   3,C   0)                1.0960  0.000002 -0.0000    1.0960   
     4. B(H   4,C   0)                1.0895  0.000007 -0.0000    1.0895   
     5. B(H   5,C   0)                1.0966  0.000371  0.0000    1.0966 C 
     6. A(O   1,C   0,H   4)          107.02 -0.000069    0.01    107.03   
     7. A(O   1,C   0,H   3)          112.23 -0.000008    0.00    112.23   
     8. A(O   1,C   0,H   5)          112.23 -0.000004    0.00    112.23   
     9. A(H   3,C   0,H   5)          108.77  0.000026   -0.01    108.77   
    10. A(H   4,C   0,H   5)          108.22  0.000036   -0.01    108.21   
    11. A(H   3,C   0,H   4)          108.22  0.000021   -0.00    108.22   
    12. A(C   0,O   1,H   2)          108.75 -0.000008    0.00    108.75   
    13. D(H   2,O   1,C   0,H   5)    -61.43 -0.000009    0.00    -61.43   
    14. D(H   2,O   1,C   0,H   3)     61.43  0.000016   -0.00     61.42   
    15. D(H   2,O   1,C   0,H   4)    180.00 -0.000007    0.00    180.00   
    ----------------------------------------------------------------------------
                 *******************************************************
                 *** FINAL ENERGY EVALUATION AT THE STATIONARY POINT ***
                 ***               (AFTER    1 CYCLES)               ***
                 *******************************************************
---------------------------------
CARTESIAN COORDINATES (ANGSTROEM)
---------------------------------
  C      3.011517   -1.181188    0.598425
  O      4.394832   -1.128270    0.874192
  H      4.772318   -0.379237    0.412381
  H      2.806593   -1.319195   -0.469411
  H      2.611670   -2.040487    1.135790
  H      2.484646   -0.284294    0.945742

----------------------------
CARTESIAN COORDINATES (A.U.)
----------------------------
  NO LB      ZA    FRAG     MASS         X           Y           Z
   0 C     6.0000    0    12.011    5.690943   -2.232121    1.130860
   1 O     8.0000    0    15.999    8.305028   -2.132122    1.651983
   2 H     1.0000    0     1.008    9.018374   -0.716653    0.779287
   3 H     1.0000    0     1.008    5.303692   -2.492918   -0.887059
   4 H     1.0000    0     1.008    4.935342   -3.855962    2.146332
   5 H     1.0000    0     1.008    4.695300   -0.537238    1.787193

--------------------------------
INTERNAL COORDINATES (ANGSTROEM)
--------------------------------
 C      0   0   0     0.000000000000     0.00000000     0.00000000
 O      1   0   0     1.411526092000     0.00000000     0.00000000
 H      2   1   0     0.957505328514   108.75123138     0.00000000
 H      1   2   3     1.096045319852   112.22781266    61.42312269
 H      1   2   3     1.089511290930   107.02992325   180.00091860
 H      1   2   3     1.096649648222   112.22841175   298.57297352

---------------------------
INTERNAL COORDINATES (A.U.)
---------------------------
 C      0   0   0     0.000000000000     0.00000000     0.00000000
 O      1   0   0     2.667397744764     0.00000000     0.00000000
 H      2   1   0     1.809422842662   108.75123138     0.00000000
 H      1   2   3     2.071225484887   112.22781266    61.42312269
 H      1   2   3     2.058877959673   107.02992325   180.00091860
 H      1   2   3     2.072367500000   112.22841175   298.57297352

---------------------
BASIS SET INFORMATION
---------------------
There are 3 groups of distinct atoms

 Group   1 Type C   : 11s6p2d1f contracted to 5s3p2d1f pattern {62111/411/11/1}
 Group   2 Type O   : 11s6p2d1f contracted to 5s3p2d1f pattern {62111/411/11/1}
 Group   3 Type H   : 5s1p contracted to 3s1p pattern {311/1}

Atom   0C    basis set group =>   1
Atom   1O    basis set group =>   2
Atom   2H    basis set group =>   3
Atom   3H    basis set group =>   3
Atom   4H    basis set group =>   3
Atom   5H    basis set group =>   3


           ************************************************************
           *        Program running with 4 parallel MPI-processes     *
           *              working on a common directory               *
           ************************************************************
------------------------------------------------------------------------------
                           ORCA GTO INTEGRAL CALCULATION
------------------------------------------------------------------------------

                         BASIS SET STATISTICS AND STARTUP INFO

 # of primitive gaussian shells          ...   64
 # of primitive gaussian functions       ...  124
 # of contracted shells                  ...   38
 # of contracted basis functions         ...   86
 Highest angular momentum                ...    3
 Maximum contraction depth               ...    6
 Integral package used                   ... LIBINT
 Integral threshhold            Thresh   ...  2.500e-11
 Primitive cut-off              TCut     ...  2.500e-12


------------------------------ INTEGRAL EVALUATION ----------------------------


 * One electron integrals 
 Pre-screening matrix                    ... done
 Shell pair data                         ... done (   0.000 sec)



           ************************************************************
           *        Program running with 4 parallel MPI-processes     *
           *              working on a common directory               *
           ************************************************************
-------------------------------------------------------------------------------
                                 ORCA SCF
-------------------------------------------------------------------------------

------------
SCF SETTINGS
------------
Hamiltonian:
 Density Functional     Method          .... DFT(GTOs)
 Exchange Functional    Exchange        .... WB97X-D3
 Correlation Functional Correlation     .... WB97X-D3
 Gradients option       PostSCFGGA      .... off
 Hybrid DFT is turned on
   Fraction HF Exchange ScalHFX         ....  0.195728
   Scaling of DF-GGA-X  ScalDFX         ....  0.000000
   Scaling of DF-GGA-C  ScalDFC         ....  1.000000
   Scaling of DF-LDA-C  ScalLDAC        ....  1.000000
   Perturbative correction              ....  0.000000
   Density functional embedding theory  .... OFF
 Long-range corrected/Screened/Range-Separated Hybrid DFT is turned on
   Amount of maximum screened exact exchange              ....  0.804272
   Range separation parameter mu (erf(mu*r12)/r12)        ....  0.250000


General Settings:
 Integral files         IntName         .... 2_geo_opt
 Hartree-Fock type      HFTyp           .... RHF
 Total Charge           Charge          ....    0
 Multiplicity           Mult            ....    1
 Number of Electrons    NEL             ....   18
 Basis Dimension        Dim             ....   86
 Nuclear Repulsion      ENuc            ....     40.4367964409 Eh

Convergence Acceleration:
 DIIS                   CNVDIIS         .... on
   Start iteration      DIISMaxIt       ....    12
   Startup error        DIISStart       ....  0.200000
   # of expansion vecs  DIISMaxEq       ....     5
   Bias factor          DIISBfac        ....   1.050
   Max. coefficient     DIISMaxC        ....  10.000
 Newton-Raphson         CNVNR           .... off
 SOSCF                  CNVSOSCF        .... on
   Start iteration      SOSCFMaxIt      ....   150
   Startup grad/error   SOSCFStart      ....  0.003300
 Level Shifting         CNVShift        .... on
   Level shift para.    LevelShift      ....    0.2500
   Turn off err/grad.   ShiftErr        ....    0.0010
 Zerner damping         CNVZerner       .... off
 Static damping         CNVDamp         .... on
   Fraction old density DampFac         ....    0.7000
   Max. Damping (<1)    DampMax         ....    0.9800
   Min. Damping (>=0)   DampMin         ....    0.0000
   Turn off err/grad.   DampErr         ....    0.1000
 Fernandez-Rico         CNVRico         .... off

SCF Procedure:
 Maximum # iterations   MaxIter         ....   125
 SCF integral mode      SCFMode         .... Direct
   Integral package                     .... LIBINT
 Reset frequency        DirectResetFreq ....    20
 Integral Threshold     Thresh          ....  2.500e-11 Eh
 Primitive CutOff       TCut            ....  2.500e-12 Eh

Convergence Tolerance:
 Convergence Check Mode ConvCheckMode   .... Total+1el-Energy
 Convergence forced     ConvForced      .... 0
 Energy Change          TolE            ....  1.000e-08 Eh
 1-El. energy change                    ....  1.000e-05 Eh
 Orbital Gradient       TolG            ....  1.000e-05
 Orbital Rotation angle TolX            ....  1.000e-05
 DIIS Error             TolErr          ....  5.000e-07


Diagonalization of the overlap matrix:
Smallest eigenvalue                        ... 1.651e-03
Time for diagonalization                   ...    0.002 sec
Threshold for overlap eigenvalues          ... 1.000e-08
Number of eigenvalues below threshold      ... 0
Time for construction of square roots      ...    0.003 sec
Total time needed                          ...    0.005 sec

---------------------
INITIAL GUESS: MOREAD
---------------------
Guess MOs are being read from file: 2_geo_opt.gbw
Input Geometry matches current geometry (good)
Input basis set matches current basis set (good)
MOs were renormalized
MOs were reorthogonalized (Cholesky)
                      ------------------
                      INITIAL GUESS DONE (   0.0 sec)
                      ------------------
-------------------
DFT GRID GENERATION
-------------------

General Integration Accuracy     IntAcc      ...  5.010
Radial Grid Type                 RadialGrid  ... Gauss-Chebyshev
Angular Grid (max. acc.)         AngularGrid ... Lebedev-434
Angular grid pruning method      GridPruning ... 3 (G Style)
Weight generation scheme         WeightScheme... Becke
Basis function cutoff            BFCut       ...    1.0000e-11
Integration weight cutoff        WCut        ...    1.0000e-14
Grids for H and He will be reduced by one unit

# of grid points (after initial pruning)     ...  48308 (   0.0 sec)
# of grid points (after weights+screening)   ...  46677 (   0.0 sec)
nearest neighbour list constructed           ...    0.0 sec
Grid point re-assignment to atoms done       ...    0.0 sec
Grid point division into batches done        ...    0.3 sec
Reduced shell lists constructed in    0.3 sec

Total number of grid points                  ...    46677
Total number of batches                      ...      733
Average number of points per batch           ...       63
Average number of grid points per atom       ...     7780
Average number of shells per batch           ...    33.14 (87.20%)
Average number of basis functions per batch  ...    76.84 (89.35%)
Average number of large shells per batch     ...    30.59 (92.33%)
Average number of large basis fcns per batch ...    72.26 (94.03%)
Maximum spatial batch extension              ...  15.77, 14.99, 16.58 au
Average spatial batch extension              ...   0.40,  0.41,  0.42 au

Time for grid setup =    0.394 sec

--------------
SCF ITERATIONS
--------------
ITER       Energy         Delta-E        Max-DP      RMS-DP      [F,P]     Damp
               ***  Starting incremental Fock matrix formation  ***
                      *** Initiating the SOSCF procedure ***
                      *** Re-Reading the Fockian *** 
                      *** Removing any level shift *** 
ITER      Energy       Delta-E        Grad      Rot      Max-DP    RMS-DP
  0   -115.73770425 -115.7377042508  0.000011  0.000011  0.000011  0.000001
               *** Restarting incremental Fock matrix formation ***
  1   -115.73770425  -0.0000000035  0.000005  0.000005  0.000007  0.000000
  2   -115.73770425  -0.0000000004  0.000004  0.000003  0.000004  0.000000
                 **** Energy Check signals convergence ****
              ***Rediagonalizing the Fockian in SOSCF/NRSCF***

               *****************************************************
               *                     SUCCESS                       *
               *           SCF CONVERGED AFTER   3 CYCLES          *
               *****************************************************

Setting up the final grid:

General Integration Accuracy     IntAcc      ...  5.340
Radial Grid Type                 RadialGrid  ... Gauss-Chebyshev
Angular Grid (max. acc.)         AngularGrid ... Lebedev-590
Angular grid pruning method      GridPruning ... 3 (G Style)
Weight generation scheme         WeightScheme... Becke
Basis function cutoff            BFCut       ...    1.0000e-11
Integration weight cutoff        WCut        ...    1.0000e-14
Grids for H and He will be reduced by one unit

# of grid points (after initial pruning)     ...  77324 (   0.0 sec)
# of grid points (after weights+screening)   ...  74512 (   0.0 sec)
nearest neighbour list constructed           ...    0.0 sec
Grid point re-assignment to atoms done       ...    0.0 sec
Grid point division into batches done        ...    0.8 sec
Reduced shell lists constructed in    0.8 sec

Total number of grid points                  ...    74512
Total number of batches                      ...     1167
Average number of points per batch           ...       63
Average number of grid points per atom       ...    12419
Average number of shells per batch           ...    32.94 (86.67%)
Average number of basis functions per batch  ...    76.38 (88.81%)
Average number of large shells per batch     ...    30.32 (92.05%)
Average number of large basis fcns per batch ...    71.53 (93.66%)
Maximum spatial batch extension              ...  13.18, 14.25, 15.48 au
Average spatial batch extension              ...   0.34,  0.36,  0.37 au

Final grid set up in    0.9 sec
Final integration                            ... done (   0.2 sec)
Change in XC energy                          ...    -0.000107578
Integrated number of electrons               ...    18.000000741
Previous integrated no of electrons          ...    18.000002266

----------------
TOTAL SCF ENERGY
----------------

Total Energy       :         -115.73781183 Eh           -3149.38597 eV

Components:
Nuclear Repulsion  :           40.43679644 Eh            1100.34117 eV
Electronic Energy  :         -156.17460827 Eh           -4249.72714 eV
One Electron Energy:         -237.29289257 Eh           -6457.06788 eV
Two Electron Energy:           81.11828430 Eh            2207.34073 eV

Virial components:
Potential Energy   :         -230.98774794 Eh           -6285.49617 eV
Kinetic Energy     :          115.24993611 Eh            3136.11020 eV
Virial Ratio       :            2.00423320


DFT components:
N(Alpha)           :        9.000000370746 electrons
N(Beta)            :        9.000000370746 electrons
N(Total)           :       18.000000741492 electrons
E(XC)              :      -10.655479022683 Eh       
DFET-embed. en.    :        0.000000000000 Eh       

---------------
SCF CONVERGENCE
---------------

  Last Energy change         ...   -1.6375e-10  Tolerance :   1.0000e-08
  Last MAX-Density change    ...    8.2770e-07  Tolerance :   1.0000e-07
  Last RMS-Density change    ...    5.7114e-08  Tolerance :   5.0000e-09
  Last Orbital Gradient      ...    5.8593e-07  Tolerance :   1.0000e-05
  Last Orbital Rotation      ...    6.1730e-07  Tolerance :   1.0000e-05

             **** THE GBW FILE WAS UPDATED (2_geo_opt.gbw) ****
             **** DENSITY FILE WAS UPDATED (2_geo_opt.scfp.tmp) ****
             **** ENERGY FILE WAS UPDATED (2_geo_opt.en.tmp) ****
----------------
ORBITAL ENERGIES
----------------

  NO   OCC          E(Eh)            E(eV) 
   0   2.0000     -19.228097      -523.2231 
   1   2.0000     -10.315176      -280.6902 
   2   2.0000      -1.136827       -30.9346 
   3   2.0000      -0.795305       -21.6413 
   4   2.0000      -0.611587       -16.6421 
   5   2.0000      -0.541723       -14.7410 
   6   2.0000      -0.526349       -14.3227 
   7   2.0000      -0.433788       -11.8040 
   8   2.0000      -0.373598       -10.1661 
   9   0.0000       0.116635         3.1738 
  10   0.0000       0.156657         4.2629 
  11   0.0000       0.202570         5.5122 
  12   0.0000       0.205070         5.5802 
  13   0.0000       0.226361         6.1596 
  14   0.0000       0.304338         8.2815 
  15   0.0000       0.313370         8.5272 
  16   0.0000       0.404514        11.0074 
  17   0.0000       0.452653        12.3173 
  18   0.0000       0.484957        13.1964 
  19   0.0000       0.535740        14.5782 
  20   0.0000       0.543616        14.7925 
  21   0.0000       0.567600        15.4452 
  22   0.0000       0.598536        16.2870 
  23   0.0000       0.603424        16.4200 
  24   0.0000       0.671313        18.2674 
  25   0.0000       0.779017        21.1981 
  26   0.0000       0.832186        22.6449 
  27   0.0000       0.861306        23.4373 
  28   0.0000       0.989577        26.9277 
  29   0.0000       1.013912        27.5900 
  30   0.0000       1.109790        30.1989 
  31   0.0000       1.382653        37.6239 
  32   0.0000       1.512903        41.1682 
  33   0.0000       1.553597        42.2755 
  34   0.0000       1.602838        43.6154 
  35   0.0000       1.613132        43.8955 
  36   0.0000       1.624033        44.1922 
  37   0.0000       1.660319        45.1796 
  38   0.0000       1.687863        45.9291 
  39   0.0000       1.774623        48.2899 
  40   0.0000       1.952083        53.1189 
  41   0.0000       2.030597        55.2554 
  42   0.0000       2.055226        55.9255 
  43   0.0000       2.094128        56.9841 
  44   0.0000       2.114615        57.5416 
  45   0.0000       2.268371        61.7255 
  46   0.0000       2.333503        63.4979 
  47   0.0000       2.345523        63.8249 
  48   0.0000       2.381028        64.7911 
  49   0.0000       2.429326        66.1053 
  50   0.0000       2.497484        67.9600 
  51   0.0000       2.596057        70.6423 
  52   0.0000       2.639688        71.8296 
  53   0.0000       2.707215        73.6671 
  54   0.0000       2.841839        77.3304 
  55   0.0000       2.871371        78.1340 
  56   0.0000       2.888353        78.5961 
  57   0.0000       2.992881        81.4404 
  58   0.0000       3.095986        84.2461 
  59   0.0000       3.172948        86.3403 
  60   0.0000       3.299032        89.7712 
  61   0.0000       3.408090        92.7388 
  62   0.0000       3.441804        93.6563 
  63   0.0000       3.488125        94.9167 
  64   0.0000       3.612589        98.3036 
  65   0.0000       3.645154        99.1897 
  66   0.0000       3.666985        99.7837 
  67   0.0000       4.005530       108.9960 
  68   0.0000       4.223259       114.9207 
  69   0.0000       4.273176       116.2790 
  70   0.0000       4.455311       121.2352 
  71   0.0000       4.564338       124.2019 
  72   0.0000       5.346069       145.4739 
  73   0.0000       5.425365       147.6317 
  74   0.0000       5.554356       151.1417 
  75   0.0000       5.826138       158.5373 
  76   0.0000       5.834120       158.7545 
  77   0.0000       5.985630       162.8773 
  78   0.0000       6.379620       173.5983 
  79   0.0000       6.530918       177.7153 
  80   0.0000       6.744986       183.5404 
  81   0.0000       6.804044       185.1474 
  82   0.0000       7.039382       191.5513 
  83   0.0000       7.215917       196.3551 
  84   0.0000      22.405446       609.6832 
  85   0.0000      43.664252      1188.1647 

                    ********************************
                    * MULLIKEN POPULATION ANALYSIS *
                    ********************************

-----------------------
MULLIKEN ATOMIC CHARGES
-----------------------
   0 C :   -0.150892
   1 O :   -0.477599
   2 H :    0.313028
   3 H :    0.098651
   4 H :    0.118251
   5 H :    0.098561
Sum of atomic charges:   -0.0000000

--------------------------------
MULLIKEN REDUCED ORBITAL CHARGES
--------------------------------
  0 C s       :     3.223183  s :     3.223183
      pz      :     1.047255  p :     2.826022
      px      :     0.702171
      py      :     1.076596
      dz2     :     0.011112  d :     0.094266
      dxz     :     0.032497
      dyz     :     0.002646
      dx2y2   :     0.012739
      dxy     :     0.035271
      f0      :     0.001356  f :     0.007421
      f+1     :     0.000956
      f-1     :     0.000175
      f+2     :     0.001464
      f-2     :     0.000123
      f+3     :     0.001361
      f-3     :     0.001986
  1 O s       :     3.792768  s :     3.792768
      pz      :     1.759402  p :     4.652568
      px      :     1.313634
      py      :     1.579532
      dz2     :     0.003136  d :     0.030578
      dxz     :     0.006477
      dyz     :     0.005835
      dx2y2   :     0.008938
      dxy     :     0.006192
      f0      :     0.000269  f :     0.001685
      f+1     :     0.000233
      f-1     :     0.000087
      f+2     :     0.000287
      f-2     :     0.000235
      f+3     :     0.000367
      f-3     :     0.000206
  2 H s       :     0.639279  s :     0.639279
      pz      :     0.017007  p :     0.047693
      px      :     0.012719
      py      :     0.017967
  3 H s       :     0.881984  s :     0.881984
      pz      :     0.012072  p :     0.019365
      px      :     0.003007
      py      :     0.004285
  4 H s       :     0.861529  s :     0.861529
      pz      :     0.006297  p :     0.020220
      px      :     0.004195
      py      :     0.009728
  5 H s       :     0.882092  s :     0.882092
      pz      :     0.004922  p :     0.019347
      px      :     0.004971
      py      :     0.009453


                     *******************************
                     * LOEWDIN POPULATION ANALYSIS *
                     *******************************

----------------------
LOEWDIN ATOMIC CHARGES
----------------------
   0 C :   -0.385285
   1 O :   -0.076055
   2 H :    0.165791
   3 H :    0.093383
   4 H :    0.108672
   5 H :    0.093495

-------------------------------
LOEWDIN REDUCED ORBITAL CHARGES
-------------------------------
  0 C s       :     2.863052  s :     2.863052
      pz      :     1.096647  p :     3.052214
      px      :     0.846078
      py      :     1.109488
      dz2     :     0.072417  d :     0.412995
      dxz     :     0.114060
      dyz     :     0.020702
      dx2y2   :     0.082142
      dxy     :     0.123674
      f0      :     0.007822  f :     0.057024
      f+1     :     0.007164
      f-1     :     0.000854
      f+2     :     0.012526
      f-2     :     0.004830
      f+3     :     0.011735
      f-3     :     0.012093
  1 O s       :     3.366244  s :     3.366244
      pz      :     1.699022  p :     4.633593
      px      :     1.381226
      py      :     1.553344
      dz2     :     0.006132  d :     0.071574
      dxz     :     0.017866
      dyz     :     0.008086
      dx2y2   :     0.019343
      dxy     :     0.020147
      f0      :     0.000483  f :     0.004645
      f+1     :     0.000622
      f-1     :     0.000072
      f+2     :     0.001051
      f-2     :     0.000560
      f+3     :     0.000890
      f-3     :     0.000966
  2 H s       :     0.675126  s :     0.675126
      pz      :     0.055756  p :     0.159083
      px      :     0.033903
      py      :     0.069424
  3 H s       :     0.846789  s :     0.846789
      pz      :     0.036187  p :     0.059829
      px      :     0.009714
      py      :     0.013929
  4 H s       :     0.831727  s :     0.831727
      pz      :     0.019213  p :     0.059601
      px      :     0.011612
      py      :     0.028776
  5 H s       :     0.846775  s :     0.846775
      pz      :     0.015571  p :     0.059729
      px      :     0.015176
      py      :     0.028983


                      *****************************
                      * MAYER POPULATION ANALYSIS *
                      *****************************

  NA   - Mulliken gross atomic population
  ZA   - Total nuclear charge
  QA   - Mulliken gross atomic charge
  VA   - Mayer's total valence
  BVA  - Mayer's bonded valence
  FA   - Mayer's free valence

  ATOM       NA         ZA         QA         VA         BVA        FA
  0 C      6.1509     6.0000    -0.1509     3.9349     3.9349     0.0000
  1 O      8.4776     8.0000    -0.4776     1.8881     1.8881    -0.0000
  2 H      0.6870     1.0000     0.3130     0.9136     0.9136     0.0000
  3 H      0.9013     1.0000     0.0987     0.9596     0.9596     0.0000
  4 H      0.8817     1.0000     0.1183     0.9598     0.9598     0.0000
  5 H      0.9014     1.0000     0.0986     0.9596     0.9596    -0.0000

  Mayer bond orders larger than 0.1
B(  0-C ,  1-O ) :   0.9987 B(  0-C ,  3-H ) :   0.9755 B(  0-C ,  4-H ) :   0.9749 
B(  0-C ,  5-H ) :   0.9755 B(  1-O ,  2-H ) :   0.9002 

-------
TIMINGS
-------

Total SCF time: 0 days 0 hours 0 min 4 sec 

Total time                  ....       4.209 sec
Sum of individual times     ....       3.878 sec  ( 92.1%)

Fock matrix formation       ....       2.510 sec  ( 59.6%)
  XC integration            ....       0.754 sec  ( 30.0% of F)
    Basis function eval.    ....       0.169 sec  ( 22.4% of XC)
    Density eval.           ....       0.108 sec  ( 14.3% of XC)
    XC-Functional eval.     ....       0.279 sec  ( 36.9% of XC)
    XC-Potential eval.      ....       0.106 sec  ( 14.0% of XC)
Diagonalization             ....       0.004 sec  (  0.1%)
Density matrix formation    ....       0.002 sec  (  0.0%)
Population analysis         ....       0.010 sec  (  0.2%)
Initial guess               ....       0.004 sec  (  0.1%)
Orbital Transformation      ....       0.000 sec  (  0.0%)
Orbital Orthonormalization  ....       0.002 sec  (  0.0%)
DIIS solution               ....       0.000 sec  (  0.0%)
SOSCF solution              ....       0.005 sec  (  0.1%)
Grid generation             ....       1.343 sec  ( 31.9%)


-------------------------------------------------------------------------------
                          DFT DISPERSION CORRECTION                            
                                                                               
                              DFTD3 V3.1  Rev 1                                
                              USING zero damping                               
-------------------------------------------------------------------------------
The omegaB97X-D3 functional is recognized. Fit by Chai et al.
Active option DFTDOPT                   ...         3   

molecular C6(AA) [au] = 208.716329 


            DFT-D V3
 parameters
 s6 scaling factor         :     1.0000 
 rs6 scaling factor        :     1.2810 
 s8 scaling factor         :     1.0000 
 rs8 scaling factor        :     1.0940 
 Damping factor alpha6     :    14.0000 
 Damping factor alpha8     :    16.0000 
 ad hoc parameters k1-k3   :    16.0000     1.3333    -4.0000 

 Edisp/kcal,au: -0.150201988841  -0.000239362080 
 E6   /kcal   :  -0.029618969 
 E8   /kcal   :  -0.120583020 
 % E8         :  80.280574690 

-------------------------   ----------------
Dispersion correction           -0.000239362
-------------------------   ----------------


-------------------------   --------------------
FINAL SINGLE POINT ENERGY      -115.738051195221
-------------------------   --------------------

                                *** OPTIMIZATION RUN DONE ***

                            ***************************************
                            *     ORCA property calculations      *
                            ***************************************

                                    ---------------------
                                    Active property flags
                                    ---------------------
   (+) Dipole Moment


------------------------------------------------------------------------------
                       ORCA ELECTRIC PROPERTIES CALCULATION
------------------------------------------------------------------------------

Dipole Moment Calculation                       ... on
Quadrupole Moment Calculation                   ... off
Polarizability Calculation                      ... off
GBWName                                         ... 2_geo_opt.gbw
Electron density file                           ... 2_geo_opt.scfp.tmp
The origin for moment calculation is the CENTER OF MASS  = ( 7.033593, -2.140485  1.369115)

-------------
DIPOLE MOMENT
-------------
                                X             Y             Z
Electronic contribution:      1.75650      -0.02886       0.41960
Nuclear contribution   :     -2.06609       0.47626      -0.81730
                        -----------------------------------------
Total Dipole Moment    :     -0.30958       0.44740      -0.39769
                        -----------------------------------------
Magnitude (a.u.)       :      0.67392
Magnitude (Debye)      :      1.71297



--------------------
Rotational spectrum 
--------------------
 
Rotational constants in cm-1:     4.291811     0.833781     0.804914 
Rotational constants in MHz : 128665.260176 24996.135616 24130.705652 

 Dipole components along the rotational axes: 
x,y,z [a.u.] :    -0.332692     0.586075     0.000561 
x,y,z [Debye]:    -0.845635     1.489683     0.001425 

 
------------------------------------------------------------------------------
                      ORCA CHELPG CHARGES GENERATION
------------------------------------------------------------------------------

GBW file                           ... 2_geo_opt.gbw

Reading the GBW file               ... done

Grid spacing                       ...     0.300000
Point Cut-Off                      ...     2.800000
Van-der-Waals Radii                ...        COSMO
Total charge                       ...            0


Number of points X direction       ...           26
Number of points Y direction       ...           24
Number of points Z direction       ...           24
Maximum number of possible points  ...        14976
Final number of points             ...         5948


CHELPG Charges            
--------------------------------
  0   C   :       0.093635
  1   O   :      -0.606833
  2   H   :       0.403875
  3   H   :       0.014397
  4   H   :       0.081094
  5   H   :       0.013833
--------------------------------
Total charge:    -0.000000
--------------------------------

CHELPG charges calculated...

Timings for individual parts in CHELPG calculation:
Grid generation                 ...        0.002 sec (=   0.000 min)
Potential calculation           ...        0.876 sec (=   0.015 min)
Fit to the potential            ...        0.002 sec (=   0.000 min)
------------------------------------------------------------------------------


Timings for individual modules:

Sum of individual times         ...       30.912 sec (=   0.515 min)
GTO integral calculation        ...        5.781 sec (=   0.096 min)  18.7 %
SCF iterations                  ...       16.830 sec (=   0.281 min)  54.4 %
SCF Gradient evaluation         ...        2.548 sec (=   0.042 min)   8.2 %
Geometry relaxation             ...        3.063 sec (=   0.051 min)   9.9 %
CHELPG charge generation        ...        2.689 sec (=   0.045 min)   8.7 %
                             ****ORCA TERMINATED NORMALLY****
TOTAL RUN TIME: 0 days 0 hours 0 minutes 35 seconds 383 msec
