
                                 *****************
                                 * O   R   C   A *
                                 *****************

           --- An Ab Initio, DFT and Semiempirical electronic structure package ---

                  #######################################################
                  #                        -***-                        #
                  #          Department of theory and spectroscopy      #
                  #               Directorship: Frank Neese             #
                  #        Max Planck Institute fuer Kohlenforschung    #
                  #                Kaiser Wilhelm Platz 1               #
                  #                 D-45470 Muelheim/Ruhr               #
                  #                      Germany                        #
                  #                                                     #
                  #                  All rights reserved                #
                  #                        -***-                        #
                  #######################################################


                         Program Version 4.1.2  - RELEASE  -


 With contributions from (in alphabetic order):
   Daniel Aravena         : Magnetic Properties
   Michael Atanasov       : Ab Initio Ligand Field Theory
   Alexander A. Auer      : GIAO ZORA
   Ute Becker             : Parallelization
   Giovanni Bistoni       : ED, Open-shell LED
   Martin Brehm           : Molecular dynamics
   Dmytro Bykov           : SCF Hessian
   Vijay G. Chilkuri      : MRCI spin determinant printing
   Dipayan Datta          : RHF DLPNO-CCSD density
   Achintya Kumar Dutta   : EOM-CC, STEOM-CC
   Dmitry Ganyushin       : Spin-Orbit,Spin-Spin,Magnetic field MRCI
   Miquel Garcia          : C-PCM Hessian
   Yang Guo               : DLPNO-NEVPT2, CIM, IAO-localization
   Andreas Hansen         : Spin unrestricted coupled pair/coupled cluster methods
   Benjamin Helmich-Paris : CASSCF linear response (MC-RPA)
   Lee Huntington         : MR-EOM, pCC
   Robert Izsak           : Overlap fitted RIJCOSX, COSX-SCS-MP3, EOM
   Christian Kollmar      : KDIIS, OOCD, Brueckner-CCSD(T), CCSD density
   Simone Kossmann        : Meta GGA functionals, TD-DFT gradient, OOMP2, MP2 Hessian
   Martin Krupicka        : AUTO-CI
   Lucas Lang             : DCDCAS
   Dagmar Lenk            : GEPOL surface, SMD
   Dimitrios Liakos       : Extrapolation schemes; parallel MDCI
   Dimitrios Manganas     : ROCIS; embedding schemes
   Dimitrios Pantazis     : SARC Basis sets
   Taras Petrenko         : DFT Hessian,TD-DFT gradient, ASA, ECA, R-Raman, ABS, FL, XAS/XES, NRVS
   Peter Pinski           : DLPNO-MP2, DLPNO-MP2 Gradient
   Christoph Reimann      : Effective Core Potentials
   Marius Retegan         : Local ZFS, SOC
   Christoph Riplinger    : Optimizer, TS searches, QM/MM, DLPNO-CCSD(T), (RO)-DLPNO pert. Triples
   Tobias Risthaus        : Range-separated hybrids, TD-DFT gradient, RPA, STAB
   Michael Roemelt        : Restricted open shell CIS
   Masaaki Saitow         : Open-shell DLPNO
   Barbara Sandhoefer     : DKH picture change effects
   Avijit Sen             : IP-ROCIS
   Kantharuban Sivalingam : CASSCF convergence, NEVPT2, FIC-MRCI
   Bernardo de Souza      : ESD, SOC TD-DFT
   Georgi Stoychev        : AutoAux, RI-MP2 NMR
   Willem Van den Heuvel  : Paramagnetic NMR
   Boris Wezisla          : Elementary symmetry handling
   Frank Wennmohs         : Technical directorship


 We gratefully acknowledge several colleagues who have allowed us to
 interface, adapt or use parts of their codes:
   Stefan Grimme, W. Hujo, H. Kruse,             : VdW corrections, initial TS optimization,
                  C. Bannwarth                     DFT functionals, gCP, sTDA/sTD-DF
   Ed Valeev                                     : LibInt (2-el integral package), F12 methods
   Garnet Chan, S. Sharma, J. Yang, R. Olivares  : DMRG
   Ulf Ekstrom                                   : XCFun DFT Library
   Mihaly Kallay                                 : mrcc  (arbitrary order and MRCC methods)
   Andreas Klamt, Michael Diedenhofen            : otool_cosmo (COSMO solvation model)
   Jiri Pittner, Ondrej Demel                    : Mk-CCSD
   Frank Weinhold                                : gennbo (NPA and NBO analysis)
   Christopher J. Cramer and Donald G. Truhlar   : smd solvation model
   Lars Goerigk                                  : TD-DFT with DH, B97 family of functionals
   V. Asgeirsson, H. Jonsson                     : NEB implementation
   FAccTs GmbH                                   : IRC, NEB, NEB-TS, Multilevel


 Your calculation uses the libint2 library for the computation of 2-el integrals
 For citations please refer to: http://libint.valeyev.net

 This ORCA versions uses:
   CBLAS   interface :  Fast vector & matrix operations
   LAPACKE interface :  Fast linear algebra routines
   SCALAPACK package :  Parallel linear algebra routines


Your calculation utilizes the atom-pairwise dispersion correction
with the zero-damping scheme (D30)
Cite in your paper:
S.Grimme, J.Antony, S.Ehrlich and H.Krieg, J.Chem.Phys., 132, (2010), 154104 
   

XCFun DFT library Copyright 2009-2010 Ulf Ekstrom and contributors.
See http://admol.org/xcfun for more information. This is free soft-
ware; see the source code for copying conditions. There is ABSOLUTELY
NO WARRANTY; not even for MERCHANTABILITY or FITNESS FOR A PARTICULAR
PURPOSE. For details see the documentation. Scientific users of this 
library should cite U. Ekstrom, L. Visscher, R. Bast, A. J. Thorvald-
sen and K. Ruud; J.Chem.Theor.Comp. 2010, DOI: 10.1021/ct100117s
XCFun Version 0.99 
----- Orbital basis set information -----
Your calculation utilizes the basis: def2-TZVP
   F. Weigend and R. Ahlrichs, Phys. Chem. Chem. Phys. 7, 3297 (2005).

================================================================================
                                        WARNINGS
                       Please study these warnings very carefully!
================================================================================


INFO   : the flag for use of LIBINT has been found!

Your calculation utilizes the atom-pairwise dispersion correction
with the zero-damping scheme (D30)
Cite in your paper:
S.Grimme, J.Antony, S.Ehrlich and H.Krieg, J.Chem.Phys., 132, (2010), 154104 
   

XCFun DFT library Copyright 2009-2010 Ulf Ekstrom and contributors.
See http://admol.org/xcfun for more information. This is free soft-
ware; see the source code for copying conditions. There is ABSOLUTELY
NO WARRANTY; not even for MERCHANTABILITY or FITNESS FOR A PARTICULAR
PURPOSE. For details see the documentation. Scientific users of this 
library should cite U. Ekstrom, L. Visscher, R. Bast, A. J. Thorvald-
sen and K. Ruud; J.Chem.Theor.Comp. 2010, DOI: 10.1021/ct100117s
XCFun Version 0.99 
----- Orbital basis set information -----
Your calculation utilizes the basis: def2-TZVP
   F. Weigend and R. Ahlrichs, Phys. Chem. Chem. Phys. 7, 3297 (2005).

================================================================================
                                        WARNINGS
                       Please study these warnings very carefully!
================================================================================


WARNING: MOInp is set but Guess=PModel. MOInp will be ignored!
         To read the initial guess from a file you must also specify
         'MORead' in the simple input or 'Guess MORead' in the %scf block


INFO   : the flag for use of LIBINT has been found!

Your calculation utilizes the atom-pairwise dispersion correction
with the zero-damping scheme (D30)
Cite in your paper:
S.Grimme, J.Antony, S.Ehrlich and H.Krieg, J.Chem.Phys., 132, (2010), 154104 
   

XCFun DFT library Copyright 2009-2010 Ulf Ekstrom and contributors.
See http://admol.org/xcfun for more information. This is free soft-
ware; see the source code for copying conditions. There is ABSOLUTELY
NO WARRANTY; not even for MERCHANTABILITY or FITNESS FOR A PARTICULAR
PURPOSE. For details see the documentation. Scientific users of this 
library should cite U. Ekstrom, L. Visscher, R. Bast, A. J. Thorvald-
sen and K. Ruud; J.Chem.Theor.Comp. 2010, DOI: 10.1021/ct100117s
XCFun Version 0.99 
----- Orbital basis set information -----
Your calculation utilizes the basis: def2-TZVP
   F. Weigend and R. Ahlrichs, Phys. Chem. Chem. Phys. 7, 3297 (2005).

================================================================================
                                        WARNINGS
                       Please study these warnings very carefully!
================================================================================


WARNING: MOInp is set but Guess=PModel. MOInp will be ignored!
         To read the initial guess from a file you must also specify
         'MORead' in the simple input or 'Guess MORead' in the %scf block


INFO   : the flag for use of LIBINT has been found!

================================================================================
                                       INPUT FILE
================================================================================
NAME = 13-188.in
|  1> #Run DFT-D3 single point of the dimer
|  2> ! wB97X-D3 def2-TZVP TIGHTSCF CHELPG PMODEL PAL8
|  3> 
|  4> %base "13-188_DFT_AB"
|  5> 
|  6> %scf
|  7> MaxIter 1000
|  8> end
|  9> 
| 10> * xyz 0 1
| 11>   C                      3.963747             -3.154217            -4.945973           
| 12>   O                      4.362584             -2.281395            -3.851655           
| 13>   H                      4.077318             -1.452071            -4.213905           
| 14>   H                      4.382273             -2.936864            -5.947264           
| 15>   H                      4.234366             -4.138114            -4.796596           
| 16>   H                      2.847343             -3.273839            -5.075239           
| 17>   C                      4.697885             2.676830             -3.820010           
| 18>   O                      3.845238             1.593184             -3.666598           
| 19>   H                      3.877542             1.067309             -4.520169           
| 20>   H                      4.446421             3.201020             -4.783931           
| 21>   H                      4.667096             3.453700             -3.069882           
| 22>   H                      5.759132             2.426030             -3.948488           
| 23> *
| 24> 
| 25> #Run DFT-D3 single point of the molecule with dimer basis set
| 26> $new_job
| 27> %base "13-188_DFT_A"
| 28> ! wB97X-D3 def2-TZVP TIGHTSCF CHELPG PMODEL
| 29> 
| 30> %scf
| 31> MaxIter 1000
| 32> end
| 33> 
| 34> * xyz 0 1
| 35>   C                      3.963747             -3.154217            -4.945973           
| 36>   O                      4.362584             -2.281395            -3.851655           
| 37>   H                      4.077318             -1.452071            -4.213905           
| 38>   H                      4.382273             -2.936864            -5.947264           
| 39>   H                      4.234366             -4.138114            -4.796596           
| 40>   H                      2.847343             -3.273839            -5.075239           
| 41>   C                    : 4.697885             2.676830             -3.820010           
| 42>   O                    : 3.845238             1.593184             -3.666598           
| 43>   H                    : 3.877542             1.067309             -4.520169           
| 44>   H                    : 4.446421             3.201020             -4.783931           
| 45>   H                    : 4.667096             3.453700             -3.069882           
| 46>   H                    : 5.759132             2.426030             -3.948488           
| 47> *
| 48> 
| 49> #Run DFT-D3 single point of the particle with dimer basis set
| 50> $new_job
| 51> %base "13-188_DFT_B"
| 52> ! wB97X-D3 def2-TZVP TIGHTSCF CHELPG PMODEL
| 53> 
| 54> %scf
| 55> MaxIter 1000
| 56> end
| 57> 
| 58> * xyz 0 1
| 59>   C                    : 3.963747             -3.154217            -4.945973           
| 60>   O                    : 4.362584             -2.281395            -3.851655           
| 61>   H                    : 4.077318             -1.452071            -4.213905           
| 62>   H                    : 4.382273             -2.936864            -5.947264           
| 63>   H                    : 4.234366             -4.138114            -4.796596           
| 64>   H                    : 2.847343             -3.273839            -5.075239           
| 65>   C                      4.697885             2.676830             -3.820010           
| 66>   O                      3.845238             1.593184             -3.666598           
| 67>   H                      3.877542             1.067309             -4.520169           
| 68>   H                      4.446421             3.201020             -4.783931           
| 69>   H                      4.667096             3.453700             -3.069882           
| 70>   H                      5.759132             2.426030             -3.948488           
| 71> *
| 72> 
| 73>                          ****END OF INPUT****
================================================================================


                 $$$$$$$$$$$$$$$$$$$$$$$$$$$$$$$$$$$$$$$$$$$$$$ 
                 $ THERE ARE  3 JOBS TO BE PROCESSED THIS RUN $
                 $$$$$$$$$$$$$$$$$$$$$$$$$$$$$$$$$$$$$$$$$$$$$$ 




                 $$$$$$$$$$$$$$$$  JOB NUMBER  1 $$$$$$$$$$$$$$


                       ****************************
                       * Single Point Calculation *
                       ****************************

---------------------------------
CARTESIAN COORDINATES (ANGSTROEM)
---------------------------------
  C      3.963747   -3.154217   -4.945973
  O      4.362584   -2.281395   -3.851655
  H      4.077318   -1.452071   -4.213905
  H      4.382273   -2.936864   -5.947264
  H      4.234366   -4.138114   -4.796596
  H      2.847343   -3.273839   -5.075239
  C      4.697885    2.676830   -3.820010
  O      3.845238    1.593184   -3.666598
  H      3.877542    1.067309   -4.520169
  H      4.446421    3.201020   -4.783931
  H      4.667096    3.453700   -3.069882
  H      5.759132    2.426030   -3.948488

----------------------------
CARTESIAN COORDINATES (A.U.)
----------------------------
  NO LB      ZA    FRAG     MASS         X           Y           Z
   0 C     6.0000    0    12.011    7.490396   -5.960606   -9.346534
   1 O     8.0000    0    15.999    8.244089   -4.311212   -7.278573
   2 H     1.0000    0     1.008    7.705014   -2.744017   -7.963126
   3 H     1.0000    0     1.008    8.281296   -5.549869  -11.238700
   4 H     1.0000    0     1.008    8.001792   -7.819902   -9.064253
   5 H     1.0000    0     1.008    5.380698   -6.186659   -9.590812
   6 C     6.0000    0    12.011    8.877716    5.058476   -7.218773
   7 O     8.0000    0    15.999    7.266447    3.010681   -6.928866
   8 H     1.0000    0     1.008    7.327492    2.016922   -8.541881
   9 H     1.0000    0     1.008    8.402518    6.049051   -9.040319
  10 H     1.0000    0     1.008    8.819533    6.526547   -5.801236
  11 H     1.0000    0     1.008   10.883182    4.584532   -7.461561

--------------------------------
INTERNAL COORDINATES (ANGSTROEM)
--------------------------------
 C      0   0   0     0.000000000000     0.00000000     0.00000000
 O      1   0   0     1.455479673983     0.00000000     0.00000000
 H      2   1   0     0.948883580969    98.89972128     0.00000000
 H      1   2   3     1.106792666205   117.31006831    57.29503095
 H      1   2   3     1.031310543871   113.03569015   176.47726875
 H      1   2   3     1.130211047927   114.84342962   290.44167621
 C      3   2   1     4.193814509526   141.27247241   199.98321857
 O      7   3   2     1.387382716365    31.83873825   248.18595174
 H      8   7   3     1.003081011724   107.19336914   312.45598740
 H      7   3   2     1.125678903434   110.18034954   154.93875938
 H      7   3   2     1.080355023039   140.26007099   304.73789457
 H      7   3   2     1.098022054192    84.67247181    53.20567467

---------------------------
INTERNAL COORDINATES (A.U.)
---------------------------
 C      0   0   0     0.000000000000     0.00000000     0.00000000
 O      1   0   0     2.750457977316     0.00000000     0.00000000
 H      2   1   0     1.793130101005    98.89972128     0.00000000
 H      1   2   3     2.091535026161   117.31006831    57.29503095
 H      1   2   3     1.948894486941   113.03569015   176.47726875
 H      1   2   3     2.135789354114   114.84342962   290.44167621
 C      3   2   1     7.925160879470   141.27247241   199.98321857
 O      7   3   2     2.621773376866    31.83873825   248.18595174
 H      8   7   3     1.895548402296   107.19336914   312.45598740
 H      7   3   2     2.127224842224   110.18034954   154.93875938
 H      7   3   2     2.041575120949   140.26007099   304.73789457
 H      7   3   2     2.074960971429    84.67247181    53.20567467

---------------------
BASIS SET INFORMATION
---------------------
There are 3 groups of distinct atoms

 Group   1 Type C   : 11s6p2d1f contracted to 5s3p2d1f pattern {62111/411/11/1}
 Group   2 Type O   : 11s6p2d1f contracted to 5s3p2d1f pattern {62111/411/11/1}
 Group   3 Type H   : 5s1p contracted to 3s1p pattern {311/1}

Atom   0C    basis set group =>   1
Atom   1O    basis set group =>   2
Atom   2H    basis set group =>   3
Atom   3H    basis set group =>   3
Atom   4H    basis set group =>   3
Atom   5H    basis set group =>   3
Atom   6C    basis set group =>   1
Atom   7O    basis set group =>   2
Atom   8H    basis set group =>   3
Atom   9H    basis set group =>   3
Atom  10H    basis set group =>   3
Atom  11H    basis set group =>   3


           ************************************************************
           *        Program running with 8 parallel MPI-processes     *
           *              working on a common directory               *
           ************************************************************
------------------------------------------------------------------------------
                           ORCA GTO INTEGRAL CALCULATION
------------------------------------------------------------------------------

                         BASIS SET STATISTICS AND STARTUP INFO

 # of primitive gaussian shells          ...  128
 # of primitive gaussian functions       ...  248
 # of contracted shells                  ...   76
 # of contracted basis functions         ...  172
 Highest angular momentum                ...    3
 Maximum contraction depth               ...    6
 Integral package used                   ... LIBINT
 Integral threshhold            Thresh   ...  2.500e-11
 Primitive cut-off              TCut     ...  2.500e-12


------------------------------ INTEGRAL EVALUATION ----------------------------


 * One electron integrals 
 Pre-screening matrix                    ... done
 Shell pair data                         ... done (   0.001 sec)



           ************************************************************
           *        Program running with 8 parallel MPI-processes     *
           *              working on a common directory               *
           ************************************************************
-------------------------------------------------------------------------------
                                 ORCA SCF
-------------------------------------------------------------------------------

------------
SCF SETTINGS
------------
Hamiltonian:
 Density Functional     Method          .... DFT(GTOs)
 Exchange Functional    Exchange        .... WB97X-D3
 Correlation Functional Correlation     .... WB97X-D3
 Gradients option       PostSCFGGA      .... off
 Hybrid DFT is turned on
   Fraction HF Exchange ScalHFX         ....  0.195728
   Scaling of DF-GGA-X  ScalDFX         ....  0.000000
   Scaling of DF-GGA-C  ScalDFC         ....  1.000000
   Scaling of DF-LDA-C  ScalLDAC        ....  1.000000
   Perturbative correction              ....  0.000000
   Density functional embedding theory  .... OFF
 Long-range corrected/Screened/Range-Separated Hybrid DFT is turned on
   Amount of maximum screened exact exchange              ....  0.804272
   Range separation parameter mu (erf(mu*r12)/r12)        ....  0.250000


General Settings:
 Integral files         IntName         .... 13-188_DFT_AB
 Hartree-Fock type      HFTyp           .... RHF
 Total Charge           Charge          ....    0
 Multiplicity           Mult            ....    1
 Number of Electrons    NEL             ....   36
 Basis Dimension        Dim             ....  172
 Nuclear Repulsion      ENuc            ....    115.8063884330 Eh

Convergence Acceleration:
 DIIS                   CNVDIIS         .... on
   Start iteration      DIISMaxIt       ....    12
   Startup error        DIISStart       ....  0.200000
   # of expansion vecs  DIISMaxEq       ....     5
   Bias factor          DIISBfac        ....   1.050
   Max. coefficient     DIISMaxC        ....  10.000
 Newton-Raphson         CNVNR           .... off
 SOSCF                  CNVSOSCF        .... on
   Start iteration      SOSCFMaxIt      ....   150
   Startup grad/error   SOSCFStart      ....  0.003300
 Level Shifting         CNVShift        .... on
   Level shift para.    LevelShift      ....    0.2500
   Turn off err/grad.   ShiftErr        ....    0.0010
 Zerner damping         CNVZerner       .... off
 Static damping         CNVDamp         .... on
   Fraction old density DampFac         ....    0.7000
   Max. Damping (<1)    DampMax         ....    0.9800
   Min. Damping (>=0)   DampMin         ....    0.0000
   Turn off err/grad.   DampErr         ....    0.1000
 Fernandez-Rico         CNVRico         .... off

SCF Procedure:
 Maximum # iterations   MaxIter         ....  1000
 SCF integral mode      SCFMode         .... Direct
   Integral package                     .... LIBINT
 Reset frequency        DirectResetFreq ....    20
 Integral Threshold     Thresh          ....  2.500e-11 Eh
 Primitive CutOff       TCut            ....  2.500e-12 Eh

Convergence Tolerance:
 Convergence Check Mode ConvCheckMode   .... Total+1el-Energy
 Convergence forced     ConvForced      .... 0
 Energy Change          TolE            ....  1.000e-08 Eh
 1-El. energy change                    ....  1.000e-05 Eh
 Orbital Gradient       TolG            ....  1.000e-05
 Orbital Rotation angle TolX            ....  1.000e-05
 DIIS Error             TolErr          ....  5.000e-07


Diagonalization of the overlap matrix:
Smallest eigenvalue                        ... 1.546e-03
Time for diagonalization                   ...    0.004 sec
Threshold for overlap eigenvalues          ... 1.000e-08
Number of eigenvalues below threshold      ... 0
Time for construction of square roots      ...    0.007 sec
Total time needed                          ...    0.011 sec

-------------------
DFT GRID GENERATION
-------------------

General Integration Accuracy     IntAcc      ...  4.340
Radial Grid Type                 RadialGrid  ... Gauss-Chebyshev
Angular Grid (max. acc.)         AngularGrid ... Lebedev-110
Angular grid pruning method      GridPruning ... 3 (G Style)
Weight generation scheme         WeightScheme... Becke
Basis function cutoff            BFCut       ...    1.0000e-11
Integration weight cutoff        WCut        ...    1.0000e-14
Grids for H and He will be reduced by one unit

# of grid points (after initial pruning)     ...  13096 (   0.0 sec)
# of grid points (after weights+screening)   ...  12596 (   0.0 sec)
nearest neighbour list constructed           ...    0.0 sec
Grid point re-assignment to atoms done       ...    0.0 sec
Grid point division into batches done        ...    0.0 sec
Reduced shell lists constructed in    0.0 sec

Total number of grid points                  ...    12596
Total number of batches                      ...      202
Average number of points per batch           ...       62
Average number of grid points per atom       ...     1050
Average number of shells per batch           ...    45.33 (59.65%)
Average number of basis functions per batch  ...    98.59 (57.32%)
Average number of large shells per batch     ...    36.56 (80.64%)
Average number of large basis fcns per batch ...    81.37 (82.53%)
Maximum spatial batch extension              ...  14.93, 11.72, 13.79 au
Average spatial batch extension              ...   0.49,  0.37,  0.45 au

Time for grid setup =    0.039 sec

------------------------------
INITIAL GUESS: MODEL POTENTIAL
------------------------------
Loading Hartree-Fock densities                     ... done
Calculating cut-offs                               ... done
Setting up the integral package                    ... done
Initializing the effective Hamiltonian             ... done
Starting the Coulomb interaction                   ... done (   0.0 sec)
Reading the grid                                   ... done
Mapping shells                                     ... done
Starting the XC term evaluation                    ... done (   0.0 sec)
  promolecular density results
     # of electrons  =     36.002492424
     EX              =    -28.850975314
     EC              =     -1.150143455
     EX+EC           =    -30.001118769
Transforming the Hamiltonian                       ... done (   0.0 sec)
Diagonalizing the Hamiltonian                      ... done (   0.0 sec)
Back transforming the eigenvectors                 ... done (   0.0 sec)
Now organizing SCF variables                       ... done
                      ------------------
                      INITIAL GUESS DONE (   0.1 sec)
                      ------------------
--------------
SCF ITERATIONS
--------------
ITER       Energy         Delta-E        Max-DP      RMS-DP      [F,P]     Damp
               ***  Starting incremental Fock matrix formation  ***
  0   -231.2871198245   0.000000000000 0.03672020  0.00105085  0.2493274 0.7000
  1   -231.3588106360  -0.071690811544 0.02227608  0.00074899  0.1246166 0.7000
                               ***Turning on DIIS***
  2   -231.3919077191  -0.033097083081 0.03257813  0.00135367  0.0484390 0.0000
  3   -231.4458365060  -0.053928786844 0.01733666  0.00050141  0.0592488 0.0000
  4   -231.4545963991  -0.008759893119 0.00416687  0.00009950  0.0061722 0.0000
                      *** Initiating the SOSCF procedure ***
                           *** Shutting down DIIS ***
                      *** Re-Reading the Fockian *** 
                      *** Removing any level shift *** 
ITER      Energy       Delta-E        Grad      Rot      Max-DP    RMS-DP
  5   -231.45478311  -0.0001867114  0.000456  0.000456  0.000748  0.000036
               *** Restarting incremental Fock matrix formation ***
  6   -231.45480022  -0.0000171101  0.000205  0.000227  0.000615  0.000023
  7   -231.45480196  -0.0000017385  0.000062  0.000132  0.000303  0.000011
  8   -231.45480209  -0.0000001261  0.000053  0.000031  0.000068  0.000002
  9   -231.45480214  -0.0000000570  0.000011  0.000010  0.000023  0.000001
 10   -231.45480214  -0.0000000029  0.000004  0.000004  0.000007  0.000000
                  ***Gradient check signals convergence***
              ***Rediagonalizing the Fockian in SOSCF/NRSCF***

               *****************************************************
               *                     SUCCESS                       *
               *           SCF CONVERGED AFTER  11 CYCLES          *
               *****************************************************

Setting up the final grid:

General Integration Accuracy     IntAcc      ...  4.670
Radial Grid Type                 RadialGrid  ... Gauss-Chebyshev
Angular Grid (max. acc.)         AngularGrid ... Lebedev-302
Angular grid pruning method      GridPruning ... 3 (G Style)
Weight generation scheme         WeightScheme... Becke
Basis function cutoff            BFCut       ...    1.0000e-11
Integration weight cutoff        WCut        ...    1.0000e-14
Grids for H and He will be reduced by one unit

# of grid points (after initial pruning)     ...  52000 (   0.0 sec)
# of grid points (after weights+screening)   ...  49575 (   0.0 sec)
nearest neighbour list constructed           ...    0.0 sec
Grid point re-assignment to atoms done       ...    0.0 sec
Grid point division into batches done        ...    0.2 sec
Reduced shell lists constructed in    0.2 sec

Total number of grid points                  ...    49575
Total number of batches                      ...      781
Average number of points per batch           ...       63
Average number of grid points per atom       ...     4131
Average number of shells per batch           ...    43.12 (56.74%)
Average number of basis functions per batch  ...    93.20 (54.19%)
Average number of large shells per batch     ...    34.28 (79.50%)
Average number of large basis fcns per batch ...    76.57 (82.15%)
Maximum spatial batch extension              ...  16.05, 12.14, 13.09 au
Average spatial batch extension              ...   0.31,  0.28,  0.27 au

Final grid set up in    0.3 sec
Final integration                            ... done (   0.1 sec)
Change in XC energy                          ...    -0.000141429
Integrated number of electrons               ...    35.999992216
Previous integrated no of electrons          ...    36.003467138

----------------
TOTAL SCF ENERGY
----------------

Total Energy       :         -231.45494357 Eh           -6298.20921 eV

Components:
Nuclear Repulsion  :          115.80638843 Eh            3151.25204 eV
Electronic Energy  :         -347.26133201 Eh           -9449.46125 eV
One Electron Energy:         -544.24909954 Eh          -14809.77091 eV
Two Electron Energy:          196.98776754 Eh            5360.30967 eV

Virial components:
Potential Energy   :         -461.86026456 Eh          -12567.85674 eV
Kinetic Energy     :          230.40532099 Eh            6269.64753 eV
Virial Ratio       :            2.00455555


DFT components:
N(Alpha)           :       17.999996107861 electrons
N(Beta)            :       17.999996107861 electrons
N(Total)           :       35.999992215723 electrons
E(XC)              :      -21.285848422173 Eh       
DFET-embed. en.    :        0.000000000000 Eh       

---------------
SCF CONVERGENCE
---------------

  Last Energy change         ...   -4.7970e-10  Tolerance :   1.0000e-08
  Last MAX-Density change    ...    2.0665e-06  Tolerance :   1.0000e-07
  Last RMS-Density change    ...    8.3062e-08  Tolerance :   5.0000e-09
  Last Orbital Gradient      ...    9.7198e-07  Tolerance :   1.0000e-05
  Last Orbital Rotation      ...    9.0126e-07  Tolerance :   1.0000e-05

             **** THE GBW FILE WAS UPDATED (13-188_DFT_AB.gbw) ****
             **** DENSITY FILE WAS UPDATED (13-188_DFT_AB.scfp.tmp) ****
             **** ENERGY FILE WAS UPDATED (13-188_DFT_AB.en.tmp) ****
----------------
ORBITAL ENERGIES
----------------

  NO   OCC          E(Eh)            E(eV) 
   0   2.0000     -19.245148      -523.6871 
   1   2.0000     -19.239826      -523.5423 
   2   2.0000     -10.317882      -280.7638 
   3   2.0000     -10.316586      -280.7286 
   4   2.0000      -1.146683       -31.2028 
   5   2.0000      -1.136088       -30.9145 
   6   2.0000      -0.803564       -21.8661 
   7   2.0000      -0.796147       -21.6642 
   8   2.0000      -0.620386       -16.8816 
   9   2.0000      -0.604383       -16.4461 
  10   2.0000      -0.543085       -14.7781 
  11   2.0000      -0.540779       -14.7153 
  12   2.0000      -0.533973       -14.5301 
  13   2.0000      -0.528688       -14.3863 
  14   2.0000      -0.448236       -12.1971 
  15   2.0000      -0.436196       -11.8695 
  16   2.0000      -0.381333       -10.3766 
  17   2.0000      -0.375425       -10.2158 
  18   0.0000       0.078005         2.1226 
  19   0.0000       0.132501         3.6055 
  20   0.0000       0.141644         3.8543 
  21   0.0000       0.168757         4.5921 
  22   0.0000       0.197048         5.3619 
  23   0.0000       0.199147         5.4191 
  24   0.0000       0.208004         5.6601 
  25   0.0000       0.210067         5.7162 
  26   0.0000       0.218277         5.9396 
  27   0.0000       0.253758         6.9051 
  28   0.0000       0.301858         8.2140 
  29   0.0000       0.315797         8.5933 
  30   0.0000       0.319300         8.6886 
  31   0.0000       0.329009         8.9528 
  32   0.0000       0.373490        10.1632 
  33   0.0000       0.409368        11.1395 
  34   0.0000       0.452351        12.3091 
  35   0.0000       0.454953        12.3799 
  36   0.0000       0.475372        12.9355 
  37   0.0000       0.494128        13.4459 
  38   0.0000       0.521654        14.1949 
  39   0.0000       0.526164        14.3176 
  40   0.0000       0.537437        14.6244 
  41   0.0000       0.541362        14.7312 
  42   0.0000       0.559151        15.2153 
  43   0.0000       0.572943        15.5906 
  44   0.0000       0.592847        16.1322 
  45   0.0000       0.609704        16.5909 
  46   0.0000       0.611809        16.6482 
  47   0.0000       0.639544        17.4029 
  48   0.0000       0.677784        18.4434 
  49   0.0000       0.749810        20.4034 
  50   0.0000       0.768446        20.9105 
  51   0.0000       0.787504        21.4291 
  52   0.0000       0.796242        21.6669 
  53   0.0000       0.838728        22.8229 
  54   0.0000       0.860290        23.4097 
  55   0.0000       0.878444        23.9037 
  56   0.0000       0.989668        26.9302 
  57   0.0000       0.997791        27.1513 
  58   0.0000       1.015516        27.6336 
  59   0.0000       1.036118        28.1942 
  60   0.0000       1.091130        29.6912 
  61   0.0000       1.110982        30.2314 
  62   0.0000       1.365379        37.1539 
  63   0.0000       1.373811        37.3833 
  64   0.0000       1.500805        40.8390 
  65   0.0000       1.510027        41.0899 
  66   0.0000       1.528029        41.5798 
  67   0.0000       1.552042        42.2332 
  68   0.0000       1.584379        43.1131 
  69   0.0000       1.609707        43.8024 
  70   0.0000       1.617820        44.0231 
  71   0.0000       1.620785        44.1038 
  72   0.0000       1.637157        44.5493 
  73   0.0000       1.645364        44.7726 
  74   0.0000       1.668942        45.4142 
  75   0.0000       1.678256        45.6677 
  76   0.0000       1.681857        45.7657 
  77   0.0000       1.696362        46.1604 
  78   0.0000       1.803799        49.0839 
  79   0.0000       1.827702        49.7343 
  80   0.0000       1.945385        52.9366 
  81   0.0000       1.969891        53.6035 
  82   0.0000       1.979850        53.8745 
  83   0.0000       2.035750        55.3956 
  84   0.0000       2.050003        55.7834 
  85   0.0000       2.051834        55.8332 
  86   0.0000       2.089722        56.8642 
  87   0.0000       2.100008        57.1441 
  88   0.0000       2.112243        57.4771 
  89   0.0000       2.118866        57.6573 
  90   0.0000       2.215709        60.2925 
  91   0.0000       2.224905        60.5428 
  92   0.0000       2.312620        62.9296 
  93   0.0000       2.324190        63.2444 
  94   0.0000       2.328201        63.3536 
  95   0.0000       2.367912        64.4342 
  96   0.0000       2.418314        65.8057 
  97   0.0000       2.431628        66.1680 
  98   0.0000       2.462033        66.9953 
  99   0.0000       2.469394        67.1956 
 100   0.0000       2.515458        68.4491 
 101   0.0000       2.543465        69.2112 
 102   0.0000       2.557915        69.6044 
 103   0.0000       2.576214        70.1023 
 104   0.0000       2.631986        71.6200 
 105   0.0000       2.705287        73.6146 
 106   0.0000       2.709387        73.7262 
 107   0.0000       2.745315        74.7038 
 108   0.0000       2.773268        75.4645 
 109   0.0000       2.806928        76.3804 
 110   0.0000       2.821500        76.7769 
 111   0.0000       2.890673        78.6592 
 112   0.0000       2.917040        79.3767 
 113   0.0000       2.934690        79.8570 
 114   0.0000       2.962332        80.6091 
 115   0.0000       2.978603        81.0519 
 116   0.0000       3.087029        84.0023 
 117   0.0000       3.108685        84.5916 
 118   0.0000       3.136689        85.3536 
 119   0.0000       3.155840        85.8748 
 120   0.0000       3.208035        87.2951 
 121   0.0000       3.226369        87.7940 
 122   0.0000       3.327103        90.5351 
 123   0.0000       3.331294        90.6491 
 124   0.0000       3.403597        92.6166 
 125   0.0000       3.473355        94.5148 
 126   0.0000       3.486165        94.8634 
 127   0.0000       3.487437        94.8980 
 128   0.0000       3.530795        96.0778 
 129   0.0000       3.601181        97.9931 
 130   0.0000       3.636821        98.9629 
 131   0.0000       3.656155        99.4890 
 132   0.0000       3.675321       100.0106 
 133   0.0000       3.698476       100.6406 
 134   0.0000       3.979038       108.2751 
 135   0.0000       4.049593       110.1950 
 136   0.0000       4.194429       114.1362 
 137   0.0000       4.224016       114.9413 
 138   0.0000       4.289311       116.7181 
 139   0.0000       4.344522       118.2204 
 140   0.0000       4.358287       118.5950 
 141   0.0000       4.440808       120.8405 
 142   0.0000       4.545386       123.6862 
 143   0.0000       4.554511       123.9346 
 144   0.0000       5.343763       145.4112 
 145   0.0000       5.356506       145.7579 
 146   0.0000       5.448155       148.2518 
 147   0.0000       5.474831       148.9777 
 148   0.0000       5.517979       150.1518 
 149   0.0000       5.521423       150.2456 
 150   0.0000       5.681576       154.6036 
 151   0.0000       5.747174       156.3886 
 152   0.0000       5.811199       158.1308 
 153   0.0000       5.858073       159.4063 
 154   0.0000       5.997057       163.1882 
 155   0.0000       6.000670       163.2865 
 156   0.0000       6.227763       169.4660 
 157   0.0000       6.361870       173.1153 
 158   0.0000       6.512647       177.2181 
 159   0.0000       6.522844       177.4956 
 160   0.0000       6.729038       183.1064 
 161   0.0000       6.753322       183.7672 
 162   0.0000       6.778518       184.4529 
 163   0.0000       6.812073       185.3659 
 164   0.0000       6.986496       190.1122 
 165   0.0000       7.020687       191.0426 
 166   0.0000       7.170450       195.1179 
 167   0.0000       7.210971       196.2205 
 168   0.0000      22.337433       607.8324 
 169   0.0000      22.446264       610.7939 
 170   0.0000      43.650375      1187.7871 
 171   0.0000      43.658898      1188.0190 

                    ********************************
                    * MULLIKEN POPULATION ANALYSIS *
                    ********************************

-----------------------
MULLIKEN ATOMIC CHARGES
-----------------------
   0 C :   -0.200008
   1 O :   -0.441562
   2 H :    0.298744
   3 H :    0.103349
   4 H :    0.127288
   5 H :    0.106317
   6 C :   -0.175545
   7 O :   -0.456634
   8 H :    0.314640
   9 H :    0.094893
  10 H :    0.126422
  11 H :    0.102095
Sum of atomic charges:   -0.0000000

--------------------------------
MULLIKEN REDUCED ORBITAL CHARGES
--------------------------------
  0 C s       :     3.221778  s :     3.221778
      pz      :     0.858177  p :     2.879927
      px      :     1.037656
      py      :     0.984093
      dz2     :     0.030892  d :     0.091686
      dxz     :     0.016116
      dyz     :     0.009088
      dx2y2   :     0.020813
      dxy     :     0.014778
      f0      :     0.001067  f :     0.006617
      f+1     :     0.000890
      f-1     :     0.001540
      f+2     :     0.001165
      f-2     :     0.000995
      f+3     :     0.000540
      f-3     :     0.000421
  1 O s       :     3.816480  s :     3.816480
      pz      :     1.515813  p :     4.593087
      px      :     1.817040
      py      :     1.260234
      dz2     :     0.006851  d :     0.030496
      dxz     :     0.005342
      dyz     :     0.010259
      dx2y2   :     0.003846
      dxy     :     0.004199
      f0      :     0.000188  f :     0.001499
      f+1     :     0.000142
      f-1     :     0.000119
      f+2     :     0.000317
      f-2     :     0.000258
      f+3     :     0.000271
      f-3     :     0.000206
  2 H s       :     0.652191  s :     0.652191
      pz      :     0.013988  p :     0.049065
      px      :     0.017701
      py      :     0.017376
  3 H s       :     0.877078  s :     0.877078
      pz      :     0.010739  p :     0.019573
      px      :     0.005149
      py      :     0.003685
  4 H s       :     0.849999  s :     0.849999
      pz      :     0.004238  p :     0.022713
      px      :     0.006204
      py      :     0.012270
  5 H s       :     0.874700  s :     0.874700
      pz      :     0.003054  p :     0.018983
      px      :     0.012080
      py      :     0.003849
  6 C s       :     3.220983  s :     3.220983
      pz      :     1.078241  p :     2.844449
      px      :     0.925234
      py      :     0.840975
      dz2     :     0.008162  d :     0.102302
      dxz     :     0.009935
      dyz     :     0.032277
      dx2y2   :     0.041095
      dxy     :     0.010832
      f0      :     0.000811  f :     0.007811
      f+1     :     0.000307
      f-1     :     0.000983
      f+2     :     0.000257
      f-2     :     0.001377
      f+3     :     0.001504
      f-3     :     0.002571
  7 O s       :     3.802670  s :     3.802670
      pz      :     1.500265  p :     4.621401
      px      :     1.691080
      py      :     1.430056
      dz2     :     0.007567  d :     0.030913
      dxz     :     0.003314
      dyz     :     0.008733
      dx2y2   :     0.004451
      dxy     :     0.006848
      f0      :     0.000099  f :     0.001650
      f+1     :     0.000065
      f-1     :     0.000477
      f+2     :     0.000160
      f-2     :     0.000172
      f+3     :     0.000397
      f-3     :     0.000281
  8 H s       :     0.642379  s :     0.642379
      pz      :     0.016551  p :     0.042980
      px      :     0.013142
      py      :     0.013288
  9 H s       :     0.886464  s :     0.886464
      pz      :     0.009671  p :     0.018643
      px      :     0.003819
      py      :     0.005154
 10 H s       :     0.852433  s :     0.852433
      pz      :     0.008451  p :     0.021145
      px      :     0.003873
      py      :     0.008821
 11 H s       :     0.878193  s :     0.878193
      pz      :     0.004602  p :     0.019712
      px      :     0.011980
      py      :     0.003131


                     *******************************
                     * LOEWDIN POPULATION ANALYSIS *
                     *******************************

----------------------
LOEWDIN ATOMIC CHARGES
----------------------
   0 C :   -0.371805
   1 O :   -0.083785
   2 H :    0.158043
   3 H :    0.098229
   4 H :    0.092937
   5 H :    0.104119
   6 C :   -0.416199
   7 O :   -0.071828
   8 H :    0.193287
   9 H :    0.098369
  10 H :    0.105282
  11 H :    0.093351

-------------------------------
LOEWDIN REDUCED ORBITAL CHARGES
-------------------------------
  0 C s       :     2.859282  s :     2.859282
      pz      :     0.960536  p :     3.073503
      px      :     1.088020
      py      :     1.024948
      dz2     :     0.127332  d :     0.390790
      dxz     :     0.068189
      dyz     :     0.062761
      dx2y2   :     0.087157
      dxy     :     0.045352
      f0      :     0.005950  f :     0.048229
      f+1     :     0.006691
      f-1     :     0.011211
      f+2     :     0.006310
      f-2     :     0.009876
      f+3     :     0.005119
      f-3     :     0.003072
  1 O s       :     3.401281  s :     3.401281
      pz      :     1.564862  p :     4.613334
      px      :     1.753865
      py      :     1.294607
      dz2     :     0.014471  d :     0.064834
      dxz     :     0.009098
      dyz     :     0.020425
      dx2y2   :     0.011464
      dxy     :     0.009377
      f0      :     0.000805  f :     0.004336
      f+1     :     0.000301
      f-1     :     0.000636
      f+2     :     0.000945
      f-2     :     0.000833
      f+3     :     0.000515
      f-3     :     0.000301
  2 H s       :     0.678023  s :     0.678023
      pz      :     0.048136  p :     0.163933
      px      :     0.051938
      py      :     0.063859
  3 H s       :     0.842196  s :     0.842196
      pz      :     0.031501  p :     0.059575
      px      :     0.015855
      py      :     0.012219
  4 H s       :     0.834999  s :     0.834999
      pz      :     0.014220  p :     0.072063
      px      :     0.019592
      py      :     0.038252
  5 H s       :     0.840110  s :     0.840110
      pz      :     0.009440  p :     0.055772
      px      :     0.034763
      py      :     0.011569
  6 C s       :     2.856373  s :     2.856373
      pz      :     1.102854  p :     3.063717
      px      :     1.014187
      py      :     0.946676
      dz2     :     0.050810  d :     0.435955
      dxz     :     0.027381
      dyz     :     0.123210
      dx2y2   :     0.152338
      dxy     :     0.082217
      f0      :     0.006455  f :     0.060154
      f+1     :     0.005423
      f-1     :     0.005582
      f+2     :     0.002842
      f-2     :     0.010390
      f+3     :     0.011032
      f-3     :     0.018430
  7 O s       :     3.376052  s :     3.376052
      pz      :     1.497777  p :     4.616513
      px      :     1.667651
      py      :     1.451085
      dz2     :     0.012510  d :     0.074442
      dxz     :     0.006338
      dyz     :     0.023342
      dx2y2   :     0.015918
      dxy     :     0.016334
      f0      :     0.000557  f :     0.004821
      f+1     :     0.000250
      f-1     :     0.001143
      f+2     :     0.000299
      f-2     :     0.000685
      f+3     :     0.000946
      f-3     :     0.000941
  8 H s       :     0.668562  s :     0.668562
      pz      :     0.066381  p :     0.138152
      px      :     0.034027
      py      :     0.037744
  9 H s       :     0.846442  s :     0.846442
      pz      :     0.028359  p :     0.055188
      px      :     0.011503
      py      :     0.015326
 10 H s       :     0.831832  s :     0.831832
      pz      :     0.025716  p :     0.062886
      px      :     0.012028
      py      :     0.025143
 11 H s       :     0.846369  s :     0.846369
      pz      :     0.014300  p :     0.060280
      px      :     0.035350
      py      :     0.010630


                      *****************************
                      * MAYER POPULATION ANALYSIS *
                      *****************************

  NA   - Mulliken gross atomic population
  ZA   - Total nuclear charge
  QA   - Mulliken gross atomic charge
  VA   - Mayer's total valence
  BVA  - Mayer's bonded valence
  FA   - Mayer's free valence

  ATOM       NA         ZA         QA         VA         BVA        FA
  0 C      6.2000     6.0000    -0.2000     3.9338     3.9338    -0.0000
  1 O      8.4416     8.0000    -0.4416     1.9249     1.9249    -0.0000
  2 H      0.7013     1.0000     0.2987     0.9326     0.9326     0.0000
  3 H      0.8967     1.0000     0.1033     0.9571     0.9571     0.0000
  4 H      0.8727     1.0000     0.1273     0.9591     0.9591    -0.0000
  5 H      0.8937     1.0000     0.1063     0.9565     0.9565    -0.0000
  6 C      6.1755     6.0000    -0.1755     3.9406     3.9406    -0.0000
  7 O      8.4566     8.0000    -0.4566     1.8972     1.8972    -0.0000
  8 H      0.6854     1.0000     0.3146     0.9027     0.9027    -0.0000
  9 H      0.9051     1.0000     0.0949     0.9618     0.9618    -0.0000
 10 H      0.8736     1.0000     0.1264     0.9594     0.9594    -0.0000
 11 H      0.8979     1.0000     0.1021     0.9503     0.9503    -0.0000

  Mayer bond orders larger than 0.1
B(  0-C ,  1-O ) :   1.0094 B(  0-C ,  3-H ) :   0.9699 B(  0-C ,  4-H ) :   0.9777 
B(  0-C ,  5-H ) :   0.9724 B(  1-O ,  2-H ) :   0.9115 B(  6-C ,  7-O ) :   1.0015 
B(  6-C ,  9-H ) :   0.9901 B(  6-C , 10-H ) :   0.9701 B(  6-C , 11-H ) :   0.9694 
B(  7-O ,  8-H ) :   0.8905 

-------
TIMINGS
-------

Total SCF time: 0 days 0 hours 0 min 17 sec 

Total time                  ....      17.291 sec
Sum of individual times     ....      16.787 sec  ( 97.1%)

Fock matrix formation       ....      15.886 sec  ( 91.9%)
  XC integration            ....       7.589 sec  ( 47.8% of F)
    Basis function eval.    ....       0.058 sec  (  0.8% of XC)
    Density eval.           ....       0.098 sec  (  1.3% of XC)
    XC-Functional eval.     ....       0.129 sec  (  1.7% of XC)
    XC-Potential eval.      ....       0.060 sec  (  0.8% of XC)
Diagonalization             ....       0.203 sec  (  1.2%)
Density matrix formation    ....       0.006 sec  (  0.0%)
Population analysis         ....       0.039 sec  (  0.2%)
Initial guess               ....       0.102 sec  (  0.6%)
Orbital Transformation      ....       0.000 sec  (  0.0%)
Orbital Orthonormalization  ....       0.000 sec  (  0.0%)
DIIS solution               ....       0.181 sec  (  1.0%)
SOSCF solution              ....       0.058 sec  (  0.3%)
Grid generation             ....       0.310 sec  (  1.8%)


-------------------------------------------------------------------------------
                          DFT DISPERSION CORRECTION                            
                                                                               
                              DFTD3 V3.1  Rev 1                                
                              USING zero damping                               
-------------------------------------------------------------------------------
The omegaB97X-D3 functional is recognized. Fit by Chai et al.
Active option DFTDOPT                   ...         3   

molecular C6(AA) [au] = 834.992935 


            DFT-D V3
 parameters
 s6 scaling factor         :     1.0000 
 rs6 scaling factor        :     1.2810 
 s8 scaling factor         :     1.0000 
 rs8 scaling factor        :     1.0940 
 Damping factor alpha6     :    14.0000 
 Damping factor alpha8     :    16.0000 
 ad hoc parameters k1-k3   :    16.0000     1.3333    -4.0000 

 Edisp/kcal,au: -0.669807099196  -0.001067405442 
 E6   /kcal   :  -0.293706911 
 E8   /kcal   :  -0.376100188 
 % E8         :  56.150522803 

-------------------------   ----------------
Dispersion correction           -0.001067405
-------------------------   ----------------


-------------------------   --------------------
FINAL SINGLE POINT ENERGY      -231.456010979925
-------------------------   --------------------


                            ***************************************
                            *     ORCA property calculations      *
                            ***************************************

                                    ---------------------
                                    Active property flags
                                    ---------------------
   (+) Dipole Moment


------------------------------------------------------------------------------
                       ORCA ELECTRIC PROPERTIES CALCULATION
------------------------------------------------------------------------------

Dipole Moment Calculation                       ... on
Quadrupole Moment Calculation                   ... off
Polarizability Calculation                      ... off
GBWName                                         ... 13-188_DFT_AB.gbw
Electron density file                           ... 13-188_DFT_AB.scfp.tmp
The origin for moment calculation is the CENTER OF MASS  = ( 7.959403, -0.542898 -7.732386)

-------------
DIPOLE MOMENT
-------------
                                X             Y             Z
Electronic contribution:     -0.51987      -0.35627       2.20836
Nuclear contribution   :      0.55597       0.60390      -3.38735
                        -----------------------------------------
Total Dipole Moment    :      0.03610       0.24763      -1.17898
                        -----------------------------------------
Magnitude (a.u.)       :      1.20525
Magnitude (Debye)      :      3.06350



--------------------
Rotational spectrum 
--------------------
 
Rotational constants in cm-1:     0.780528     0.040994     0.040712 
Rotational constants in MHz : 23399.629761  1228.967651  1220.523414 

 Dipole components along the rotational axes: 
x,y,z [a.u.] :    -0.074256    -1.111353     0.460443 
x,y,z [Debye]:    -0.188744    -2.824835     1.170352 

 
------------------------------------------------------------------------------
                      ORCA CHELPG CHARGES GENERATION
------------------------------------------------------------------------------

GBW file                           ... 13-188_DFT_AB.gbw

Reading the GBW file               ... done

Grid spacing                       ...     0.300000
Point Cut-Off                      ...     2.800000
Van-der-Waals Radii                ...        COSMO
Total charge                       ...            0


Number of points X direction       ...           28
Number of points Y direction       ...           43
Number of points Z direction       ...           28
Maximum number of possible points  ...        33712
Final number of points             ...        10626


CHELPG Charges            
--------------------------------
  0   C   :       0.104564
  1   O   :      -0.565659
  2   H   :       0.359916
  3   H   :       0.002664
  4   H   :       0.083714
  5   H   :       0.004781
  6   C   :       0.206121
  7   O   :      -0.606776
  8   H   :       0.402445
  9   H   :      -0.032491
 10   H   :       0.057433
 11   H   :      -0.016712
--------------------------------
Total charge:    -0.000000
--------------------------------

CHELPG charges calculated...

Timings for individual parts in CHELPG calculation:
Grid generation                 ...        0.002 sec (=   0.000 min)
Potential calculation           ...        2.094 sec (=   0.035 min)
Fit to the potential            ...        0.004 sec (=   0.000 min)
------------------------------------------------------------------------------


Timings for individual modules:

Sum of individual times         ...       25.131 sec (=   0.419 min)
GTO integral calculation        ...        3.907 sec (=   0.065 min)  15.5 %
SCF iterations                  ...       19.090 sec (=   0.318 min)  76.0 %
CHELPG charge generation        ...        2.134 sec (=   0.036 min)   8.5 %


                 $$$$$$$$$$$$$$$$  JOB NUMBER  2 $$$$$$$$$$$$$$


                       ****************************
                       * Single Point Calculation *
                       ****************************

---------------------------------
CARTESIAN COORDINATES (ANGSTROEM)
---------------------------------
  C      3.963747   -3.154217   -4.945973
  O      4.362584   -2.281395   -3.851655
  H      4.077318   -1.452071   -4.213905
  H      4.382273   -2.936864   -5.947264
  H      4.234366   -4.138114   -4.796596
  H      2.847343   -3.273839   -5.075239
  C      4.697885    2.676830   -3.820010
  O      3.845238    1.593184   -3.666598
  H      3.877542    1.067309   -4.520169
  H      4.446421    3.201020   -4.783931
  H      4.667096    3.453700   -3.069882
  H      5.759132    2.426030   -3.948488

----------------------------
CARTESIAN COORDINATES (A.U.)
----------------------------
  NO LB      ZA    FRAG     MASS         X           Y           Z
   0 C     6.0000    0    12.011    7.490396   -5.960606   -9.346534
   1 O     8.0000    0    15.999    8.244089   -4.311212   -7.278573
   2 H     1.0000    0     1.008    7.705014   -2.744017   -7.963126
   3 H     1.0000    0     1.008    8.281296   -5.549869  -11.238700
   4 H     1.0000    0     1.008    8.001792   -7.819902   -9.064253
   5 H     1.0000    0     1.008    5.380698   -6.186659   -9.590812
   6 C     0.0000    0     0.000    8.877716    5.058476   -7.218773
   7 O     0.0000    0     0.000    7.266447    3.010681   -6.928866
   8 H     0.0000    0     0.000    7.327492    2.016922   -8.541881
   9 H     0.0000    0     0.000    8.402518    6.049051   -9.040319
  10 H     0.0000    0     0.000    8.819533    6.526547   -5.801236
  11 H     0.0000    0     0.000   10.883182    4.584532   -7.461561

--------------------------------
INTERNAL COORDINATES (ANGSTROEM)
--------------------------------
 C      0   0   0     0.000000000000     0.00000000     0.00000000
 O      1   0   0     1.455479673983     0.00000000     0.00000000
 H      2   1   0     0.948883580969    98.89972128     0.00000000
 H      1   2   3     1.106792666205   117.31006831    57.29503095
 H      1   2   3     1.031310543871   113.03569015   176.47726875
 H      1   2   3     1.130211047927   114.84342962   290.44167621
 C      3   2   1     4.193814509526   141.27247241   199.98321857
 O      7   3   2     1.387382716365    31.83873825   248.18595174
 H      8   7   3     1.003081011724   107.19336914   312.45598740
 H      7   3   2     1.125678903434   110.18034954   154.93875938
 H      7   3   2     1.080355023039   140.26007099   304.73789457
 H      7   3   2     1.098022054192    84.67247181    53.20567467

---------------------------
INTERNAL COORDINATES (A.U.)
---------------------------
 C      0   0   0     0.000000000000     0.00000000     0.00000000
 O      1   0   0     2.750457977316     0.00000000     0.00000000
 H      2   1   0     1.793130101005    98.89972128     0.00000000
 H      1   2   3     2.091535026161   117.31006831    57.29503095
 H      1   2   3     1.948894486941   113.03569015   176.47726875
 H      1   2   3     2.135789354114   114.84342962   290.44167621
 C      3   2   1     7.925160879470   141.27247241   199.98321857
 O      7   3   2     2.621773376866    31.83873825   248.18595174
 H      8   7   3     1.895548402296   107.19336914   312.45598740
 H      7   3   2     2.127224842224   110.18034954   154.93875938
 H      7   3   2     2.041575120949   140.26007099   304.73789457
 H      7   3   2     2.074960971429    84.67247181    53.20567467

---------------------
BASIS SET INFORMATION
---------------------
There are 3 groups of distinct atoms

 Group   1 Type C   : 11s6p2d1f contracted to 5s3p2d1f pattern {62111/411/11/1}
 Group   2 Type O   : 11s6p2d1f contracted to 5s3p2d1f pattern {62111/411/11/1}
 Group   3 Type H   : 5s1p contracted to 3s1p pattern {311/1}

Atom   0C    basis set group =>   1
Atom   1O    basis set group =>   2
Atom   2H    basis set group =>   3
Atom   3H    basis set group =>   3
Atom   4H    basis set group =>   3
Atom   5H    basis set group =>   3
Atom   6C    basis set group =>   1
Atom   7O    basis set group =>   2
Atom   8H    basis set group =>   3
Atom   9H    basis set group =>   3
Atom  10H    basis set group =>   3
Atom  11H    basis set group =>   3


           ************************************************************
           *        Program running with 8 parallel MPI-processes     *
           *              working on a common directory               *
           ************************************************************
------------------------------------------------------------------------------
                           ORCA GTO INTEGRAL CALCULATION
------------------------------------------------------------------------------

                         BASIS SET STATISTICS AND STARTUP INFO

 # of primitive gaussian shells          ...  128
 # of primitive gaussian functions       ...  248
 # of contracted shells                  ...   76
 # of contracted basis functions         ...  172
 Highest angular momentum                ...    3
 Maximum contraction depth               ...    6
 Integral package used                   ... LIBINT
 Integral threshhold            Thresh   ...  2.500e-11
 Primitive cut-off              TCut     ...  2.500e-12


------------------------------ INTEGRAL EVALUATION ----------------------------


 * One electron integrals 
 Pre-screening matrix                    ... done
 Shell pair data                         ... done (   0.001 sec)



           ************************************************************
           *        Program running with 8 parallel MPI-processes     *
           *              working on a common directory               *
           ************************************************************
-------------------------------------------------------------------------------
                                 ORCA SCF
-------------------------------------------------------------------------------

------------
SCF SETTINGS
------------
Hamiltonian:
 Density Functional     Method          .... DFT(GTOs)
 Exchange Functional    Exchange        .... WB97X-D3
 Correlation Functional Correlation     .... WB97X-D3
 Gradients option       PostSCFGGA      .... off
 Hybrid DFT is turned on
   Fraction HF Exchange ScalHFX         ....  0.195728
   Scaling of DF-GGA-X  ScalDFX         ....  0.000000
   Scaling of DF-GGA-C  ScalDFC         ....  1.000000
   Scaling of DF-LDA-C  ScalLDAC        ....  1.000000
   Perturbative correction              ....  0.000000
   Density functional embedding theory  .... OFF
 Long-range corrected/Screened/Range-Separated Hybrid DFT is turned on
   Amount of maximum screened exact exchange              ....  0.804272
   Range separation parameter mu (erf(mu*r12)/r12)        ....  0.250000


General Settings:
 Integral files         IntName         .... 13-188_DFT_A
 Hartree-Fock type      HFTyp           .... RHF
 Total Charge           Charge          ....    0
 Multiplicity           Mult            ....    1
 Number of Electrons    NEL             ....   18
 Basis Dimension        Dim             ....  172
 Nuclear Repulsion      ENuc            ....     39.8496546499 Eh

Convergence Acceleration:
 DIIS                   CNVDIIS         .... on
   Start iteration      DIISMaxIt       ....    12
   Startup error        DIISStart       ....  0.200000
   # of expansion vecs  DIISMaxEq       ....     5
   Bias factor          DIISBfac        ....   1.050
   Max. coefficient     DIISMaxC        ....  10.000
 Newton-Raphson         CNVNR           .... off
 SOSCF                  CNVSOSCF        .... on
   Start iteration      SOSCFMaxIt      ....   150
   Startup grad/error   SOSCFStart      ....  0.003300
 Level Shifting         CNVShift        .... on
   Level shift para.    LevelShift      ....    0.2500
   Turn off err/grad.   ShiftErr        ....    0.0010
 Zerner damping         CNVZerner       .... off
 Static damping         CNVDamp         .... on
   Fraction old density DampFac         ....    0.7000
   Max. Damping (<1)    DampMax         ....    0.9800
   Min. Damping (>=0)   DampMin         ....    0.0000
   Turn off err/grad.   DampErr         ....    0.1000
 Fernandez-Rico         CNVRico         .... off

SCF Procedure:
 Maximum # iterations   MaxIter         ....  1000
 SCF integral mode      SCFMode         .... Direct
   Integral package                     .... LIBINT
 Reset frequency        DirectResetFreq ....    20
 Integral Threshold     Thresh          ....  2.500e-11 Eh
 Primitive CutOff       TCut            ....  2.500e-12 Eh

Convergence Tolerance:
 Convergence Check Mode ConvCheckMode   .... Total+1el-Energy
 Convergence forced     ConvForced      .... 0
 Energy Change          TolE            ....  1.000e-08 Eh
 1-El. energy change                    ....  1.000e-05 Eh
 Orbital Gradient       TolG            ....  1.000e-05
 Orbital Rotation angle TolX            ....  1.000e-05
 DIIS Error             TolErr          ....  5.000e-07


Diagonalization of the overlap matrix:
Smallest eigenvalue                        ... 1.546e-03
Time for diagonalization                   ...    0.004 sec
Threshold for overlap eigenvalues          ... 1.000e-08
Number of eigenvalues below threshold      ... 0
Time for construction of square roots      ...    0.008 sec
Total time needed                          ...    0.012 sec

-------------------
DFT GRID GENERATION
-------------------

General Integration Accuracy     IntAcc      ...  4.340
Radial Grid Type                 RadialGrid  ... Gauss-Chebyshev
Angular Grid (max. acc.)         AngularGrid ... Lebedev-110
Angular grid pruning method      GridPruning ... 3 (G Style)
Weight generation scheme         WeightScheme... Becke
Basis function cutoff            BFCut       ...    1.0000e-11
Integration weight cutoff        WCut        ...    1.0000e-14
Grids for H and He will be reduced by one unit

# of grid points (after initial pruning)     ...  13096 (   0.0 sec)
# of grid points (after weights+screening)   ...  12596 (   0.0 sec)
nearest neighbour list constructed           ...    0.0 sec
Grid point re-assignment to atoms done       ...    0.0 sec
Grid point division into batches done        ...    0.0 sec
Reduced shell lists constructed in    0.0 sec

Total number of grid points                  ...    12596
Total number of batches                      ...      202
Average number of points per batch           ...       62
Average number of grid points per atom       ...     1050
Average number of shells per batch           ...    45.33 (59.65%)
Average number of basis functions per batch  ...    98.59 (57.32%)
Average number of large shells per batch     ...    36.56 (80.64%)
Average number of large basis fcns per batch ...    81.37 (82.53%)
Maximum spatial batch extension              ...  14.93, 11.72, 13.79 au
Average spatial batch extension              ...   0.49,  0.37,  0.45 au

Time for grid setup =    0.047 sec

------------------------------
INITIAL GUESS: MODEL POTENTIAL
------------------------------
Loading Hartree-Fock densities                     ... done
Calculating cut-offs                               ... done
Setting up the integral package                    ... done
Initializing the effective Hamiltonian             ... done
Starting the Coulomb interaction                   ... done (   0.0 sec)
Reading the grid                                   ... done
Mapping shells                                     ... done
Starting the XC term evaluation                    ... done (   0.0 sec)
  promolecular density results
     # of electrons  =     17.998356990
     EX              =    -14.423832776
     EC              =     -0.574164038
     EX+EC           =    -14.997996815
Transforming the Hamiltonian                       ... done (   0.0 sec)
Diagonalizing the Hamiltonian                      ... done (   0.0 sec)
Back transforming the eigenvectors                 ... done (   0.0 sec)
Now organizing SCF variables                       ... done
                      ------------------
                      INITIAL GUESS DONE (   0.2 sec)
                      ------------------
--------------
SCF ITERATIONS
--------------
ITER       Energy         Delta-E        Max-DP      RMS-DP      [F,P]     Damp
               ***  Starting incremental Fock matrix formation  ***
  0   -115.6453216521   0.000000000000 0.03502214  0.00071511  0.2303681 0.7000
  1   -115.6797623415  -0.034440689419 0.02019147  0.00050712  0.1135302 0.7000
                               ***Turning on DIIS***
  2   -115.6958306445  -0.016068303029 0.02941704  0.00092589  0.0444287 0.0000
  3   -115.7221567224  -0.026326077940 0.01757367  0.00033846  0.0580675 0.0000
  4   -115.7262738368  -0.004117114345 0.00391559  0.00006681  0.0058384 0.0000
                      *** Initiating the SOSCF procedure ***
                           *** Shutting down DIIS ***
                      *** Re-Reading the Fockian *** 
                      *** Removing any level shift *** 
ITER      Energy       Delta-E        Grad      Rot      Max-DP    RMS-DP
  5   -115.72636724  -0.0000934080  0.000425  0.000425  0.000750  0.000023
               *** Restarting incremental Fock matrix formation ***
  6   -115.72637541  -0.0000081697  0.000159  0.000195  0.000623  0.000014
  7   -115.72637624  -0.0000008295  0.000057  0.000115  0.000291  0.000007
  8   -115.72637631  -0.0000000674  0.000023  0.000019  0.000036  0.000001
  9   -115.72637632  -0.0000000121  0.000012  0.000009  0.000024  0.000001
 10   -115.72637633  -0.0000000021  0.000003  0.000003  0.000005  0.000000
                  ***Gradient check signals convergence***
              ***Rediagonalizing the Fockian in SOSCF/NRSCF***

               *****************************************************
               *                     SUCCESS                       *
               *           SCF CONVERGED AFTER  11 CYCLES          *
               *****************************************************

Setting up the final grid:

General Integration Accuracy     IntAcc      ...  4.670
Radial Grid Type                 RadialGrid  ... Gauss-Chebyshev
Angular Grid (max. acc.)         AngularGrid ... Lebedev-302
Angular grid pruning method      GridPruning ... 3 (G Style)
Weight generation scheme         WeightScheme... Becke
Basis function cutoff            BFCut       ...    1.0000e-11
Integration weight cutoff        WCut        ...    1.0000e-14
Grids for H and He will be reduced by one unit

# of grid points (after initial pruning)     ...  52000 (   0.0 sec)
# of grid points (after weights+screening)   ...  49575 (   0.0 sec)
nearest neighbour list constructed           ...    0.0 sec
Grid point re-assignment to atoms done       ...    0.0 sec
Grid point division into batches done        ...    0.2 sec
Reduced shell lists constructed in    0.2 sec

Total number of grid points                  ...    49575
Total number of batches                      ...      781
Average number of points per batch           ...       63
Average number of grid points per atom       ...     4131
Average number of shells per batch           ...    43.12 (56.74%)
Average number of basis functions per batch  ...    93.20 (54.19%)
Average number of large shells per batch     ...    34.28 (79.50%)
Average number of large basis fcns per batch ...    76.57 (82.15%)
Maximum spatial batch extension              ...  16.05, 12.14, 13.09 au
Average spatial batch extension              ...   0.31,  0.28,  0.27 au

Final grid set up in    0.3 sec
Final integration                            ... done (   0.1 sec)
Change in XC energy                          ...    -0.000151486
Integrated number of electrons               ...    18.000014407
Previous integrated no of electrons          ...    18.000485260

----------------
TOTAL SCF ENERGY
----------------

Total Energy       :         -115.72652781 Eh           -3149.07892 eV

Components:
Nuclear Repulsion  :           39.84965465 Eh            1084.36423 eV
Electronic Energy  :         -155.57618246 Eh           -4233.44315 eV
One Electron Energy:         -236.05890898 Eh           -6423.48948 eV
Two Electron Energy:           80.48272652 Eh            2190.04633 eV

Virial components:
Potential Energy   :         -230.94723856 Eh           -6284.39385 eV
Kinetic Energy     :          115.22071075 Eh            3135.31494 eV
Virial Ratio       :            2.00438998


DFT components:
N(Alpha)           :        9.000007203635 electrons
N(Beta)            :        9.000007203635 electrons
N(Total)           :       18.000014407270 electrons
E(XC)              :      -10.645442352108 Eh       
DFET-embed. en.    :        0.000000000000 Eh       

---------------
SCF CONVERGENCE
---------------

  Last Energy change         ...   -2.1002e-10  Tolerance :   1.0000e-08
  Last MAX-Density change    ...    2.2730e-06  Tolerance :   1.0000e-07
  Last RMS-Density change    ...    5.4241e-08  Tolerance :   5.0000e-09
  Last Orbital Gradient      ...    1.3527e-06  Tolerance :   1.0000e-05
  Last Orbital Rotation      ...    9.3673e-07  Tolerance :   1.0000e-05

             **** THE GBW FILE WAS UPDATED (13-188_DFT_A.gbw) ****
             **** DENSITY FILE WAS UPDATED (13-188_DFT_A.scfp.tmp) ****
             **** ENERGY FILE WAS UPDATED (13-188_DFT_A.en.tmp) ****
----------------
ORBITAL ENERGIES
----------------

  NO   OCC          E(Eh)            E(eV) 
   0   2.0000     -19.238954      -523.5185 
   1   2.0000     -10.315417      -280.6968 
   2   2.0000      -1.135252       -30.8918 
   3   2.0000      -0.802378       -21.8338 
   4   2.0000      -0.603531       -16.4229 
   5   2.0000      -0.532799       -14.4982 
   6   2.0000      -0.528055       -14.3691 
   7   2.0000      -0.447297       -12.1716 
   8   2.0000      -0.380705       -10.3595 
   9   0.0000       0.077542         2.1100 
  10   0.0000       0.118073         3.2129 
  11   0.0000       0.142112         3.8671 
  12   0.0000       0.184914         5.0318 
  13   0.0000       0.192931         5.2499 
  14   0.0000       0.199781         5.4363 
  15   0.0000       0.202273         5.5041 
  16   0.0000       0.211830         5.7642 
  17   0.0000       0.239530         6.5179 
  18   0.0000       0.297379         8.0921 
  19   0.0000       0.309429         8.4200 
  20   0.0000       0.320544         8.7225 
  21   0.0000       0.327927         8.9233 
  22   0.0000       0.334663         9.1066 
  23   0.0000       0.366881         9.9834 
  24   0.0000       0.376443        10.2435 
  25   0.0000       0.442445        12.0396 
  26   0.0000       0.460089        12.5197 
  27   0.0000       0.498260        13.5584 
  28   0.0000       0.524201        14.2642 
  29   0.0000       0.534723        14.5505 
  30   0.0000       0.537769        14.6334 
  31   0.0000       0.555394        15.1130 
  32   0.0000       0.562687        15.3115 
  33   0.0000       0.598092        16.2749 
  34   0.0000       0.614035        16.7087 
  35   0.0000       0.649409        17.6713 
  36   0.0000       0.687997        18.7214 
  37   0.0000       0.750209        20.4142 
  38   0.0000       0.762903        20.7597 
  39   0.0000       0.790392        21.5077 
  40   0.0000       0.805444        21.9172 
  41   0.0000       0.829384        22.5687 
  42   0.0000       0.863594        23.4996 
  43   0.0000       0.908027        24.7087 
  44   0.0000       0.998824        27.1794 
  45   0.0000       1.035101        28.1665 
  46   0.0000       1.038432        28.2572 
  47   0.0000       1.088544        29.6208 
  48   0.0000       1.143025        31.1033 
  49   0.0000       1.157665        31.5017 
  50   0.0000       1.177851        32.0510 
  51   0.0000       1.205756        32.8103 
  52   0.0000       1.223432        33.2913 
  53   0.0000       1.344800        36.5939 
  54   0.0000       1.366760        37.1914 
  55   0.0000       1.383267        37.6406 
  56   0.0000       1.447976        39.4014 
  57   0.0000       1.508501        41.0484 
  58   0.0000       1.524432        41.4819 
  59   0.0000       1.535972        41.7959 
  60   0.0000       1.619246        44.0619 
  61   0.0000       1.624574        44.2069 
  62   0.0000       1.638713        44.5916 
  63   0.0000       1.671437        45.4821 
  64   0.0000       1.683992        45.8238 
  65   0.0000       1.812541        49.3217 
  66   0.0000       1.840155        50.0732 
  67   0.0000       1.908266        51.9265 
  68   0.0000       1.932839        52.5952 
  69   0.0000       1.956370        53.2355 
  70   0.0000       2.036952        55.4283 
  71   0.0000       2.052116        55.8409 
  72   0.0000       2.082027        56.6548 
  73   0.0000       2.101179        57.1760 
  74   0.0000       2.123762        57.7905 
  75   0.0000       2.158812        58.7443 
  76   0.0000       2.212719        60.2112 
  77   0.0000       2.225554        60.5604 
  78   0.0000       2.258705        61.4625 
  79   0.0000       2.314723        62.9868 
  80   0.0000       2.329285        63.3831 
  81   0.0000       2.329786        63.3967 
  82   0.0000       2.430616        66.1404 
  83   0.0000       2.468129        67.1612 
  84   0.0000       2.509711        68.2927 
  85   0.0000       2.544350        69.2353 
  86   0.0000       2.557836        69.6023 
  87   0.0000       2.567785        69.8730 
  88   0.0000       2.627518        71.4984 
  89   0.0000       2.653621        72.2087 
  90   0.0000       2.706608        73.6505 
  91   0.0000       2.744389        74.6786 
  92   0.0000       2.799851        76.1878 
  93   0.0000       2.816568        76.6427 
  94   0.0000       2.832627        77.0797 
  95   0.0000       2.841600        77.3239 
  96   0.0000       2.935359        79.8752 
  97   0.0000       2.972865        80.8958 
  98   0.0000       3.078271        83.7640 
  99   0.0000       3.090277        84.0907 
 100   0.0000       3.133284        85.2610 
 101   0.0000       3.155820        85.8742 
 102   0.0000       3.170440        86.2721 
 103   0.0000       3.209881        87.3453 
 104   0.0000       3.265589        88.8612 
 105   0.0000       3.322604        90.4126 
 106   0.0000       3.328519        90.5736 
 107   0.0000       3.352421        91.2240 
 108   0.0000       3.399775        92.5126 
 109   0.0000       3.406864        92.7055 
 110   0.0000       3.488463        94.9259 
 111   0.0000       3.531959        96.1095 
 112   0.0000       3.635405        98.9244 
 113   0.0000       3.638130        98.9985 
 114   0.0000       3.661894        99.6452 
 115   0.0000       3.692352       100.4740 
 116   0.0000       3.700292       100.6901 
 117   0.0000       4.026956       109.5790 
 118   0.0000       4.052642       110.2780 
 119   0.0000       4.079953       111.0212 
 120   0.0000       4.195765       114.1726 
 121   0.0000       4.253261       115.7371 
 122   0.0000       4.281718       116.5115 
 123   0.0000       4.345601       118.2498 
 124   0.0000       4.399301       119.7111 
 125   0.0000       4.440843       120.8415 
 126   0.0000       4.513071       122.8069 
 127   0.0000       4.541819       123.5892 
 128   0.0000       4.551498       123.8525 
 129   0.0000       4.560606       124.1004 
 130   0.0000       4.583846       124.7328 
 131   0.0000       4.936019       134.3159 
 132   0.0000       5.046327       137.3175 
 133   0.0000       5.086646       138.4147 
 134   0.0000       5.276213       143.5730 
 135   0.0000       5.344281       145.4253 
 136   0.0000       5.424276       147.6020 
 137   0.0000       5.475508       148.9961 
 138   0.0000       5.518750       150.1728 
 139   0.0000       5.662088       154.0733 
 140   0.0000       5.682086       154.6174 
 141   0.0000       5.747634       156.4011 
 142   0.0000       5.908498       160.7784 
 143   0.0000       6.001099       163.2982 
 144   0.0000       6.007366       163.4687 
 145   0.0000       6.362936       173.1443 
 146   0.0000       6.513329       177.2367 
 147   0.0000       6.620215       180.1452 
 148   0.0000       6.720784       182.8818 
 149   0.0000       6.753536       183.7731 
 150   0.0000       6.779194       184.4713 
 151   0.0000       6.809464       185.2949 
 152   0.0000       6.988507       190.1669 
 153   0.0000       7.094320       193.0463 
 154   0.0000       7.207031       196.1133 
 155   0.0000       7.294307       198.4882 
 156   0.0000       7.461166       203.0287 
 157   0.0000       7.918950       215.4856 
 158   0.0000       8.910738       242.4735 
 159   0.0000       9.296901       252.9816 
 160   0.0000       9.516061       258.9452 
 161   0.0000       9.552576       259.9388 
 162   0.0000       9.797106       266.5928 
[...]
  82   0.0000       2.428743        66.0894 
  83   0.0000       2.464082        67.0511 
  84   0.0000       2.503703        68.1292 
  85   0.0000       2.529067        68.8194 
  86   0.0000       2.568787        69.9002 
  87   0.0000       2.576536        70.1111 
  88   0.0000       2.633210        71.6533 
  89   0.0000       2.635392        71.7126 
  90   0.0000       2.686092        73.0923 
  91   0.0000       2.716985        73.9329 
  92   0.0000       2.779042        75.6216 
  93   0.0000       2.812464        76.5310 
  94   0.0000       2.843752        77.3824 
  95   0.0000       2.896221        78.8102 
  96   0.0000       2.922377        79.5219 
  97   0.0000       2.971099        80.8477 
  98   0.0000       3.029682        82.4418 
  99   0.0000       3.096581        84.2623 
 100   0.0000       3.113152        84.7132 
 101   0.0000       3.129972        85.1709 
 102   0.0000       3.141150        85.4750 
 103   0.0000       3.204741        87.2054 
 104   0.0000       3.229113        87.8686 
 105   0.0000       3.296501        89.7024 
 106   0.0000       3.320894        90.3661 
 107   0.0000       3.335215        90.7558 
 108   0.0000       3.395409        92.3938 
 109   0.0000       3.478002        94.6412 
 110   0.0000       3.491726        95.0147 
 111   0.0000       3.605620        98.1139 
 112   0.0000       3.641948        99.1024 
 113   0.0000       3.660816        99.6159 
 114   0.0000       3.670539        99.8805 
 115   0.0000       3.679490       100.1240 
 116   0.0000       3.771940       102.6397 
 117   0.0000       3.988601       108.5354 
 118   0.0000       4.053616       110.3045 
 119   0.0000       4.063237       110.5663 
 120   0.0000       4.227964       115.0488 
 121   0.0000       4.230967       115.1305 
 122   0.0000       4.254613       115.7739 
 123   0.0000       4.293010       116.8187 
 124   0.0000       4.293684       116.8371 
 125   0.0000       4.362054       118.6975 
 126   0.0000       4.495541       122.3299 
 127   0.0000       4.541078       123.5690 
 128   0.0000       4.550246       123.8185 
 129   0.0000       4.570112       124.3591 
 130   0.0000       4.626029       125.8807 
 131   0.0000       5.040575       137.1610 
 132   0.0000       5.087539       138.4390 
 133   0.0000       5.163522       140.5066 
 134   0.0000       5.291622       143.9923 
 135   0.0000       5.363112       145.9377 
 136   0.0000       5.454774       148.4320 
 137   0.0000       5.477204       149.0423 
 138   0.0000       5.528880       150.4485 
 139   0.0000       5.743242       156.2816 
 140   0.0000       5.817932       158.3140 
 141   0.0000       5.853480       159.2813 
 142   0.0000       5.865210       159.6005 
 143   0.0000       6.004003       163.3772 
 144   0.0000       6.235201       169.6684 
 145   0.0000       6.256308       170.2428 
 146   0.0000       6.529824       177.6856 
 147   0.0000       6.610181       179.8722 
 148   0.0000       6.736138       183.2996 
 149   0.0000       6.767975       184.1660 
 150   0.0000       6.810275       185.3170 
 151   0.0000       6.819331       185.5634 
 152   0.0000       6.991130       190.2383 
 153   0.0000       7.025121       191.1633 
 154   0.0000       7.133108       194.1017 
 155   0.0000       7.181464       195.4176 
 156   0.0000       7.334596       199.5845 
 157   0.0000       8.120691       220.9752 
 158   0.0000       8.859633       241.0829 
 159   0.0000       9.362528       254.7673 
 160   0.0000       9.535446       259.4727 
 161   0.0000       9.551640       259.9133 
 162   0.0000       9.751231       265.3445 
 163   0.0000       9.849953       268.0308 
 164   0.0000       9.924523       270.0600 
 165   0.0000      10.063253       273.8350 
 166   0.0000      11.060208       300.9636 
 167   0.0000      19.095048       519.6027 
 168   0.0000      22.450220       610.9015 
 169   0.0000      43.665540      1188.1998 
 170   0.0000      65.842388      1791.6625 
 171   0.0000     126.411256      3439.8251 

                    ********************************
                    * MULLIKEN POPULATION ANALYSIS *
                    ********************************

-----------------------
MULLIKEN ATOMIC CHARGES
-----------------------
   0 C :    0.000670
   1 O :    0.000812
   2 H :   -0.006534
   3 H :   -0.000045
   4 H :    0.000020
   5 H :   -0.000032
   6 C :   -0.175160
   7 O :   -0.462210
   8 H :    0.327821
   9 H :    0.094119
  10 H :    0.123083
  11 H :    0.097456
Sum of atomic charges:   -0.0000000

--------------------------------
MULLIKEN REDUCED ORBITAL CHARGES
--------------------------------
  0 C s       :    -0.000311  s :    -0.000311
      pz      :    -0.000004  p :    -0.000356
      px      :     0.000005
      py      :    -0.000357
      dz2     :    -0.000001  d :    -0.000003
      dxz     :    -0.000000
      dyz     :    -0.000000
      dx2y2   :    -0.000002
      dxy     :    -0.000000
      f0      :     0.000000  f :     0.000000
      f+1     :     0.000000
      f-1     :    -0.000000
      f+2     :     0.000000
      f-2     :    -0.000000
      f+3     :    -0.000000
      f-3     :     0.000000
  1 O s       :    -0.000401  s :    -0.000401
      pz      :     0.000013  p :    -0.000412
      px      :    -0.000003
      py      :    -0.000422
      dz2     :     0.000001  d :     0.000001
      dxz     :     0.000000
      dyz     :    -0.000001
      dx2y2   :     0.000001
      dxy     :     0.000000
      f0      :    -0.000000  f :    -0.000000
      f+1     :    -0.000000
      f-1     :    -0.000000
      f+2     :     0.000000
      f-2     :    -0.000000
      f+3     :     0.000000
      f-3     :     0.000000
  2 H s       :     0.006519  s :     0.006519
      pz      :    -0.000002  p :     0.000016
      px      :     0.000000
      py      :     0.000018
  3 H s       :     0.000045  s :     0.000045
      pz      :    -0.000000  p :    -0.000000
      px      :     0.000000
      py      :    -0.000000
  4 H s       :    -0.000020  s :    -0.000020
      pz      :     0.000000  p :     0.000000
      px      :     0.000000
      py      :     0.000000
  5 H s       :     0.000032  s :     0.000032
      pz      :    -0.000000  p :    -0.000000
      px      :    -0.000000
      py      :    -0.000000
  6 C s       :     3.220085  s :     3.220085
      pz      :     1.076909  p :     2.843849
      px      :     0.924008
      py      :     0.842932
      dz2     :     0.008077  d :     0.103403
      dxz     :     0.009936
      dyz     :     0.032704
      dx2y2   :     0.041937
      dxy     :     0.010749
      f0      :     0.000812  f :     0.007822
      f+1     :     0.000304
      f-1     :     0.000986
      f+2     :     0.000253
      f-2     :     0.001389
      f+3     :     0.001500
      f-3     :     0.002578
  7 O s       :     3.803617  s :     3.803617
      pz      :     1.508308  p :     4.626045
      px      :     1.688173
      py      :     1.429563
      dz2     :     0.007580  d :     0.030903
      dxz     :     0.003282
      dyz     :     0.008724
      dx2y2   :     0.004443
      dxy     :     0.006874
      f0      :     0.000098  f :     0.001646
      f+1     :     0.000065
      f-1     :     0.000476
      f+2     :     0.000159
      f-2     :     0.000171
      f+3     :     0.000396
      f-3     :     0.000280
  8 H s       :     0.629660  s :     0.629660
      pz      :     0.016243  p :     0.042519
      px      :     0.012934
      py      :     0.013342
  9 H s       :     0.887225  s :     0.887225
      pz      :     0.009679  p :     0.018656
      px      :     0.003828
      py      :     0.005149
 10 H s       :     0.855825  s :     0.855825
      pz      :     0.008433  p :     0.021091
      px      :     0.003862
      py      :     0.008796
 11 H s       :     0.882839  s :     0.882839
      pz      :     0.004607  p :     0.019705
      px      :     0.011947
      py      :     0.003151


                     *******************************
                     * LOEWDIN POPULATION ANALYSIS *
                     *******************************

----------------------
LOEWDIN ATOMIC CHARGES
----------------------
   0 C :   -0.000061
   1 O :   -0.000321
   2 H :   -0.004009
   3 H :   -0.000003
   4 H :   -0.000003
   5 H :   -0.000001
   6 C :   -0.418653
   7 O :   -0.071819
   8 H :    0.201274
   9 H :    0.097997
  10 H :    0.103862
  11 H :    0.091737

-------------------------------
LOEWDIN REDUCED ORBITAL CHARGES
-------------------------------
  0 C s       :     0.000008  s :     0.000008
      pz      :     0.000006  p :     0.000052
      px      :     0.000002
      py      :     0.000044
      dz2     :     0.000001  d :     0.000002
      dxz     :     0.000000
      dyz     :     0.000000
      dx2y2   :     0.000000
      dxy     :     0.000000
      f0      :     0.000000  f :     0.000000
      f+1     :     0.000000
      f-1     :     0.000000
      f+2     :     0.000000
      f-2     :     0.000000
      f+3     :     0.000000
      f-3     :     0.000000
  1 O s       :     0.000005  s :     0.000005
      pz      :     0.000037  p :     0.000314
      px      :     0.000005
      py      :     0.000272
      dz2     :     0.000000  d :     0.000002
      dxz     :     0.000000
      dyz     :     0.000000
      dx2y2   :     0.000002
      dxy     :     0.000000
      f0      :     0.000000  f :     0.000000
      f+1     :     0.000000
      f-1     :     0.000000
      f+2     :     0.000000
      f-2     :     0.000000
      f+3     :     0.000000
      f-3     :     0.000000
  2 H s       :     0.003967  s :     0.003967
      pz      :     0.000004  p :     0.000042
      px      :     0.000000
      py      :     0.000037
  3 H s       :     0.000003  s :     0.000003
      pz      :     0.000000  p :     0.000000
      px      :     0.000000
      py      :     0.000000
  4 H s       :     0.000003  s :     0.000003
      pz      :     0.000000  p :     0.000000
      px      :     0.000000
      py      :     0.000000
  5 H s       :     0.000000  s :     0.000000
      pz      :     0.000000  p :     0.000000
      px      :     0.000000
      py      :     0.000000
  6 C s       :     2.856423  s :     2.856423
      pz      :     1.102272  p :     3.064128
      px      :     1.014015
      py      :     0.947841
      dz2     :     0.050818  d :     0.437940
      dxz     :     0.027501
      dyz     :     0.124033
      dx2y2   :     0.153558
      dxy     :     0.082029
      f0      :     0.006467  f :     0.060162
      f+1     :     0.005413
      f-1     :     0.005585
      f+2     :     0.002847
      f-2     :     0.010419
      f+3     :     0.010997
      f-3     :     0.018434
  7 O s       :     3.375460  s :     3.375460
      pz      :     1.500978  p :     4.617572
      px      :     1.666202
      py      :     1.450392
      dz2     :     0.012481  d :     0.073992
      dxz     :     0.006297
      dyz     :     0.022969
      dx2y2   :     0.015763
      dxy     :     0.016483
      f0      :     0.000556  f :     0.004795
      f+1     :     0.000251
      f-1     :     0.001124
      f+2     :     0.000292
      f-2     :     0.000683
      f+3     :     0.000948
      f-3     :     0.000940
  8 H s       :     0.660614  s :     0.660614
      pz      :     0.066489  p :     0.138112
      px      :     0.033788
      py      :     0.037835
  9 H s       :     0.846857  s :     0.846857
      pz      :     0.028342  p :     0.055146
      px      :     0.011499
      py      :     0.015305
 10 H s       :     0.833382  s :     0.833382
      pz      :     0.025657  p :     0.062755
      px      :     0.012031
      py      :     0.025067
 11 H s       :     0.848101  s :     0.848101
      pz      :     0.014306  p :     0.060162
      px      :     0.035189
      py      :     0.010667


                      *****************************
                      * MAYER POPULATION ANALYSIS *
                      *****************************

  NA   - Mulliken gross atomic population
  ZA   - Total nuclear charge
  QA   - Mulliken gross atomic charge
  VA   - Mayer's total valence
  BVA  - Mayer's bonded valence
  FA   - Mayer's free valence

  ATOM       NA         ZA         QA         VA         BVA        FA
  0 C     -0.0007     0.0000     0.0007    -0.0013    -0.0013     0.0000
  1 O     -0.0008     0.0000     0.0008    -0.0016    -0.0016    -0.0000
  2 H      0.0065     0.0000    -0.0065     0.0130     0.0130    -0.0000
  3 H      0.0000     0.0000    -0.0000     0.0001     0.0001     0.0000
  4 H     -0.0000     0.0000     0.0000    -0.0000    -0.0000    -0.0000
  5 H      0.0000     0.0000    -0.0000     0.0001     0.0001    -0.0000
  6 C      6.1752     6.0000    -0.1752     3.9502     3.9502    -0.0000
  7 O      8.4622     8.0000    -0.4622     1.8952     1.8952    -0.0000
  8 H      0.6722     1.0000     0.3278     0.8937     0.8937    -0.0000
  9 H      0.9059     1.0000     0.0941     0.9620     0.9620    -0.0000
 10 H      0.8769     1.0000     0.1231     0.9586     0.9586    -0.0000
 11 H      0.9025     1.0000     0.0975     0.9492     0.9492     0.0000

  Mayer bond orders larger than 0.1
B(  6-C ,  7-O ) :   1.0095 B(  6-C ,  9-H ) :   0.9904 B(  6-C , 10-H ) :   0.9705 
B(  6-C , 11-H ) :   0.9692 B(  7-O ,  8-H ) :   0.8832 

-------
TIMINGS
-------

Total SCF time: 0 days 0 hours 0 min 16 sec 

Total time                  ....      16.367 sec
Sum of individual times     ....      15.833 sec  ( 96.7%)

Fock matrix formation       ....      14.987 sec  ( 91.6%)
  XC integration            ....       7.803 sec  ( 52.1% of F)
    Basis function eval.    ....       0.057 sec  (  0.7% of XC)
    Density eval.           ....       0.123 sec  (  1.6% of XC)
    XC-Functional eval.     ....       0.120 sec  (  1.5% of XC)
    XC-Potential eval.      ....       0.057 sec  (  0.7% of XC)
Diagonalization             ....       0.197 sec  (  1.2%)
Density matrix formation    ....       0.006 sec  (  0.0%)
Population analysis         ....       0.038 sec  (  0.2%)
Initial guess               ....       0.098 sec  (  0.6%)
Orbital Transformation      ....       0.000 sec  (  0.0%)
Orbital Orthonormalization  ....       0.000 sec  (  0.0%)
DIIS solution               ....       0.075 sec  (  0.5%)
SOSCF solution              ....       0.063 sec  (  0.4%)
Grid generation             ....       0.370 sec  (  2.3%)


-------------------------------------------------------------------------------
                          DFT DISPERSION CORRECTION                            
                                                                               
                              DFTD3 V3.1  Rev 1                                
                              USING zero damping                               
-------------------------------------------------------------------------------
The omegaB97X-D3 functional is recognized. Fit by Chai et al.
Active option DFTDOPT                   ...         3   

molecular C6(AA) [au] = 208.785230 


            DFT-D V3
 parameters
 s6 scaling factor         :     1.0000 
 rs6 scaling factor        :     1.2810 
 s8 scaling factor         :     1.0000 
 rs8 scaling factor        :     1.0940 
 Damping factor alpha6     :    14.0000 
 Damping factor alpha8     :    16.0000 
 ad hoc parameters k1-k3   :    16.0000     1.3333    -4.0000 

 Edisp/kcal,au: -0.149706510085  -0.000238572484 
 E6   /kcal   :  -0.031636349 
 E8   /kcal   :  -0.118070161 
 % E8         :  78.867753007 

-------------------------   ----------------
Dispersion correction           -0.000238572
-------------------------   ----------------


-------------------------   --------------------
FINAL SINGLE POINT ENERGY      -115.730498084986
-------------------------   --------------------


                            ***************************************
                            *     ORCA property calculations      *
                            ***************************************

                                    ---------------------
                                    Active property flags
                                    ---------------------
   (+) Dipole Moment


------------------------------------------------------------------------------
                       ORCA ELECTRIC PROPERTIES CALCULATION
------------------------------------------------------------------------------

Dipole Moment Calculation                       ... on
Quadrupole Moment Calculation                   ... off
Polarizability Calculation                      ... off
GBWName                                         ... 13-188_DFT_B.gbw
Electron density file                           ... 13-188_DFT_B.scfp.tmp
The origin for moment calculation is the CENTER OF MASS  = ( 8.070730,  4.002737 -7.135989)

-------------
DIPOLE MOMENT
-------------
                                X             Y             Z
Electronic contribution:     -1.22207      -1.46829       0.56293
Nuclear contribution   :      1.55746       1.56408      -1.14076
                        -----------------------------------------
Total Dipole Moment    :      0.33539       0.09580      -0.57783
                        -----------------------------------------
Magnitude (a.u.)       :      0.67495
Magnitude (Debye)      :      1.71557



--------------------
Rotational spectrum 
--------------------
 
Rotational constants in cm-1:     4.326258     0.844328     0.809566 
Rotational constants in MHz : 129697.949910 25312.325112 24270.172581 

 Dipole components along the rotational axes: 
x,y,z [a.u.] :    -0.313493     0.597713    -0.003562 
x,y,z [Debye]:    -0.796835     1.519266    -0.009055 

 
------------------------------------------------------------------------------
                      ORCA CHELPG CHARGES GENERATION
------------------------------------------------------------------------------

GBW file                           ... 13-188_DFT_B.gbw

Reading the GBW file               ... done

Grid spacing                       ...     0.300000
Point Cut-Off                      ...     2.800000
Van-der-Waals Radii                ...        COSMO
Total charge                       ...            0


Number of points X direction       ...           28
Number of points Y direction       ...           43
Number of points Z direction       ...           28
Maximum number of possible points  ...        33712
Final number of points             ...         5930


CHELPG Charges            
--------------------------------
  0   C   :       0.030079
  1   O   :      -0.026219
  2   H   :       0.003553
  3   H   :       0.012736
  4   H   :      -0.007230
  5   H   :      -0.022942
  6   C   :       0.185542
  7   O   :      -0.596607
  8   H   :       0.400064
  9   H   :      -0.025374
 10   H   :       0.059118
 11   H   :      -0.012721
--------------------------------
Total charge:    -0.000000
--------------------------------

CHELPG charges calculated...

Timings for individual parts in CHELPG calculation:
Grid generation                 ...        0.001 sec (=   0.000 min)
Potential calculation           ...        1.124 sec (=   0.019 min)
Fit to the potential            ...        0.002 sec (=   0.000 min)
------------------------------------------------------------------------------


Timings for individual modules:

Sum of individual times         ...       18.550 sec (=   0.309 min)
GTO integral calculation        ...        0.662 sec (=   0.011 min)   3.6 %
SCF iterations                  ...       16.733 sec (=   0.279 min)  90.2 %
CHELPG charge generation        ...        1.155 sec (=   0.019 min)   6.2 %



                             ****ORCA TERMINATED NORMALLY****
TOTAL RUN TIME: 0 days 0 hours 1 minutes 2 seconds 462 msec
