
                                 *****************
                                 * O   R   C   A *
                                 *****************

           --- An Ab Initio, DFT and Semiempirical electronic structure package ---

                  #######################################################
                  #                        -***-                        #
                  #          Department of theory and spectroscopy      #
                  #               Directorship: Frank Neese             #
                  #        Max Planck Institute fuer Kohlenforschung    #
                  #                Kaiser Wilhelm Platz 1               #
                  #                 D-45470 Muelheim/Ruhr               #
                  #                      Germany                        #
                  #                                                     #
                  #                  All rights reserved                #
                  #                        -***-                        #
                  #######################################################


                         Program Version 4.1.2  - RELEASE  -


 With contributions from (in alphabetic order):
   Daniel Aravena         : Magnetic Properties
   Michael Atanasov       : Ab Initio Ligand Field Theory
   Alexander A. Auer      : GIAO ZORA
   Ute Becker             : Parallelization
   Giovanni Bistoni       : ED, Open-shell LED
   Martin Brehm           : Molecular dynamics
   Dmytro Bykov           : SCF Hessian
   Vijay G. Chilkuri      : MRCI spin determinant printing
   Dipayan Datta          : RHF DLPNO-CCSD density
   Achintya Kumar Dutta   : EOM-CC, STEOM-CC
   Dmitry Ganyushin       : Spin-Orbit,Spin-Spin,Magnetic field MRCI
   Miquel Garcia          : C-PCM Hessian
   Yang Guo               : DLPNO-NEVPT2, CIM, IAO-localization
   Andreas Hansen         : Spin unrestricted coupled pair/coupled cluster methods
   Benjamin Helmich-Paris : CASSCF linear response (MC-RPA)
   Lee Huntington         : MR-EOM, pCC
   Robert Izsak           : Overlap fitted RIJCOSX, COSX-SCS-MP3, EOM
   Christian Kollmar      : KDIIS, OOCD, Brueckner-CCSD(T), CCSD density
   Simone Kossmann        : Meta GGA functionals, TD-DFT gradient, OOMP2, MP2 Hessian
   Martin Krupicka        : AUTO-CI
   Lucas Lang             : DCDCAS
   Dagmar Lenk            : GEPOL surface, SMD
   Dimitrios Liakos       : Extrapolation schemes; parallel MDCI
   Dimitrios Manganas     : ROCIS; embedding schemes
   Dimitrios Pantazis     : SARC Basis sets
   Taras Petrenko         : DFT Hessian,TD-DFT gradient, ASA, ECA, R-Raman, ABS, FL, XAS/XES, NRVS
   Peter Pinski           : DLPNO-MP2, DLPNO-MP2 Gradient
   Christoph Reimann      : Effective Core Potentials
   Marius Retegan         : Local ZFS, SOC
   Christoph Riplinger    : Optimizer, TS searches, QM/MM, DLPNO-CCSD(T), (RO)-DLPNO pert. Triples
   Tobias Risthaus        : Range-separated hybrids, TD-DFT gradient, RPA, STAB
   Michael Roemelt        : Restricted open shell CIS
   Masaaki Saitow         : Open-shell DLPNO
   Barbara Sandhoefer     : DKH picture change effects
   Avijit Sen             : IP-ROCIS
   Kantharuban Sivalingam : CASSCF convergence, NEVPT2, FIC-MRCI
   Bernardo de Souza      : ESD, SOC TD-DFT
   Georgi Stoychev        : AutoAux, RI-MP2 NMR
   Willem Van den Heuvel  : Paramagnetic NMR
   Boris Wezisla          : Elementary symmetry handling
   Frank Wennmohs         : Technical directorship


 We gratefully acknowledge several colleagues who have allowed us to
 interface, adapt or use parts of their codes:
   Stefan Grimme, W. Hujo, H. Kruse,             : VdW corrections, initial TS optimization,
                  C. Bannwarth                     DFT functionals, gCP, sTDA/sTD-DF
   Ed Valeev                                     : LibInt (2-el integral package), F12 methods
   Garnet Chan, S. Sharma, J. Yang, R. Olivares  : DMRG
   Ulf Ekstrom                                   : XCFun DFT Library
   Mihaly Kallay                                 : mrcc  (arbitrary order and MRCC methods)
   Andreas Klamt, Michael Diedenhofen            : otool_cosmo (COSMO solvation model)
   Jiri Pittner, Ondrej Demel                    : Mk-CCSD
   Frank Weinhold                                : gennbo (NPA and NBO analysis)
   Christopher J. Cramer and Donald G. Truhlar   : smd solvation model
   Lars Goerigk                                  : TD-DFT with DH, B97 family of functionals
   V. Asgeirsson, H. Jonsson                     : NEB implementation
   FAccTs GmbH                                   : IRC, NEB, NEB-TS, Multilevel


 Your calculation uses the libint2 library for the computation of 2-el integrals
 For citations please refer to: http://libint.valeyev.net

 This ORCA versions uses:
   CBLAS   interface :  Fast vector & matrix operations
   LAPACKE interface :  Fast linear algebra routines
   SCALAPACK package :  Parallel linear algebra routines


Your calculation utilizes the atom-pairwise dispersion correction
with the zero-damping scheme (D30)
Cite in your paper:
S.Grimme, J.Antony, S.Ehrlich and H.Krieg, J.Chem.Phys., 132, (2010), 154104 
   

XCFun DFT library Copyright 2009-2010 Ulf Ekstrom and contributors.
See http://admol.org/xcfun for more information. This is free soft-
ware; see the source code for copying conditions. There is ABSOLUTELY
NO WARRANTY; not even for MERCHANTABILITY or FITNESS FOR A PARTICULAR
PURPOSE. For details see the documentation. Scientific users of this 
library should cite U. Ekstrom, L. Visscher, R. Bast, A. J. Thorvald-
sen and K. Ruud; J.Chem.Theor.Comp. 2010, DOI: 10.1021/ct100117s
XCFun Version 0.99 
----- Orbital basis set information -----
Your calculation utilizes the basis: def2-TZVP
   F. Weigend and R. Ahlrichs, Phys. Chem. Chem. Phys. 7, 3297 (2005).

================================================================================
                                        WARNINGS
                       Please study these warnings very carefully!
================================================================================


WARNING: Geometry Optimization
  ===> : Switching off AutoStart
         For restart on a previous wavefunction, please use MOREAD

INFO   : the flag for use of LIBINT has been found!

================================================================================
                                       INPUT FILE
================================================================================
NAME = bonds_angles_[1[6[8][1][1]]]-[6[8[1]][1][1][1]]-[1[6[8][1][1]]]_4.in
|  1> #Run DFT geometry optimization
|  2> ! wB97X-D3 def2-TZVP TIGHTSCF Grid5 FinalGrid6 Opt CHELPG PAL4
|  3> 
|  4> %base "4_geo_opt"
|  5> %geom MaxIter 500
|  6> end
|  7> 
|  8> %geom
|  9>   Constraints
| 10>     { A 5 0 4 C }
| 11>   end
| 12> end
| 13> 
| 14> 
| 15> * xyz 0 1
| 16>   C                    3.011308             -1.180897            0.598492            
| 17>   O                    4.394673             -1.128050            0.874308            
| 18>   H                    4.772196             -0.379022            0.412493            
| 19>   H                    2.806434             -1.318965            -0.469350           
| 20>   H                    2.612228             -2.040836            1.135427            
| 21>   H                    2.485278             -0.283955            0.945062            
| 22> *
| 23> 
| 24>                          ****END OF INPUT****
================================================================================

                       *****************************
                       * Geometry Optimization Run *
                       *****************************

Geometry optimization settings:
Update method            Update   .... BFGS
Choice of coordinates    CoordSys .... Z-matrix Internals
Initial Hessian          InHess   .... Almoef's Model

Convergence Tolerances:
Energy Change            TolE     ....  5.0000e-06 Eh
Max. Gradient            TolMAXG  ....  3.0000e-04 Eh/bohr
RMS Gradient             TolRMSG  ....  1.0000e-04 Eh/bohr
Max. Displacement        TolMAXD  ....  4.0000e-03 bohr
RMS Displacement         TolRMSD  ....  2.0000e-03 bohr

------------------------------------------------------------------------------
                        ORCA OPTIMIZATION COORDINATE SETUP
------------------------------------------------------------------------------

The optimization will be done in new redundant internal coordinates
Making redundant internal coordinates   ...  (new redundants) done
Evaluating the initial hessian          ...  (Almloef) done
Evaluating the coordinates              ...  done
Calculating the B-matrix                .... done
Calculating the G-matrix                .... done
Diagonalizing the G-matrix              .... done
Imposing constraints:
 Iter   0:  RMS(Cart)=    0.0000000000 RMS(Int)=    0.0000000000
CONVERGED
The first mode is                       ....    3
The number of degrees of freedom        ....   12
Storing new coordinates                 .... done

    -----------------------------------------------------------------
                    Redundant Internal Coordinates


    -----------------------------------------------------------------
         Definition                    Initial Value    Approx d2E/dq
    -----------------------------------------------------------------
      1. B(O   1,C   0)                  1.4116         0.516942   
      2. B(H   2,O   1)                  0.9575         0.524720   
      3. B(H   3,C   0)                  1.0960         0.352187   
      4. B(H   4,C   0)                  1.0895         0.360732   
      5. B(H   5,C   0)                  1.0960         0.352186   
      6. A(O   1,C   0,H   4)          106.9910         0.340286   
      7. A(O   1,C   0,H   3)          112.2263         0.338926   
      8. A(O   1,C   0,H   5)          112.2048         0.338926   
      9. A(H   3,C   0,H   5)          108.7499         0.288819   
     10. A(H   4,C   0,H   5)          108.3173         0.289907 C 
     11. A(H   3,C   0,H   4)          108.1944         0.289907   
     12. A(C   0,O   1,H   2)          108.7499         0.359342   
     13. D(H   2,O   1,C   0,H   5)    -61.3827         0.021176   
     14. D(H   2,O   1,C   0,H   3)     61.4271         0.021176   
     15. D(H   2,O   1,C   0,H   4)    179.9533         0.021176   
    -----------------------------------------------------------------

Number of atoms                         .... 6
Number of degrees of freedom            .... 15

         *************************************************************
         *                GEOMETRY OPTIMIZATION CYCLE   1            *
         *************************************************************
---------------------------------
CARTESIAN COORDINATES (ANGSTROEM)
---------------------------------
  C      3.011308   -1.180897    0.598492
  O      4.394673   -1.128050    0.874308
  H      4.772196   -0.379022    0.412493
  H      2.806434   -1.318965   -0.469350
  H      2.612228   -2.040836    1.135427
  H      2.485278   -0.283955    0.945062

----------------------------
CARTESIAN COORDINATES (A.U.)
----------------------------
  NO LB      ZA    FRAG     MASS         X           Y           Z
   0 C     6.0000    0    12.011    5.690547   -2.231572    1.130986
   1 O     8.0000    0    15.999    8.304728   -2.131706    1.652203
   2 H     1.0000    0     1.008    9.018143   -0.716248    0.779499
   3 H     1.0000    0     1.008    5.303392   -2.492483   -0.886943
   4 H     1.0000    0     1.008    4.936396   -3.856621    2.145646
   5 H     1.0000    0     1.008    4.696495   -0.536597    1.785908

--------------------------------
INTERNAL COORDINATES (ANGSTROEM)
--------------------------------
 C      0   0   0     0.000000000000     0.00000000     0.00000000
 O      1   0   0     1.411582797603     0.00000000     0.00000000
 H      2   1   0     0.957517443464   108.74989122     0.00000000
 H      1   2   3     1.096048660172   112.22633944    61.42708393
 H      1   2   3     1.089522429483   106.99103414   179.95331772
 H      1   2   3     1.096048939219   112.20478573   298.61730308

---------------------------
INTERNAL COORDINATES (A.U.)
---------------------------
 C      0   0   0     0.000000000000     0.00000000     0.00000000
 O      1   0   0     2.667504902825     0.00000000     0.00000000
 H      2   1   0     1.809445736600   108.74989122     0.00000000
 H      1   2   3     2.071231797176   112.22633944    61.42708393
 H      1   2   3     2.058899008487   106.99103414   179.95331772
 H      1   2   3     2.071232324500   112.20478573   298.61730308

---------------------
BASIS SET INFORMATION
---------------------
There are 3 groups of distinct atoms

 Group   1 Type C   : 11s6p2d1f contracted to 5s3p2d1f pattern {62111/411/11/1}
 Group   2 Type O   : 11s6p2d1f contracted to 5s3p2d1f pattern {62111/411/11/1}
 Group   3 Type H   : 5s1p contracted to 3s1p pattern {311/1}

Atom   0C    basis set group =>   1
Atom   1O    basis set group =>   2
Atom   2H    basis set group =>   3
Atom   3H    basis set group =>   3
Atom   4H    basis set group =>   3
Atom   5H    basis set group =>   3


           ************************************************************
           *        Program running with 4 parallel MPI-processes     *
           *              working on a common directory               *
           ************************************************************
------------------------------------------------------------------------------
                           ORCA GTO INTEGRAL CALCULATION
------------------------------------------------------------------------------

                         BASIS SET STATISTICS AND STARTUP INFO

 # of primitive gaussian shells          ...   64
 # of primitive gaussian functions       ...  124
 # of contracted shells                  ...   38
 # of contracted basis functions         ...   86
 Highest angular momentum                ...    3
 Maximum contraction depth               ...    6
 Integral package used                   ... LIBINT
 Integral threshhold            Thresh   ...  2.500e-11
 Primitive cut-off              TCut     ...  2.500e-12


------------------------------ INTEGRAL EVALUATION ----------------------------


 * One electron integrals 
 Pre-screening matrix                    ... done
 Shell pair data                         ... done (   0.000 sec)



           ************************************************************
           *        Program running with 4 parallel MPI-processes     *
           *              working on a common directory               *
           ************************************************************
-------------------------------------------------------------------------------
                                 ORCA SCF
-------------------------------------------------------------------------------

------------
SCF SETTINGS
------------
Hamiltonian:
 Density Functional     Method          .... DFT(GTOs)
 Exchange Functional    Exchange        .... WB97X-D3
 Correlation Functional Correlation     .... WB97X-D3
 Gradients option       PostSCFGGA      .... off
 Hybrid DFT is turned on
   Fraction HF Exchange ScalHFX         ....  0.195728
   Scaling of DF-GGA-X  ScalDFX         ....  0.000000
   Scaling of DF-GGA-C  ScalDFC         ....  1.000000
   Scaling of DF-LDA-C  ScalLDAC        ....  1.000000
   Perturbative correction              ....  0.000000
   Density functional embedding theory  .... OFF
 Long-range corrected/Screened/Range-Separated Hybrid DFT is turned on
   Amount of maximum screened exact exchange              ....  0.804272
   Range separation parameter mu (erf(mu*r12)/r12)        ....  0.250000


General Settings:
 Integral files         IntName         .... 4_geo_opt
 Hartree-Fock type      HFTyp           .... RHF
 Total Charge           Charge          ....    0
 Multiplicity           Mult            ....    1
 Number of Electrons    NEL             ....   18
 Basis Dimension        Dim             ....   86
 Nuclear Repulsion      ENuc            ....     40.4387637258 Eh

Convergence Acceleration:
 DIIS                   CNVDIIS         .... on
   Start iteration      DIISMaxIt       ....    12
   Startup error        DIISStart       ....  0.200000
   # of expansion vecs  DIISMaxEq       ....     5
   Bias factor          DIISBfac        ....   1.050
   Max. coefficient     DIISMaxC        ....  10.000
 Newton-Raphson         CNVNR           .... off
 SOSCF                  CNVSOSCF        .... on
   Start iteration      SOSCFMaxIt      ....   150
   Startup grad/error   SOSCFStart      ....  0.003300
 Level Shifting         CNVShift        .... on
   Level shift para.    LevelShift      ....    0.2500
   Turn off err/grad.   ShiftErr        ....    0.0010
 Zerner damping         CNVZerner       .... off
 Static damping         CNVDamp         .... on
   Fraction old density DampFac         ....    0.7000
   Max. Damping (<1)    DampMax         ....    0.9800
   Min. Damping (>=0)   DampMin         ....    0.0000
   Turn off err/grad.   DampErr         ....    0.1000
 Fernandez-Rico         CNVRico         .... off

SCF Procedure:
 Maximum # iterations   MaxIter         ....   125
 SCF integral mode      SCFMode         .... Direct
   Integral package                     .... LIBINT
 Reset frequency        DirectResetFreq ....    20
 Integral Threshold     Thresh          ....  2.500e-11 Eh
 Primitive CutOff       TCut            ....  2.500e-12 Eh

Convergence Tolerance:
 Convergence Check Mode ConvCheckMode   .... Total+1el-Energy
 Convergence forced     ConvForced      .... 0
 Energy Change          TolE            ....  1.000e-08 Eh
 1-El. energy change                    ....  1.000e-05 Eh
 Orbital Gradient       TolG            ....  1.000e-05
 Orbital Rotation angle TolX            ....  1.000e-05
 DIIS Error             TolErr          ....  5.000e-07


Diagonalization of the overlap matrix:
Smallest eigenvalue                        ... 1.650e-03
Time for diagonalization                   ...    0.183 sec
Threshold for overlap eigenvalues          ... 1.000e-08
Number of eigenvalues below threshold      ... 0
Time for construction of square roots      ...    0.005 sec
Total time needed                          ...    0.188 sec

-------------------
DFT GRID GENERATION
-------------------

General Integration Accuracy     IntAcc      ...  5.010
Radial Grid Type                 RadialGrid  ... Gauss-Chebyshev
Angular Grid (max. acc.)         AngularGrid ... Lebedev-434
Angular grid pruning method      GridPruning ... 3 (G Style)
Weight generation scheme         WeightScheme... Becke
Basis function cutoff            BFCut       ...    1.0000e-11
Integration weight cutoff        WCut        ...    1.0000e-14
Grids for H and He will be reduced by one unit

# of grid points (after initial pruning)     ...  48308 (   0.0 sec)
# of grid points (after weights+screening)   ...  46674 (   0.0 sec)
nearest neighbour list constructed           ...    0.0 sec
Grid point re-assignment to atoms done       ...    0.0 sec
Grid point division into batches done        ...    0.3 sec
Reduced shell lists constructed in    0.4 sec

Total number of grid points                  ...    46674
Total number of batches                      ...      733
Average number of points per batch           ...       63
Average number of grid points per atom       ...     7779
Average number of shells per batch           ...    33.11 (87.14%)
Average number of basis functions per batch  ...    76.78 (89.28%)
Average number of large shells per batch     ...    30.64 (92.52%)
Average number of large basis fcns per batch ...    72.29 (94.16%)
Maximum spatial batch extension              ...  15.77, 14.98, 16.58 au
Average spatial batch extension              ...   0.40,  0.40,  0.43 au

Time for grid setup =    0.435 sec

------------------------------
INITIAL GUESS: MODEL POTENTIAL
------------------------------
Loading Hartree-Fock densities                     ... done
Calculating cut-offs                               ... done
Setting up the integral package                    ... done
Initializing the effective Hamiltonian             ... done
Starting the Coulomb interaction                   ... done (   0.0 sec)
Reading the grid                                   ... done
Mapping shells                                     ... done
Starting the XC term evaluation                    ... done (   0.1 sec)
  promolecular density results
     # of electrons  =     17.998045200
     EX              =    -14.430292952
     EC              =     -0.575120600
     EX+EC           =    -15.005413553
Transforming the Hamiltonian                       ... done (   0.0 sec)
Diagonalizing the Hamiltonian                      ... done (   0.0 sec)
Back transforming the eigenvectors                 ... done (   0.0 sec)
Now organizing SCF variables                       ... done
                      ------------------
                      INITIAL GUESS DONE (   0.6 sec)
                      ------------------
--------------
SCF ITERATIONS
--------------
ITER       Energy         Delta-E        Max-DP      RMS-DP      [F,P]     Damp
               ***  Starting incremental Fock matrix formation  ***
  0   -115.6511961077   0.000000000000 0.03697128  0.00147482  0.2523887 0.7000
  1   -115.6882699243  -0.037073816635 0.02203224  0.00104088  0.1262671 0.7000
                               ***Turning on DIIS***
  2   -115.7053363933  -0.017066468980 0.03156760  0.00188124  0.0491020 0.0000
  3   -115.7330761486  -0.027739755282 0.01774172  0.00068030  0.0611356 0.0000
  4   -115.7376011789  -0.004525030305 0.00406564  0.00013181  0.0065561 0.0000
                      *** Initiating the SOSCF procedure ***
                           *** Shutting down DIIS ***
                      *** Re-Reading the Fockian *** 
                      *** Removing any level shift *** 
ITER      Energy       Delta-E        Grad      Rot      Max-DP    RMS-DP
  5   -115.73769538  -0.0000942037  0.000490  0.000490  0.000678  0.000043
               *** Restarting incremental Fock matrix formation ***
  6   -115.73770353  -0.0000081435  0.000152  0.000203  0.000490  0.000026
  7   -115.73770425  -0.0000007224  0.000056  0.000109  0.000208  0.000011
  8   -115.73770431  -0.0000000575  0.000019  0.000017  0.000030  0.000001
  9   -115.73770431  -0.0000000055  0.000011  0.000008  0.000015  0.000001
 10   -115.73770431  -0.0000000015  0.000003  0.000003  0.000003  0.000000
                  ***Gradient check signals convergence***
              ***Rediagonalizing the Fockian in SOSCF/NRSCF***

               *****************************************************
               *                     SUCCESS                       *
               *           SCF CONVERGED AFTER  11 CYCLES          *
               *****************************************************

Setting up the final grid:

General Integration Accuracy     IntAcc      ...  5.340
Radial Grid Type                 RadialGrid  ... Gauss-Chebyshev
Angular Grid (max. acc.)         AngularGrid ... Lebedev-590
Angular grid pruning method      GridPruning ... 3 (G Style)
Weight generation scheme         WeightScheme... Becke
Basis function cutoff            BFCut       ...    1.0000e-11
Integration weight cutoff        WCut        ...    1.0000e-14
Grids for H and He will be reduced by one unit

# of grid points (after initial pruning)     ...  77324 (   0.0 sec)
# of grid points (after weights+screening)   ...  74512 (   0.0 sec)
nearest neighbour list constructed           ...    0.0 sec
Grid point re-assignment to atoms done       ...    0.0 sec
Grid point division into batches done        ...    0.8 sec
Reduced shell lists constructed in    0.8 sec

Total number of grid points                  ...    74512
Total number of batches                      ...     1167
Average number of points per batch           ...       63
Average number of grid points per atom       ...    12419
Average number of shells per batch           ...    32.94 (86.67%)
Average number of basis functions per batch  ...    76.38 (88.81%)
Average number of large shells per batch     ...    30.31 (92.02%)
Average number of large basis fcns per batch ...    71.50 (93.62%)
Maximum spatial batch extension              ...  13.18, 14.25, 15.48 au
Average spatial batch extension              ...   0.34,  0.36,  0.37 au

Final grid set up in    0.9 sec
Final integration                            ... done (   0.2 sec)
Change in XC energy                          ...    -0.000107576
Integrated number of electrons               ...    18.000000746
Previous integrated no of electrons          ...    18.000002273

----------------
TOTAL SCF ENERGY
----------------

Total Energy       :         -115.73781189 Eh           -3149.38597 eV

Components:
Nuclear Repulsion  :           40.43876373 Eh            1100.39470 eV
Electronic Energy  :         -156.17657561 Eh           -4249.78068 eV
One Electron Energy:         -237.29683685 Eh           -6457.17521 eV
Two Electron Energy:           81.12026124 Eh            2207.39453 eV

Virial components:
Potential Energy   :         -230.98852768 Eh           -6285.51739 eV
Kinetic Energy     :          115.25071579 Eh            3136.13141 eV
Virial Ratio       :            2.00422640


DFT components:
N(Alpha)           :        9.000000372858 electrons
N(Beta)            :        9.000000372858 electrons
N(Total)           :       18.000000745716 electrons
E(XC)              :      -10.655631655566 Eh       
DFET-embed. en.    :        0.000000000000 Eh       

---------------
SCF CONVERGENCE
---------------

  Last Energy change         ...   -4.1439e-11  Tolerance :   1.0000e-08
  Last MAX-Density change    ...    1.8663e-06  Tolerance :   1.0000e-07
  Last RMS-Density change    ...    7.6979e-08  Tolerance :   5.0000e-09
  Last Orbital Gradient      ...    1.3502e-06  Tolerance :   1.0000e-05
  Last Orbital Rotation      ...    7.8047e-07  Tolerance :   1.0000e-05

             **** THE GBW FILE WAS UPDATED (4_geo_opt.gbw) ****
             **** DENSITY FILE WAS UPDATED (4_geo_opt.scfp.tmp) ****
             **** ENERGY FILE WAS UPDATED (4_geo_opt.en.tmp) ****
----------------
ORBITAL ENERGIES
----------------

  NO   OCC          E(Eh)            E(eV) 
   0   2.0000     -19.228066      -523.2223 
   1   2.0000     -10.315117      -280.6886 
   2   2.0000      -1.136795       -30.9338 
   3   2.0000      -0.795330       -21.6420 
   4   2.0000      -0.611607       -16.6427 
   5   2.0000      -0.541750       -14.7418 
   6   2.0000      -0.526317       -14.3218 
   7   2.0000      -0.433832       -11.8052 
   8   2.0000      -0.373582       -10.1657 
   9   0.0000       0.116629         3.1736 
  10   0.0000       0.156706         4.2642 
  11   0.0000       0.202550         5.5117 
  12   0.0000       0.205102         5.5811 
  13   0.0000       0.226387         6.1603 
  14   0.0000       0.304306         8.2806 
  15   0.0000       0.313316         8.5258 
  16   0.0000       0.404510        11.0073 
  17   0.0000       0.452628        12.3166 
  18   0.0000       0.485049        13.1989 
  19   0.0000       0.535819        14.5804 
  20   0.0000       0.543608        14.7923 
  21   0.0000       0.567680        15.4474 
  22   0.0000       0.598547        16.2873 
  23   0.0000       0.603424        16.4200 
  24   0.0000       0.671347        18.2683 
  25   0.0000       0.779108        21.2006 
  26   0.0000       0.832260        22.6470 
  27   0.0000       0.861267        23.4363 
  28   0.0000       0.989531        26.9265 
  29   0.0000       1.013929        27.5904 
  30   0.0000       1.109777        30.1986 
  31   0.0000       1.382665        37.6242 
  32   0.0000       1.512778        41.1648 
  33   0.0000       1.553548        42.2742 
  34   0.0000       1.602894        43.6170 
  35   0.0000       1.613110        43.8949 
  36   0.0000       1.623993        44.1911 
  37   0.0000       1.660425        45.1825 
  38   0.0000       1.688053        45.9343 
  39   0.0000       1.774512        48.2869 
  40   0.0000       1.952085        53.1189 
  41   0.0000       2.030721        55.2587 
  42   0.0000       2.055145        55.9233 
  43   0.0000       2.094363        56.9905 
  44   0.0000       2.114696        57.5438 
  45   0.0000       2.268524        61.7297 
  46   0.0000       2.333537        63.4988 
  47   0.0000       2.345414        63.8220 
  48   0.0000       2.380917        64.7880 
  49   0.0000       2.429632        66.1137 
  50   0.0000       2.497307        67.9552 
  51   0.0000       2.596526        70.6551 
  52   0.0000       2.639677        71.8293 
  53   0.0000       2.707222        73.6672 
  54   0.0000       2.841706        77.3268 
  55   0.0000       2.871378        78.1342 
  56   0.0000       2.888509        78.6003 
  57   0.0000       2.993044        81.4449 
  58   0.0000       3.096083        84.2487 
  59   0.0000       3.172926        86.3397 
  60   0.0000       3.299653        89.7881 
  61   0.0000       3.408712        92.7558 
  62   0.0000       3.441675        93.6527 
  63   0.0000       3.488131        94.9169 
  64   0.0000       3.612792        98.3091 
  65   0.0000       3.645281        99.1931 
  66   0.0000       3.666821        99.7793 
  67   0.0000       4.005500       108.9952 
  68   0.0000       4.224017       114.9414 
  69   0.0000       4.272936       116.2725 
  70   0.0000       4.455982       121.2534 
  71   0.0000       4.564408       124.2038 
  72   0.0000       5.346099       145.4748 
  73   0.0000       5.425358       147.6315 
  74   0.0000       5.554401       151.1429 
  75   0.0000       5.826130       158.5370 
  76   0.0000       5.834091       158.7537 
  77   0.0000       5.985558       162.8753 
  78   0.0000       6.379625       173.5984 
  79   0.0000       6.531006       177.7177 
  80   0.0000       6.745035       183.5417 
  81   0.0000       6.804069       185.1481 
  82   0.0000       7.039432       191.5527 
  83   0.0000       7.215978       196.3567 
  84   0.0000      22.406068       609.7001 
  85   0.0000      43.664352      1188.1674 

                    ********************************
                    * MULLIKEN POPULATION ANALYSIS *
                    ********************************

-----------------------
MULLIKEN ATOMIC CHARGES
-----------------------
   0 C :   -0.150801
   1 O :   -0.477661
   2 H :    0.312987
   3 H :    0.098593
   4 H :    0.118244
   5 H :    0.098639
Sum of atomic charges:   -0.0000000

--------------------------------
MULLIKEN REDUCED ORBITAL CHARGES
--------------------------------
  0 C s       :     3.223140  s :     3.223140
      pz      :     1.047353  p :     2.825998
      px      :     0.702178
      py      :     1.076468
      dz2     :     0.011121  d :     0.094241
      dxz     :     0.032481
      dyz     :     0.002635
      dx2y2   :     0.012761
      dxy     :     0.035244
      f0      :     0.001356  f :     0.007421
      f+1     :     0.000956
      f-1     :     0.000175
      f+2     :     0.001465
      f-2     :     0.000122
      f+3     :     0.001360
      f-3     :     0.001987
  1 O s       :     3.792781  s :     3.792781
      pz      :     1.759382  p :     4.652616
      px      :     1.313653
      py      :     1.579582
      dz2     :     0.003136  d :     0.030579
      dxz     :     0.006479
      dyz     :     0.005835
      dx2y2   :     0.008936
      dxy     :     0.006193
      f0      :     0.000269  f :     0.001685
      f+1     :     0.000233
      f-1     :     0.000087
      f+2     :     0.000287
      f-2     :     0.000235
      f+3     :     0.000367
      f-3     :     0.000206
  2 H s       :     0.639321  s :     0.639321
      pz      :     0.017006  p :     0.047692
      px      :     0.012720
      py      :     0.017966
  3 H s       :     0.882042  s :     0.882042
      pz      :     0.012072  p :     0.019364
      px      :     0.003008
      py      :     0.004285
  4 H s       :     0.861538  s :     0.861538
      pz      :     0.006294  p :     0.020218
      px      :     0.004189
      py      :     0.009735
  5 H s       :     0.882000  s :     0.882000
      pz      :     0.004926  p :     0.019361
      px      :     0.004972
      py      :     0.009464


                     *******************************
                     * LOEWDIN POPULATION ANALYSIS *
                     *******************************

----------------------
LOEWDIN ATOMIC CHARGES
----------------------
   0 C :   -0.385119
   1 O :   -0.076129
   2 H :    0.165768
   3 H :    0.093381
   4 H :    0.108701
   5 H :    0.093398

-------------------------------
LOEWDIN REDUCED ORBITAL CHARGES
-------------------------------
  0 C s       :     2.862977  s :     2.862977
      pz      :     1.096727  p :     3.052182
      px      :     0.846064
      py      :     1.109391
      dz2     :     0.072444  d :     0.412931
      dxz     :     0.113999
      dyz     :     0.020685
      dx2y2   :     0.082206
      dxy     :     0.123597
      f0      :     0.007823  f :     0.057029
      f+1     :     0.007164
      f-1     :     0.000855
      f+2     :     0.012533
      f-2     :     0.004819
      f+3     :     0.011735
      f-3     :     0.012100
  1 O s       :     3.366284  s :     3.366284
      pz      :     1.699027  p :     4.633628
      px      :     1.381211
      py      :     1.553391
      dz2     :     0.006134  d :     0.071571
      dxz     :     0.017866
      dyz     :     0.008086
      dx2y2   :     0.019339
      dxy     :     0.020147
      f0      :     0.000483  f :     0.004645
      f+1     :     0.000623
      f-1     :     0.000072
      f+2     :     0.001050
      f-2     :     0.000560
      f+3     :     0.000890
      f-3     :     0.000966
  2 H s       :     0.675150  s :     0.675150
      pz      :     0.055755  p :     0.159082
      px      :     0.033906
      py      :     0.069420
  3 H s       :     0.846795  s :     0.846795
      pz      :     0.036182  p :     0.059824
      px      :     0.009715
      py      :     0.013927
  4 H s       :     0.831708  s :     0.831708
      pz      :     0.019204  p :     0.059591
      px      :     0.011597
      py      :     0.028790
  5 H s       :     0.846781  s :     0.846781
      pz      :     0.015598  p :     0.059821
      px      :     0.015192
      py      :     0.029031


                      *****************************
                      * MAYER POPULATION ANALYSIS *
                      *****************************

  NA   - Mulliken gross atomic population
  ZA   - Total nuclear charge
  QA   - Mulliken gross atomic charge
  VA   - Mayer's total valence
  BVA  - Mayer's bonded valence
  FA   - Mayer's free valence

  ATOM       NA         ZA         QA         VA         BVA        FA
  0 C      6.1508     6.0000    -0.1508     3.9349     3.9349    -0.0000
  1 O      8.4777     8.0000    -0.4777     1.8880     1.8880    -0.0000
  2 H      0.6870     1.0000     0.3130     0.9136     0.9136    -0.0000
  3 H      0.9014     1.0000     0.0986     0.9596     0.9596    -0.0000
  4 H      0.8818     1.0000     0.1182     0.9598     0.9598    -0.0000
  5 H      0.9014     1.0000     0.0986     0.9596     0.9596     0.0000

  Mayer bond orders larger than 0.1
B(  0-C ,  1-O ) :   0.9986 B(  0-C ,  3-H ) :   0.9755 B(  0-C ,  4-H ) :   0.9749 
B(  0-C ,  5-H ) :   0.9755 B(  1-O ,  2-H ) :   0.9002 

-------
TIMINGS
-------

Total SCF time: 0 days 0 hours 0 min 8 sec 

Total time                  ....       8.973 sec
Sum of individual times     ....       8.408 sec  ( 93.7%)

Fock matrix formation       ....       6.831 sec  ( 76.1%)
  XC integration            ....       1.914 sec  ( 28.0% of F)
    Basis function eval.    ....       0.408 sec  ( 21.3% of XC)
    Density eval.           ....       0.264 sec  ( 13.8% of XC)
    XC-Functional eval.     ....       0.666 sec  ( 34.8% of XC)
    XC-Potential eval.      ....       0.265 sec  ( 13.9% of XC)
Diagonalization             ....       0.019 sec  (  0.2%)
Density matrix formation    ....       0.002 sec  (  0.0%)
Population analysis         ....       0.016 sec  (  0.2%)
Initial guess               ....       0.167 sec  (  1.9%)
Orbital Transformation      ....       0.000 sec  (  0.0%)
Orbital Orthonormalization  ....       0.000 sec  (  0.0%)
DIIS solution               ....       0.012 sec  (  0.1%)
SOSCF solution              ....       0.026 sec  (  0.3%)
Grid generation             ....       1.335 sec  ( 14.9%)


-------------------------------------------------------------------------------
                          DFT DISPERSION CORRECTION                            
                                                                               
                              DFTD3 V3.1  Rev 1                                
                              USING zero damping                               
-------------------------------------------------------------------------------
The omegaB97X-D3 functional is recognized. Fit by Chai et al.
Active option DFTDOPT                   ...         3   

molecular C6(AA) [au] = 208.715681 


            DFT-D V3
 parameters
 s6 scaling factor         :     1.0000 
 rs6 scaling factor        :     1.2810 
 s8 scaling factor         :     1.0000 
 rs8 scaling factor        :     1.0940 
 Damping factor alpha6     :    14.0000 
 Damping factor alpha8     :    16.0000 
 ad hoc parameters k1-k3   :    16.0000     1.3333    -4.0000 

 Edisp/kcal,au: -0.150071322668  -0.000239153850 
 E6   /kcal   :  -0.029589419 
 E8   /kcal   :  -0.120481904 
 % E8         :  80.283095808 

-------------------------   ----------------
Dispersion correction           -0.000239154
-------------------------   ----------------


-------------------------   --------------------
FINAL SINGLE POINT ENERGY      -115.738051042366
-------------------------   --------------------



           ************************************************************
           *        Program running with 4 parallel MPI-processes     *
           *              working on a common directory               *
           ************************************************************
------------------------------------------------------------------------------
                         ORCA SCF GRADIENT CALCULATION
------------------------------------------------------------------------------

Gradient of the Kohn-Sham DFT energy:
Kohn-Sham wavefunction type      ... RKS
Hartree-Fock exchange scaling    ...    0.196
Number of operators              ...    1
Number of atoms                  ...    6
Basis set dimensions             ...   86
Integral neglect threshold       ... 2.5e-11
Integral primitive cutoff        ... 2.5e-12

Nuclear repulsion gradient       ... done
One Electron Gradient            ... done
Pre-screening matrix             ... done
Starting the two electron gradient:
Two electron gradient done
Exchange-correlation gradient    ... done
Dispersion correction            ... done

------------------
CARTESIAN GRADIENT
------------------

   1   C   :   -0.000186322    0.000035011    0.000050454
   2   O   :   -0.000015688   -0.000038838    0.000046727
   3   H   :   -0.000006357    0.000012292   -0.000009841
   4   H   :   -0.000008592    0.000006902    0.000025537
   5   H   :    0.000130884   -0.000113747   -0.000043102
   6   H   :    0.000086074    0.000098380   -0.000069774

Difference to translation invariance:
           :    0.0000000000   -0.0000000000    0.0000000000

Norm of the cartesian gradient     ...    0.0003120414
RMS gradient                       ...    0.0000735489
MAX gradient                       ...    0.0001863218

-------
TIMINGS
-------

Total SCF gradient time            ...        1.743 sec

One electron gradient       ....       0.004 sec  (  0.2%)
Prescreening matrices       ....       0.024 sec  (  1.4%)
Two electron gradient       ....       0.840 sec  ( 48.2%)
XC gradient                 ....       0.559 sec  ( 32.1%)
------------------------------------------------------------------------------
                         ORCA GEOMETRY RELAXATION STEP
------------------------------------------------------------------------------

Reading the OPT-File                    .... done
Getting information on internals        .... done
Copying old internal coords+grads       .... done
Making the new internal coordinates     .... (new redundants).... done
Validating the new internal coordinates .... (new redundants).... done
Calculating the B-matrix                .... done
Calculating the G,G- and P matrices     .... done
Transforming gradient to internals      .... done
Projecting the internal gradient        .... done
Number of atoms                         ....   6
Number of internal coordinates          ....  15
Current Energy                          ....  -115.738051042 Eh
Current gradient norm                   ....     0.000312041 Eh/bohr
Maximum allowed component of the step   ....  0.300
Current trust radius                    ....  0.300
Evaluating the initial hessian          ....  (Almloef) done
Projecting the Hessian                  .... done
Forming the augmented Hessian           .... done
Diagonalizing the augmented Hessian     .... done
Last element of RFO vector              ....  0.999999932
Lowest eigenvalues of augmented Hessian:
 -0.000000039  0.021176451  0.184513058  0.268534601  0.324334502
Length of the computed step             ....  0.000367708
The final length of the internal step   ....  0.000367708
Converting the step to cartesian space:
 Initial RMS(Int)=    0.0000949419
Transforming coordinates:
 Iter   0:  RMS(Cart)=    0.0000919174 RMS(Int)=    0.0000949420
 Iter   1:  RMS(Cart)=    0.0000000090 RMS(Int)=    0.0000000095
Imposing constraints:
 Iter   0:  RMS(Cart)=    0.0000000035 RMS(Int)=    0.0000000069
CONVERGED
done
Storing new coordinates                 .... done

                                .--------------------.
          ----------------------|Geometry convergence|-------------------------
          Item                value                   Tolerance       Converged
          ---------------------------------------------------------------------
          RMS gradient        0.0000275273            0.0001000000      YES
          MAX gradient        0.0000716499            0.0003000000      YES
          RMS step            0.0000949419            0.0020000000      YES
          MAX step            0.0002531475            0.0040000000      YES
          ........................................................
          Max(Bonds)      0.0000      Max(Angles)    0.01
          Max(Dihed)        0.01      Max(Improp)    0.00
          ---------------------------------------------------------------------

                    ***********************HURRAY********************
                    ***        THE OPTIMIZATION HAS CONVERGED     ***
                    *************************************************


    ---------------------------------------------------------------------------
                         Redundant Internal Coordinates

                          --- Optimized Parameters ---  
                            (Angstroem and degrees)

        Definition                    OldVal   dE/dq     Step     FinalVal
    ----------------------------------------------------------------------------
     1. B(O   1,C   0)                1.4116 -0.000015  0.0000    1.4116   
     2. B(H   2,O   1)                0.9575  0.000011 -0.0000    0.9575   
     3. B(H   3,C   0)                1.0960 -0.000024  0.0000    1.0961   
     4. B(H   4,C   0)                1.0895  0.000020 -0.0000    1.0895   
     5. B(H   5,C   0)                1.0960  0.000017 -0.0000    1.0960   
     6. A(O   1,C   0,H   4)          106.99 -0.000147    0.01    107.01   
     7. A(O   1,C   0,H   3)          112.23  0.000022   -0.01    112.22   
     8. A(O   1,C   0,H   5)          112.20 -0.000079    0.00    112.21   
     9. A(H   3,C   0,H   5)          108.75 -0.000005   -0.00    108.75   
    10. A(H   4,C   0,H   5)          108.32  0.000214    0.00    108.32 C 
    11. A(H   3,C   0,H   4)          108.19  0.000005   -0.00    108.19   
    12. A(C   0,O   1,H   2)          108.75 -0.000021    0.00    108.75   
    13. D(H   2,O   1,C   0,H   5)    -61.38  0.000058    0.01    -61.38   
    14. D(H   2,O   1,C   0,H   3)     61.43  0.000009   -0.00     61.42   
    15. D(H   2,O   1,C   0,H   4)    179.95 -0.000066   -0.00    179.95   
    ----------------------------------------------------------------------------
                 *******************************************************
                 *** FINAL ENERGY EVALUATION AT THE STATIONARY POINT ***
                 ***               (AFTER    1 CYCLES)               ***
                 *******************************************************
---------------------------------
CARTESIAN COORDINATES (ANGSTROEM)
---------------------------------
  C      3.011319   -1.180924    0.598581
  O      4.394722   -1.128013    0.874275
  H      4.772217   -0.378998    0.412440
  H      2.806495   -1.318958   -0.469312
  H      2.612098   -2.040840    1.135388
  H      2.485266   -0.283992    0.945060

----------------------------
CARTESIAN COORDINATES (A.U.)
----------------------------
  NO LB      ZA    FRAG     MASS         X           Y           Z
   0 C     6.0000    0    12.011    5.690568   -2.231623    1.131154
   1 O     8.0000    0    15.999    8.304820   -2.131636    1.652140
   2 H     1.0000    0     1.008    9.018183   -0.716202    0.779399
   3 H     1.0000    0     1.008    5.303507   -2.492469   -0.886871
   4 H     1.0000    0     1.008    4.936150   -3.856628    2.145572
   5 H     1.0000    0     1.008    4.696473   -0.536667    1.785905

--------------------------------
INTERNAL COORDINATES (ANGSTROEM)
--------------------------------
 C      0   0   0     0.000000000000     0.00000000     0.00000000
 O      1   0   0     1.411598208171     0.00000000     0.00000000
 H      2   1   0     0.957506065944   108.75321439     0.00000000
 H      1   2   3     1.096084566685   112.21848496    61.42331618
 H      1   2   3     1.089492434941   107.00553783   179.94881234
 H      1   2   3     1.096023237351   112.20754968   298.62354961

---------------------------
INTERNAL COORDINATES (A.U.)
---------------------------
 C      0   0   0     0.000000000000     0.00000000     0.00000000
 O      1   0   0     2.667534024577     0.00000000     0.00000000
 H      2   1   0     1.809424236203   108.75321439     0.00000000
 H      1   2   3     2.071299650652   112.21848496    61.42331618
 H      1   2   3     2.058842327017   107.00553783   179.94881234
 H      1   2   3     2.071183755008   112.20754968   298.62354961

---------------------
BASIS SET INFORMATION
---------------------
There are 3 groups of distinct atoms

 Group   1 Type C   : 11s6p2d1f contracted to 5s3p2d1f pattern {62111/411/11/1}
 Group   2 Type O   : 11s6p2d1f contracted to 5s3p2d1f pattern {62111/411/11/1}
 Group   3 Type H   : 5s1p contracted to 3s1p pattern {311/1}

Atom   0C    basis set group =>   1
Atom   1O    basis set group =>   2
Atom   2H    basis set group =>   3
Atom   3H    basis set group =>   3
Atom   4H    basis set group =>   3
Atom   5H    basis set group =>   3


           ************************************************************
           *        Program running with 4 parallel MPI-processes     *
           *              working on a common directory               *
           ************************************************************
------------------------------------------------------------------------------
                           ORCA GTO INTEGRAL CALCULATION
------------------------------------------------------------------------------

                         BASIS SET STATISTICS AND STARTUP INFO

 # of primitive gaussian shells          ...   64
 # of primitive gaussian functions       ...  124
 # of contracted shells                  ...   38
 # of contracted basis functions         ...   86
 Highest angular momentum                ...    3
 Maximum contraction depth               ...    6
 Integral package used                   ... LIBINT
 Integral threshhold            Thresh   ...  2.500e-11
 Primitive cut-off              TCut     ...  2.500e-12


------------------------------ INTEGRAL EVALUATION ----------------------------


 * One electron integrals 
 Pre-screening matrix                    ... done
 Shell pair data                         ... done (   0.000 sec)



           ************************************************************
           *        Program running with 4 parallel MPI-processes     *
           *              working on a common directory               *
           ************************************************************
-------------------------------------------------------------------------------
                                 ORCA SCF
-------------------------------------------------------------------------------

------------
SCF SETTINGS
------------
Hamiltonian:
 Density Functional     Method          .... DFT(GTOs)
 Exchange Functional    Exchange        .... WB97X-D3
 Correlation Functional Correlation     .... WB97X-D3
 Gradients option       PostSCFGGA      .... off
 Hybrid DFT is turned on
   Fraction HF Exchange ScalHFX         ....  0.195728
   Scaling of DF-GGA-X  ScalDFX         ....  0.000000
   Scaling of DF-GGA-C  ScalDFC         ....  1.000000
   Scaling of DF-LDA-C  ScalLDAC        ....  1.000000
   Perturbative correction              ....  0.000000
   Density functional embedding theory  .... OFF
 Long-range corrected/Screened/Range-Separated Hybrid DFT is turned on
   Amount of maximum screened exact exchange              ....  0.804272
   Range separation parameter mu (erf(mu*r12)/r12)        ....  0.250000


General Settings:
 Integral files         IntName         .... 4_geo_opt
 Hartree-Fock type      HFTyp           .... RHF
 Total Charge           Charge          ....    0
 Multiplicity           Mult            ....    1
 Number of Electrons    NEL             ....   18
 Basis Dimension        Dim             ....   86
 Nuclear Repulsion      ENuc            ....     40.4384952887 Eh

Convergence Acceleration:
 DIIS                   CNVDIIS         .... on
   Start iteration      DIISMaxIt       ....    12
   Startup error        DIISStart       ....  0.200000
   # of expansion vecs  DIISMaxEq       ....     5
   Bias factor          DIISBfac        ....   1.050
   Max. coefficient     DIISMaxC        ....  10.000
 Newton-Raphson         CNVNR           .... off
 SOSCF                  CNVSOSCF        .... on
   Start iteration      SOSCFMaxIt      ....   150
   Startup grad/error   SOSCFStart      ....  0.003300
 Level Shifting         CNVShift        .... on
   Level shift para.    LevelShift      ....    0.2500
   Turn off err/grad.   ShiftErr        ....    0.0010
 Zerner damping         CNVZerner       .... off
 Static damping         CNVDamp         .... on
   Fraction old density DampFac         ....    0.7000
   Max. Damping (<1)    DampMax         ....    0.9800
   Min. Damping (>=0)   DampMin         ....    0.0000
   Turn off err/grad.   DampErr         ....    0.1000
 Fernandez-Rico         CNVRico         .... off

SCF Procedure:
 Maximum # iterations   MaxIter         ....   125
 SCF integral mode      SCFMode         .... Direct
   Integral package                     .... LIBINT
 Reset frequency        DirectResetFreq ....    20
 Integral Threshold     Thresh          ....  2.500e-11 Eh
 Primitive CutOff       TCut            ....  2.500e-12 Eh

Convergence Tolerance:
 Convergence Check Mode ConvCheckMode   .... Total+1el-Energy
 Convergence forced     ConvForced      .... 0
 Energy Change          TolE            ....  1.000e-08 Eh
 1-El. energy change                    ....  1.000e-05 Eh
 Orbital Gradient       TolG            ....  1.000e-05
 Orbital Rotation angle TolX            ....  1.000e-05
 DIIS Error             TolErr          ....  5.000e-07


Diagonalization of the overlap matrix:
Smallest eigenvalue                        ... 1.650e-03
Time for diagonalization                   ...    0.002 sec
Threshold for overlap eigenvalues          ... 1.000e-08
Number of eigenvalues below threshold      ... 0
Time for construction of square roots      ...    0.006 sec
Total time needed                          ...    0.008 sec

---------------------
INITIAL GUESS: MOREAD
---------------------
Guess MOs are being read from file: 4_geo_opt.gbw
Input Geometry matches current geometry (good)
Input basis set matches current basis set (good)
MOs were renormalized
MOs were reorthogonalized (Cholesky)
                      ------------------
                      INITIAL GUESS DONE (   0.0 sec)
                      ------------------
-------------------
DFT GRID GENERATION
-------------------

General Integration Accuracy     IntAcc      ...  5.010
Radial Grid Type                 RadialGrid  ... Gauss-Chebyshev
Angular Grid (max. acc.)         AngularGrid ... Lebedev-434
Angular grid pruning method      GridPruning ... 3 (G Style)
Weight generation scheme         WeightScheme... Becke
Basis function cutoff            BFCut       ...    1.0000e-11
Integration weight cutoff        WCut        ...    1.0000e-14
Grids for H and He will be reduced by one unit

# of grid points (after initial pruning)     ...  48308 (   0.0 sec)
# of grid points (after weights+screening)   ...  46674 (   0.0 sec)
nearest neighbour list constructed           ...    0.0 sec
Grid point re-assignment to atoms done       ...    0.0 sec
Grid point division into batches done        ...    0.3 sec
Reduced shell lists constructed in    0.3 sec

Total number of grid points                  ...    46674
Total number of batches                      ...      733
Average number of points per batch           ...       63
Average number of grid points per atom       ...     7779
Average number of shells per batch           ...    33.10 (87.11%)
Average number of basis functions per batch  ...    76.77 (89.26%)
Average number of large shells per batch     ...    30.60 (92.44%)
Average number of large basis fcns per batch ...    72.20 (94.05%)
Maximum spatial batch extension              ...  15.76, 14.98, 16.58 au
Average spatial batch extension              ...   0.40,  0.40,  0.43 au

Time for grid setup =    0.368 sec

--------------
SCF ITERATIONS
--------------
ITER       Energy         Delta-E        Max-DP      RMS-DP      [F,P]     Damp
               ***  Starting incremental Fock matrix formation  ***
                      *** Initiating the SOSCF procedure ***
                      *** Re-Reading the Fockian *** 
                      *** Removing any level shift *** 
ITER      Energy       Delta-E        Grad      Rot      Max-DP    RMS-DP
  0   -115.73770433 -115.7377043280  0.000009  0.000009  0.000016  0.000001
               *** Restarting incremental Fock matrix formation ***
  1   -115.73770433  -0.0000000047  0.000004  0.000005  0.000006  0.000000
                  ***Gradient check signals convergence***
              ***Rediagonalizing the Fockian in SOSCF/NRSCF***

               *****************************************************
               *                     SUCCESS                       *
               *           SCF CONVERGED AFTER   2 CYCLES          *
               *****************************************************

Setting up the final grid:

General Integration Accuracy     IntAcc      ...  5.340
Radial Grid Type                 RadialGrid  ... Gauss-Chebyshev
Angular Grid (max. acc.)         AngularGrid ... Lebedev-590
Angular grid pruning method      GridPruning ... 3 (G Style)
Weight generation scheme         WeightScheme... Becke
Basis function cutoff            BFCut       ...    1.0000e-11
Integration weight cutoff        WCut        ...    1.0000e-14
Grids for H and He will be reduced by one unit

# of grid points (after initial pruning)     ...  77324 (   0.0 sec)
# of grid points (after weights+screening)   ...  74512 (   0.0 sec)
nearest neighbour list constructed           ...    0.0 sec
Grid point re-assignment to atoms done       ...    0.0 sec
Grid point division into batches done        ...    0.8 sec
Reduced shell lists constructed in    0.8 sec

Total number of grid points                  ...    74512
Total number of batches                      ...     1167
Average number of points per batch           ...       63
Average number of grid points per atom       ...    12419
Average number of shells per batch           ...    32.93 (86.66%)
Average number of basis functions per batch  ...    76.37 (88.80%)
Average number of large shells per batch     ...    30.31 (92.04%)
Average number of large basis fcns per batch ...    71.53 (93.65%)
Maximum spatial batch extension              ...  13.18, 14.25, 15.48 au
Average spatial batch extension              ...   0.34,  0.36,  0.37 au

Final grid set up in    0.9 sec
Final integration                            ... done (   0.2 sec)
Change in XC energy                          ...    -0.000107570
Integrated number of electrons               ...    18.000000746
Previous integrated no of electrons          ...    18.000002273

----------------
TOTAL SCF ENERGY
----------------

Total Energy       :         -115.73781190 Eh           -3149.38597 eV

Components:
Nuclear Repulsion  :           40.43849529 Eh            1100.38740 eV
Electronic Energy  :         -156.17630719 Eh           -4249.77337 eV
One Electron Energy:         -237.29630847 Eh           -6457.16083 eV
Two Electron Energy:           81.12000128 Eh            2207.38746 eV

Virial components:
Potential Energy   :         -230.98851655 Eh           -6285.51708 eV
Kinetic Energy     :          115.25070464 Eh            3136.13111 eV
Virial Ratio       :            2.00422650


DFT components:
N(Alpha)           :        9.000000372940 electrons
N(Beta)            :        9.000000372940 electrons
N(Total)           :       18.000000745880 electrons
E(XC)              :      -10.655633025676 Eh       
DFET-embed. en.    :        0.000000000000 Eh       

---------------
SCF CONVERGENCE
---------------

  Last Energy change         ...   -6.7851e-10  Tolerance :   1.0000e-08
  Last MAX-Density change    ...    3.2772e-06  Tolerance :   1.0000e-07
  Last RMS-Density change    ...    2.2210e-07  Tolerance :   5.0000e-09
  Last Orbital Gradient      ...    1.4924e-06  Tolerance :   1.0000e-05
  Last Orbital Rotation      ...    2.9104e-06  Tolerance :   1.0000e-05

             **** THE GBW FILE WAS UPDATED (4_geo_opt.gbw) ****
             **** DENSITY FILE WAS UPDATED (4_geo_opt.scfp.tmp) ****
             **** ENERGY FILE WAS UPDATED (4_geo_opt.en.tmp) ****
----------------
ORBITAL ENERGIES
----------------

  NO   OCC          E(Eh)            E(eV) 
   0   2.0000     -19.228067      -523.2223 
   1   2.0000     -10.315113      -280.6885 
   2   2.0000      -1.136790       -30.9336 
   3   2.0000      -0.795335       -21.6422 
   4   2.0000      -0.611604       -16.6426 
   5   2.0000      -0.541741       -14.7415 
   6   2.0000      -0.526332       -14.3222 
   7   2.0000      -0.433829       -11.8051 
   8   2.0000      -0.373580       -10.1656 
   9   0.0000       0.116631         3.1737 
  10   0.0000       0.156701         4.2641 
  11   0.0000       0.202563         5.5120 
  12   0.0000       0.205101         5.5811 
  13   0.0000       0.226384         6.1602 
  14   0.0000       0.304321         8.2810 
  15   0.0000       0.313309         8.5256 
  16   0.0000       0.404506        11.0072 
  17   0.0000       0.452632        12.3167 
  18   0.0000       0.485030        13.1983 
  19   0.0000       0.535815        14.5803 
  20   0.0000       0.543615        14.7925 
  21   0.0000       0.567698        15.4479 
  22   0.0000       0.598540        16.2871 
  23   0.0000       0.603443        16.4205 
  24   0.0000       0.671338        18.2680 
  25   0.0000       0.779118        21.2009 
  26   0.0000       0.832247        22.6466 
  27   0.0000       0.861286        23.4368 
  28   0.0000       0.989531        26.9265 
  29   0.0000       1.013909        27.5899 
  30   0.0000       1.109774        30.1985 
  31   0.0000       1.382676        37.6245 
  32   0.0000       1.512778        41.1648 
  33   0.0000       1.553537        42.2739 
  34   0.0000       1.602891        43.6169 
  35   0.0000       1.613093        43.8945 
  36   0.0000       1.624011        44.1916 
  37   0.0000       1.660426        45.1825 
  38   0.0000       1.688063        45.9345 
  39   0.0000       1.774521        48.2872 
  40   0.0000       1.952110        53.1196 
  41   0.0000       2.030661        55.2571 
  42   0.0000       2.055134        55.9230 
  43   0.0000       2.094395        56.9914 
  44   0.0000       2.114660        57.5428 
  45   0.0000       2.268517        61.7295 
  46   0.0000       2.333528        63.4985 
  47   0.0000       2.345437        63.8226 
  48   0.0000       2.380947        64.7889 
  49   0.0000       2.429668        66.1146 
  50   0.0000       2.497332        67.9559 
  51   0.0000       2.596494        70.6542 
  52   0.0000       2.639685        71.8295 
  53   0.0000       2.707267        73.6685 
  54   0.0000       2.841776        77.3287 
  55   0.0000       2.871408        78.1350 
  56   0.0000       2.888434        78.5983 
  57   0.0000       2.993002        81.4437 
  58   0.0000       3.096087        84.2488 
  59   0.0000       3.172917        86.3395 
  60   0.0000       3.299543        89.7851 
  61   0.0000       3.408656        92.7543 
  62   0.0000       3.441771        93.6554 
  63   0.0000       3.488106        94.9162 
  64   0.0000       3.612751        98.3080 
  65   0.0000       3.645310        99.1939 
  66   0.0000       3.666821        99.7793 
  67   0.0000       4.005551       108.9966 
  68   0.0000       4.224049       114.9422 
  69   0.0000       4.272977       116.2736 
  70   0.0000       4.455913       121.2516 
  71   0.0000       4.564419       124.2041 
  72   0.0000       5.346089       145.4745 
  73   0.0000       5.425334       147.6309 
  74   0.0000       5.554415       151.1433 
  75   0.0000       5.826100       158.5362 
  76   0.0000       5.834087       158.7536 
  77   0.0000       5.985527       162.8745 
  78   0.0000       6.379646       173.5990 
  79   0.0000       6.531007       177.7177 
  80   0.0000       6.745009       183.5410 
  81   0.0000       6.804067       185.1481 
  82   0.0000       7.039426       191.5525 
  83   0.0000       7.215967       196.3564 
  84   0.0000      22.406078       609.7004 
  85   0.0000      43.664320      1188.1666 

                    ********************************
                    * MULLIKEN POPULATION ANALYSIS *
                    ********************************

-----------------------
MULLIKEN ATOMIC CHARGES
-----------------------
   0 C :   -0.150810
   1 O :   -0.477666
   2 H :    0.312992
   3 H :    0.098591
   4 H :    0.118250
   5 H :    0.098643
Sum of atomic charges:   -0.0000000

--------------------------------
MULLIKEN REDUCED ORBITAL CHARGES
--------------------------------
  0 C s       :     3.223136  s :     3.223136
      pz      :     1.047368  p :     2.826012
      px      :     0.702176
      py      :     1.076468
      dz2     :     0.011123  d :     0.094241
      dxz     :     0.032481
      dyz     :     0.002634
      dx2y2   :     0.012759
      dxy     :     0.035245
      f0      :     0.001356  f :     0.007420
      f+1     :     0.000956
      f-1     :     0.000175
      f+2     :     0.001465
      f-2     :     0.000122
      f+3     :     0.001360
      f-3     :     0.001986
  1 O s       :     3.792772  s :     3.792772
      pz      :     1.759395  p :     4.652633
      px      :     1.313654
      py      :     1.579584
      dz2     :     0.003136  d :     0.030576
      dxz     :     0.006477
      dyz     :     0.005835
      dx2y2   :     0.008937
      dxy     :     0.006191
      f0      :     0.000269  f :     0.001685
      f+1     :     0.000233
      f-1     :     0.000087
      f+2     :     0.000287
      f-2     :     0.000235
      f+3     :     0.000367
      f-3     :     0.000206
  2 H s       :     0.639315  s :     0.639315
      pz      :     0.017007  p :     0.047694
      px      :     0.012720
      py      :     0.017967
  3 H s       :     0.882045  s :     0.882045
      pz      :     0.012072  p :     0.019364
      px      :     0.003007
      py      :     0.004285
  4 H s       :     0.861531  s :     0.861531
      pz      :     0.006294  p :     0.020219
      px      :     0.004190
      py      :     0.009735
  5 H s       :     0.881995  s :     0.881995
      pz      :     0.004926  p :     0.019362
      px      :     0.004972
      py      :     0.009464


                     *******************************
                     * LOEWDIN POPULATION ANALYSIS *
                     *******************************

----------------------
LOEWDIN ATOMIC CHARGES
----------------------
   0 C :   -0.385106
   1 O :   -0.076133
   2 H :    0.165763
   3 H :    0.093392
   4 H :    0.108690
   5 H :    0.093394

-------------------------------
LOEWDIN REDUCED ORBITAL CHARGES
-------------------------------
  0 C s       :     2.862971  s :     2.862971
      pz      :     1.096731  p :     3.052189
      px      :     0.846061
      py      :     1.109397
      dz2     :     0.072445  d :     0.412920
      dxz     :     0.113988
      dyz     :     0.020678
      dx2y2   :     0.082206
      dxy     :     0.123604
      f0      :     0.007825  f :     0.057025
      f+1     :     0.007163
      f-1     :     0.000855
      f+2     :     0.012530
      f-2     :     0.004817
      f+3     :     0.011736
      f-3     :     0.012099
  1 O s       :     3.366278  s :     3.366278
      pz      :     1.699038  p :     4.633645
      px      :     1.381211
      py      :     1.553396
      dz2     :     0.006133  d :     0.071566
      dxz     :     0.017864
      dyz     :     0.008087
      dx2y2   :     0.019340
      dxy     :     0.020142
      f0      :     0.000483  f :     0.004645
      f+1     :     0.000622
      f-1     :     0.000072
      f+2     :     0.001050
      f-2     :     0.000560
      f+3     :     0.000890
      f-3     :     0.000966
  2 H s       :     0.675150  s :     0.675150
      pz      :     0.055759  p :     0.159088
      px      :     0.033907
      py      :     0.069422
  3 H s       :     0.846790  s :     0.846790
      pz      :     0.036180  p :     0.059818
      px      :     0.009713
      py      :     0.013925
  4 H s       :     0.831712  s :     0.831712
      pz      :     0.019204  p :     0.059598
      px      :     0.011601
      py      :     0.028793
  5 H s       :     0.846781  s :     0.846781
      pz      :     0.015599  p :     0.059825
      px      :     0.015194
      py      :     0.029033


                      *****************************
                      * MAYER POPULATION ANALYSIS *
                      *****************************

  NA   - Mulliken gross atomic population
  ZA   - Total nuclear charge
  QA   - Mulliken gross atomic charge
  VA   - Mayer's total valence
  BVA  - Mayer's bonded valence
  FA   - Mayer's free valence

  ATOM       NA         ZA         QA         VA         BVA        FA
  0 C      6.1508     6.0000    -0.1508     3.9349     3.9349     0.0000
  1 O      8.4777     8.0000    -0.4777     1.8880     1.8880    -0.0000
  2 H      0.6870     1.0000     0.3130     0.9136     0.9136    -0.0000
  3 H      0.9014     1.0000     0.0986     0.9596     0.9596    -0.0000
  4 H      0.8817     1.0000     0.1183     0.9598     0.9598     0.0000
  5 H      0.9014     1.0000     0.0986     0.9596     0.9596    -0.0000

  Mayer bond orders larger than 0.1
B(  0-C ,  1-O ) :   0.9986 B(  0-C ,  3-H ) :   0.9755 B(  0-C ,  4-H ) :   0.9749 
B(  0-C ,  5-H ) :   0.9755 B(  1-O ,  2-H ) :   0.9002 

-------
TIMINGS
-------

Total SCF time: 0 days 0 hours 0 min 3 sec 

Total time                  ....       3.571 sec
Sum of individual times     ....       3.258 sec  ( 91.2%)

Fock matrix formation       ....       1.949 sec  ( 54.6%)
  XC integration            ....       0.634 sec  ( 32.5% of F)
    Basis function eval.    ....       0.139 sec  ( 22.0% of XC)
    Density eval.           ....       0.088 sec  ( 13.9% of XC)
    XC-Functional eval.     ....       0.222 sec  ( 35.0% of XC)
    XC-Potential eval.      ....       0.089 sec  ( 14.0% of XC)
Diagonalization             ....       0.003 sec  (  0.1%)
Density matrix formation    ....       0.001 sec  (  0.0%)
Population analysis         ....       0.027 sec  (  0.8%)
Initial guess               ....       0.010 sec  (  0.3%)
Orbital Transformation      ....       0.000 sec  (  0.0%)
Orbital Orthonormalization  ....       0.001 sec  (  0.0%)
DIIS solution               ....       0.000 sec  (  0.0%)
SOSCF solution              ....       0.004 sec  (  0.1%)
Grid generation             ....       1.264 sec  ( 35.4%)


-------------------------------------------------------------------------------
                          DFT DISPERSION CORRECTION                            
                                                                               
                              DFTD3 V3.1  Rev 1                                
                              USING zero damping                               
-------------------------------------------------------------------------------
The omegaB97X-D3 functional is recognized. Fit by Chai et al.
Active option DFTDOPT                   ...         3   

molecular C6(AA) [au] = 208.715700 


            DFT-D V3
 parameters
 s6 scaling factor         :     1.0000 
 rs6 scaling factor        :     1.2810 
 s8 scaling factor         :     1.0000 
 rs8 scaling factor        :     1.0940 
 Damping factor alpha6     :    14.0000 
 Damping factor alpha8     :    16.0000 
 ad hoc parameters k1-k3   :    16.0000     1.3333    -4.0000 

 Edisp/kcal,au: -0.150077743586  -0.000239164082 
 E6   /kcal   :  -0.029593860 
 E8   /kcal   :  -0.120483884 
 % E8         :  80.280980317 

-------------------------   ----------------
Dispersion correction           -0.000239164
-------------------------   ----------------


-------------------------   --------------------
FINAL SINGLE POINT ENERGY      -115.738051067333
-------------------------   --------------------

                                *** OPTIMIZATION RUN DONE ***

                            ***************************************
                            *     ORCA property calculations      *
                            ***************************************

                                    ---------------------
                                    Active property flags
                                    ---------------------
   (+) Dipole Moment


------------------------------------------------------------------------------
                       ORCA ELECTRIC PROPERTIES CALCULATION
------------------------------------------------------------------------------

Dipole Moment Calculation                       ... on
Quadrupole Moment Calculation                   ... off
Polarizability Calculation                      ... off
GBWName                                         ... 4_geo_opt.gbw
Electron density file                           ... 4_geo_opt.scfp.tmp
The origin for moment calculation is the CENTER OF MASS  = ( 7.033399, -2.140031  1.369249)

-------------
DIPOLE MOMENT
-------------
                                X             Y             Z
Electronic contribution:      1.75511      -0.02821       0.42064
Nuclear contribution   :     -2.06490       0.47575      -0.81843
                        -----------------------------------------
Total Dipole Moment    :     -0.30980       0.44754      -0.39779
                        -----------------------------------------
Magnitude (a.u.)       :      0.67417
Magnitude (Debye)      :      1.71361



--------------------
Rotational spectrum 
--------------------
 
Rotational constants in cm-1:     4.292242     0.833873     0.804916 
Rotational constants in MHz : 128678.167530 24998.894134 24130.775951 

 Dipole components along the rotational axes: 
x,y,z [a.u.] :    -0.332909     0.586240     0.001242 
x,y,z [Debye]:    -0.846187     1.490102     0.003158 

 
------------------------------------------------------------------------------
                      ORCA CHELPG CHARGES GENERATION
------------------------------------------------------------------------------

GBW file                           ... 4_geo_opt.gbw

Reading the GBW file               ... done

Grid spacing                       ...     0.300000
Point Cut-Off                      ...     2.800000
Van-der-Waals Radii                ...        COSMO
Total charge                       ...            0


Number of points X direction       ...           26
Number of points Y direction       ...           24
Number of points Z direction       ...           24
Maximum number of possible points  ...        14976
Final number of points             ...         5945


CHELPG Charges            
--------------------------------
  0   C   :       0.091994
  1   O   :      -0.606492
  2   H   :       0.403791
  3   H   :       0.014998
  4   H   :       0.081495
  5   H   :       0.014214
--------------------------------
Total charge:     0.000000
--------------------------------

CHELPG charges calculated...

Timings for individual parts in CHELPG calculation:
Grid generation                 ...        0.002 sec (=   0.000 min)
Potential calculation           ...        0.681 sec (=   0.011 min)
Fit to the potential            ...        0.005 sec (=   0.000 min)
------------------------------------------------------------------------------


Timings for individual modules:

Sum of individual times         ...       30.641 sec (=   0.511 min)
GTO integral calculation        ...        5.756 sec (=   0.096 min)  18.8 %
SCF iterations                  ...       15.994 sec (=   0.267 min)  52.2 %
SCF Gradient evaluation         ...        2.882 sec (=   0.048 min)   9.4 %
Geometry relaxation             ...        3.078 sec (=   0.051 min)  10.0 %
CHELPG charge generation        ...        2.931 sec (=   0.049 min)   9.6 %
                             ****ORCA TERMINATED NORMALLY****
TOTAL RUN TIME: 0 days 0 hours 0 minutes 35 seconds 402 msec
