
                                 *****************
                                 * O   R   C   A *
                                 *****************

           --- An Ab Initio, DFT and Semiempirical electronic structure package ---

                  #######################################################
                  #                        -***-                        #
                  #          Department of theory and spectroscopy      #
                  #               Directorship: Frank Neese             #
                  #        Max Planck Institute fuer Kohlenforschung    #
                  #                Kaiser Wilhelm Platz 1               #
                  #                 D-45470 Muelheim/Ruhr               #
                  #                      Germany                        #
                  #                                                     #
                  #                  All rights reserved                #
                  #                        -***-                        #
                  #######################################################


                         Program Version 4.1.2  - RELEASE  -


 With contributions from (in alphabetic order):
   Daniel Aravena         : Magnetic Properties
   Michael Atanasov       : Ab Initio Ligand Field Theory
   Alexander A. Auer      : GIAO ZORA
   Ute Becker             : Parallelization
   Giovanni Bistoni       : ED, Open-shell LED
   Martin Brehm           : Molecular dynamics
   Dmytro Bykov           : SCF Hessian
   Vijay G. Chilkuri      : MRCI spin determinant printing
   Dipayan Datta          : RHF DLPNO-CCSD density
   Achintya Kumar Dutta   : EOM-CC, STEOM-CC
   Dmitry Ganyushin       : Spin-Orbit,Spin-Spin,Magnetic field MRCI
   Miquel Garcia          : C-PCM Hessian
   Yang Guo               : DLPNO-NEVPT2, CIM, IAO-localization
   Andreas Hansen         : Spin unrestricted coupled pair/coupled cluster methods
   Benjamin Helmich-Paris : CASSCF linear response (MC-RPA)
   Lee Huntington         : MR-EOM, pCC
   Robert Izsak           : Overlap fitted RIJCOSX, COSX-SCS-MP3, EOM
   Christian Kollmar      : KDIIS, OOCD, Brueckner-CCSD(T), CCSD density
   Simone Kossmann        : Meta GGA functionals, TD-DFT gradient, OOMP2, MP2 Hessian
   Martin Krupicka        : AUTO-CI
   Lucas Lang             : DCDCAS
   Dagmar Lenk            : GEPOL surface, SMD
   Dimitrios Liakos       : Extrapolation schemes; parallel MDCI
   Dimitrios Manganas     : ROCIS; embedding schemes
   Dimitrios Pantazis     : SARC Basis sets
   Taras Petrenko         : DFT Hessian,TD-DFT gradient, ASA, ECA, R-Raman, ABS, FL, XAS/XES, NRVS
   Peter Pinski           : DLPNO-MP2, DLPNO-MP2 Gradient
   Christoph Reimann      : Effective Core Potentials
   Marius Retegan         : Local ZFS, SOC
   Christoph Riplinger    : Optimizer, TS searches, QM/MM, DLPNO-CCSD(T), (RO)-DLPNO pert. Triples
   Tobias Risthaus        : Range-separated hybrids, TD-DFT gradient, RPA, STAB
   Michael Roemelt        : Restricted open shell CIS
   Masaaki Saitow         : Open-shell DLPNO
   Barbara Sandhoefer     : DKH picture change effects
   Avijit Sen             : IP-ROCIS
   Kantharuban Sivalingam : CASSCF convergence, NEVPT2, FIC-MRCI
   Bernardo de Souza      : ESD, SOC TD-DFT
   Georgi Stoychev        : AutoAux, RI-MP2 NMR
   Willem Van den Heuvel  : Paramagnetic NMR
   Boris Wezisla          : Elementary symmetry handling
   Frank Wennmohs         : Technical directorship


 We gratefully acknowledge several colleagues who have allowed us to
 interface, adapt or use parts of their codes:
   Stefan Grimme, W. Hujo, H. Kruse,             : VdW corrections, initial TS optimization,
                  C. Bannwarth                     DFT functionals, gCP, sTDA/sTD-DF
   Ed Valeev                                     : LibInt (2-el integral package), F12 methods
   Garnet Chan, S. Sharma, J. Yang, R. Olivares  : DMRG
   Ulf Ekstrom                                   : XCFun DFT Library
   Mihaly Kallay                                 : mrcc  (arbitrary order and MRCC methods)
   Andreas Klamt, Michael Diedenhofen            : otool_cosmo (COSMO solvation model)
   Jiri Pittner, Ondrej Demel                    : Mk-CCSD
   Frank Weinhold                                : gennbo (NPA and NBO analysis)
   Christopher J. Cramer and Donald G. Truhlar   : smd solvation model
   Lars Goerigk                                  : TD-DFT with DH, B97 family of functionals
   V. Asgeirsson, H. Jonsson                     : NEB implementation
   FAccTs GmbH                                   : IRC, NEB, NEB-TS, Multilevel


 Your calculation uses the libint2 library for the computation of 2-el integrals
 For citations please refer to: http://libint.valeyev.net

 This ORCA versions uses:
   CBLAS   interface :  Fast vector & matrix operations
   LAPACKE interface :  Fast linear algebra routines
   SCALAPACK package :  Parallel linear algebra routines


Your calculation utilizes the atom-pairwise dispersion correction
with the zero-damping scheme (D30)
Cite in your paper:
S.Grimme, J.Antony, S.Ehrlich and H.Krieg, J.Chem.Phys., 132, (2010), 154104 
   

XCFun DFT library Copyright 2009-2010 Ulf Ekstrom and contributors.
See http://admol.org/xcfun for more information. This is free soft-
ware; see the source code for copying conditions. There is ABSOLUTELY
NO WARRANTY; not even for MERCHANTABILITY or FITNESS FOR A PARTICULAR
PURPOSE. For details see the documentation. Scientific users of this 
library should cite U. Ekstrom, L. Visscher, R. Bast, A. J. Thorvald-
sen and K. Ruud; J.Chem.Theor.Comp. 2010, DOI: 10.1021/ct100117s
XCFun Version 0.99 
----- Orbital basis set information -----
Your calculation utilizes the basis: def2-TZVP
   F. Weigend and R. Ahlrichs, Phys. Chem. Chem. Phys. 7, 3297 (2005).

================================================================================
                                        WARNINGS
                       Please study these warnings very carefully!
================================================================================


INFO   : the flag for use of LIBINT has been found!

Your calculation utilizes the atom-pairwise dispersion correction
with the zero-damping scheme (D30)
Cite in your paper:
S.Grimme, J.Antony, S.Ehrlich and H.Krieg, J.Chem.Phys., 132, (2010), 154104 
   

XCFun DFT library Copyright 2009-2010 Ulf Ekstrom and contributors.
See http://admol.org/xcfun for more information. This is free soft-
ware; see the source code for copying conditions. There is ABSOLUTELY
NO WARRANTY; not even for MERCHANTABILITY or FITNESS FOR A PARTICULAR
PURPOSE. For details see the documentation. Scientific users of this 
library should cite U. Ekstrom, L. Visscher, R. Bast, A. J. Thorvald-
sen and K. Ruud; J.Chem.Theor.Comp. 2010, DOI: 10.1021/ct100117s
XCFun Version 0.99 
----- Orbital basis set information -----
Your calculation utilizes the basis: def2-TZVP
   F. Weigend and R. Ahlrichs, Phys. Chem. Chem. Phys. 7, 3297 (2005).

================================================================================
                                        WARNINGS
                       Please study these warnings very carefully!
================================================================================


WARNING: MOInp is set but Guess=PModel. MOInp will be ignored!
         To read the initial guess from a file you must also specify
         'MORead' in the simple input or 'Guess MORead' in the %scf block


INFO   : the flag for use of LIBINT has been found!

Your calculation utilizes the atom-pairwise dispersion correction
with the zero-damping scheme (D30)
Cite in your paper:
S.Grimme, J.Antony, S.Ehrlich and H.Krieg, J.Chem.Phys., 132, (2010), 154104 
   

XCFun DFT library Copyright 2009-2010 Ulf Ekstrom and contributors.
See http://admol.org/xcfun for more information. This is free soft-
ware; see the source code for copying conditions. There is ABSOLUTELY
NO WARRANTY; not even for MERCHANTABILITY or FITNESS FOR A PARTICULAR
PURPOSE. For details see the documentation. Scientific users of this 
library should cite U. Ekstrom, L. Visscher, R. Bast, A. J. Thorvald-
sen and K. Ruud; J.Chem.Theor.Comp. 2010, DOI: 10.1021/ct100117s
XCFun Version 0.99 
----- Orbital basis set information -----
Your calculation utilizes the basis: def2-TZVP
   F. Weigend and R. Ahlrichs, Phys. Chem. Chem. Phys. 7, 3297 (2005).

================================================================================
                                        WARNINGS
                       Please study these warnings very carefully!
================================================================================


WARNING: MOInp is set but Guess=PModel. MOInp will be ignored!
         To read the initial guess from a file you must also specify
         'MORead' in the simple input or 'Guess MORead' in the %scf block


INFO   : the flag for use of LIBINT has been found!

================================================================================
                                       INPUT FILE
================================================================================
NAME = 12-80.in
|  1> #Run DFT-D3 single point of the dimer
|  2> ! wB97X-D3 def2-TZVP TIGHTSCF CHELPG PMODEL PAL8
|  3> 
|  4> %base "12-80_DFT_AB"
|  5> 
|  6> %scf
|  7> MaxIter 1000
|  8> end
|  9> 
| 10> * xyz 0 1
| 11>   C                      -4.658780            -2.037883            7.649658            
| 12>   O                      -5.337638            -1.572166            6.540238            
| 13>   H                      -6.235660            -1.469603            6.901389            
| 14>   H                      -3.612432            -1.652803            7.614765            
| 15>   H                      -5.188026            -1.588476            8.460927            
| 16>   H                      -4.629709            -3.094023            7.716798            
| 17>   C                      -8.330021            -3.936850            9.780098            
| 18>   O                      -7.082873            -4.366825            9.301597            
| 19>   H                      -6.330123            -4.091510            9.880843            
| 20>   H                      -9.113728            -4.603709            9.450616            
| 21>   H                      -8.289771            -4.009567            10.862791           
| 22>   H                      -8.578552            -2.883557            9.468591            
| 23> *
| 24> 
| 25> #Run DFT-D3 single point of the molecule with dimer basis set
| 26> $new_job
| 27> %base "12-80_DFT_A"
| 28> ! wB97X-D3 def2-TZVP TIGHTSCF CHELPG PMODEL
| 29> 
| 30> %scf
| 31> MaxIter 1000
| 32> end
| 33> 
| 34> * xyz 0 1
| 35>   C                      -4.658780            -2.037883            7.649658            
| 36>   O                      -5.337638            -1.572166            6.540238            
| 37>   H                      -6.235660            -1.469603            6.901389            
| 38>   H                      -3.612432            -1.652803            7.614765            
| 39>   H                      -5.188026            -1.588476            8.460927            
| 40>   H                      -4.629709            -3.094023            7.716798            
| 41>   C                    : -8.330021            -3.936850            9.780098            
| 42>   O                    : -7.082873            -4.366825            9.301597            
| 43>   H                    : -6.330123            -4.091510            9.880843            
| 44>   H                    : -9.113728            -4.603709            9.450616            
| 45>   H                    : -8.289771            -4.009567            10.862791           
| 46>   H                    : -8.578552            -2.883557            9.468591            
| 47> *
| 48> 
| 49> #Run DFT-D3 single point of the particle with dimer basis set
| 50> $new_job
| 51> %base "12-80_DFT_B"
| 52> ! wB97X-D3 def2-TZVP TIGHTSCF CHELPG PMODEL
| 53> 
| 54> %scf
| 55> MaxIter 1000
| 56> end
| 57> 
| 58> * xyz 0 1
| 59>   C                    : -4.658780            -2.037883            7.649658            
| 60>   O                    : -5.337638            -1.572166            6.540238            
| 61>   H                    : -6.235660            -1.469603            6.901389            
| 62>   H                    : -3.612432            -1.652803            7.614765            
| 63>   H                    : -5.188026            -1.588476            8.460927            
| 64>   H                    : -4.629709            -3.094023            7.716798            
| 65>   C                      -8.330021            -3.936850            9.780098            
| 66>   O                      -7.082873            -4.366825            9.301597            
| 67>   H                      -6.330123            -4.091510            9.880843            
| 68>   H                      -9.113728            -4.603709            9.450616            
| 69>   H                      -8.289771            -4.009567            10.862791           
| 70>   H                      -8.578552            -2.883557            9.468591            
| 71> *
| 72> 
| 73>                          ****END OF INPUT****
================================================================================


                 $$$$$$$$$$$$$$$$$$$$$$$$$$$$$$$$$$$$$$$$$$$$$$ 
                 $ THERE ARE  3 JOBS TO BE PROCESSED THIS RUN $
                 $$$$$$$$$$$$$$$$$$$$$$$$$$$$$$$$$$$$$$$$$$$$$$ 




                 $$$$$$$$$$$$$$$$  JOB NUMBER  1 $$$$$$$$$$$$$$


                       ****************************
                       * Single Point Calculation *
                       ****************************

---------------------------------
CARTESIAN COORDINATES (ANGSTROEM)
---------------------------------
  C     -4.658780   -2.037883    7.649658
  O     -5.337638   -1.572166    6.540238
  H     -6.235660   -1.469603    6.901389
  H     -3.612432   -1.652803    7.614765
  H     -5.188026   -1.588476    8.460927
  H     -4.629709   -3.094023    7.716798
  C     -8.330021   -3.936850    9.780098
  O     -7.082873   -4.366825    9.301597
  H     -6.330123   -4.091510    9.880843
  H     -9.113728   -4.603709    9.450616
  H     -8.289771   -4.009567   10.862791
  H     -8.578552   -2.883557    9.468591

----------------------------
CARTESIAN COORDINATES (A.U.)
----------------------------
  NO LB      ZA    FRAG     MASS         X           Y           Z
   0 C     6.0000    0    12.011   -8.803818   -3.851041   14.455759
   1 O     8.0000    0    15.999  -10.086674   -2.970963   12.359259
   2 H     1.0000    0     1.008  -11.783690   -2.777147   13.041735
   3 H     1.0000    0     1.008   -6.826507   -3.123345   14.389820
   4 H     1.0000    0     1.008   -9.803948   -3.001785   15.988835
   5 H     1.0000    0     1.008   -8.748882   -5.846856   14.582635
   6 C     6.0000    0    12.011  -15.741458   -7.439568   18.481707
   7 O     8.0000    0    15.999  -13.384690   -8.252103   17.577471
   8 H     1.0000    0     1.008  -11.962199   -7.731833   18.672087
   9 H     1.0000    0     1.008  -17.222450   -8.699749   17.859076
  10 H     1.0000    0     1.008  -15.665397   -7.576984   20.527700
  11 H     1.0000    0     1.008  -16.211114   -5.449133   17.893044

--------------------------------
INTERNAL COORDINATES (ANGSTROEM)
--------------------------------
 C      0   0   0     0.000000000000     0.00000000     0.00000000
 O      1   0   0     1.381503979239     0.00000000     0.00000000
 H      2   1   0     0.973341012315   101.00653812     0.00000000
 H      1   2   3     1.115503592533   108.62875457   213.05060956
 H      1   2   3     1.067813359406   102.98459433   329.76931004
 H      1   2   3     1.058671149244   113.62351704    91.93819443
 C      5   1   2     4.138502766840   112.31179944    89.29429067
 O      7   5   1     1.403288937293    52.44247464    35.49668626
 H      8   7   5     0.988917003717   113.04533283    64.80372069
 H      7   5   1     1.080488767204   143.48414322   322.55340090
 H      7   5   1     1.085878426362   109.12793905   132.15059345
 H      7   5   1     1.126157365939    63.16953752   235.78351533

---------------------------
INTERNAL COORDINATES (A.U.)
---------------------------
 C      0   0   0     0.000000000000     0.00000000     0.00000000
 O      1   0   0     2.610664173684     0.00000000     0.00000000
 H      2   1   0     1.839347948189   101.00653812     0.00000000
 H      1   2   3     2.107996291292   108.62875457   213.05060956
 H      1   2   3     2.017874811420   102.98459433   329.76931004
 H      1   2   3     2.000598537954   113.62351704    91.93819443
 C      5   1   2     7.820636833803   112.31179944    89.29429067
 O      7   5   1     2.651831778246    52.44247464    35.49668626
 H      8   7   5     1.868782306203   113.04533283    64.80372069
 H      7   5   1     2.041827860794   143.48414322   322.55340090
 H      7   5   1     2.052012840557   109.12793905   132.15059345
 H      7   5   1     2.128129005323    63.16953752   235.78351533

---------------------
BASIS SET INFORMATION
---------------------
There are 3 groups of distinct atoms

 Group   1 Type C   : 11s6p2d1f contracted to 5s3p2d1f pattern {62111/411/11/1}
 Group   2 Type O   : 11s6p2d1f contracted to 5s3p2d1f pattern {62111/411/11/1}
 Group   3 Type H   : 5s1p contracted to 3s1p pattern {311/1}

Atom   0C    basis set group =>   1
Atom   1O    basis set group =>   2
Atom   2H    basis set group =>   3
Atom   3H    basis set group =>   3
Atom   4H    basis set group =>   3
Atom   5H    basis set group =>   3
Atom   6C    basis set group =>   1
Atom   7O    basis set group =>   2
Atom   8H    basis set group =>   3
Atom   9H    basis set group =>   3
Atom  10H    basis set group =>   3
Atom  11H    basis set group =>   3


           ************************************************************
           *        Program running with 8 parallel MPI-processes     *
           *              working on a common directory               *
           ************************************************************
------------------------------------------------------------------------------
                           ORCA GTO INTEGRAL CALCULATION
------------------------------------------------------------------------------

                         BASIS SET STATISTICS AND STARTUP INFO

 # of primitive gaussian shells          ...  128
 # of primitive gaussian functions       ...  248
 # of contracted shells                  ...   76
 # of contracted basis functions         ...  172
 Highest angular momentum                ...    3
 Maximum contraction depth               ...    6
 Integral package used                   ... LIBINT
 Integral threshhold            Thresh   ...  2.500e-11
 Primitive cut-off              TCut     ...  2.500e-12


------------------------------ INTEGRAL EVALUATION ----------------------------


 * One electron integrals 
 Pre-screening matrix                    ... done
 Shell pair data                         ... done (   0.001 sec)



           ************************************************************
           *        Program running with 8 parallel MPI-processes     *
           *              working on a common directory               *
           ************************************************************
-------------------------------------------------------------------------------
                                 ORCA SCF
-------------------------------------------------------------------------------

------------
SCF SETTINGS
------------
Hamiltonian:
 Density Functional     Method          .... DFT(GTOs)
 Exchange Functional    Exchange        .... WB97X-D3
 Correlation Functional Correlation     .... WB97X-D3
 Gradients option       PostSCFGGA      .... off
 Hybrid DFT is turned on
   Fraction HF Exchange ScalHFX         ....  0.195728
   Scaling of DF-GGA-X  ScalDFX         ....  0.000000
   Scaling of DF-GGA-C  ScalDFC         ....  1.000000
   Scaling of DF-LDA-C  ScalLDAC        ....  1.000000
   Perturbative correction              ....  0.000000
   Density functional embedding theory  .... OFF
 Long-range corrected/Screened/Range-Separated Hybrid DFT is turned on
   Amount of maximum screened exact exchange              ....  0.804272
   Range separation parameter mu (erf(mu*r12)/r12)        ....  0.250000


General Settings:
 Integral files         IntName         .... 12-80_DFT_AB
 Hartree-Fock type      HFTyp           .... RHF
 Total Charge           Charge          ....    0
 Multiplicity           Mult            ....    1
 Number of Electrons    NEL             ....   36
 Basis Dimension        Dim             ....  172
 Nuclear Repulsion      ENuc            ....    120.8734801853 Eh

Convergence Acceleration:
 DIIS                   CNVDIIS         .... on
   Start iteration      DIISMaxIt       ....    12
   Startup error        DIISStart       ....  0.200000
   # of expansion vecs  DIISMaxEq       ....     5
   Bias factor          DIISBfac        ....   1.050
   Max. coefficient     DIISMaxC        ....  10.000
 Newton-Raphson         CNVNR           .... off
 SOSCF                  CNVSOSCF        .... on
   Start iteration      SOSCFMaxIt      ....   150
   Startup grad/error   SOSCFStart      ....  0.003300
 Level Shifting         CNVShift        .... on
   Level shift para.    LevelShift      ....    0.2500
   Turn off err/grad.   ShiftErr        ....    0.0010
 Zerner damping         CNVZerner       .... off
 Static damping         CNVDamp         .... on
   Fraction old density DampFac         ....    0.7000
   Max. Damping (<1)    DampMax         ....    0.9800
   Min. Damping (>=0)   DampMin         ....    0.0000
   Turn off err/grad.   DampErr         ....    0.1000
 Fernandez-Rico         CNVRico         .... off

SCF Procedure:
 Maximum # iterations   MaxIter         ....  1000
 SCF integral mode      SCFMode         .... Direct
   Integral package                     .... LIBINT
 Reset frequency        DirectResetFreq ....    20
 Integral Threshold     Thresh          ....  2.500e-11 Eh
 Primitive CutOff       TCut            ....  2.500e-12 Eh

Convergence Tolerance:
 Convergence Check Mode ConvCheckMode   .... Total+1el-Energy
 Convergence forced     ConvForced      .... 0
 Energy Change          TolE            ....  1.000e-08 Eh
 1-El. energy change                    ....  1.000e-05 Eh
 Orbital Gradient       TolG            ....  1.000e-05
 Orbital Rotation angle TolX            ....  1.000e-05
 DIIS Error             TolErr          ....  5.000e-07


Diagonalization of the overlap matrix:
Smallest eigenvalue                        ... 1.522e-03
Time for diagonalization                   ...    0.004 sec
Threshold for overlap eigenvalues          ... 1.000e-08
Number of eigenvalues below threshold      ... 0
Time for construction of square roots      ...    0.005 sec
Total time needed                          ...    0.009 sec

-------------------
DFT GRID GENERATION
-------------------

General Integration Accuracy     IntAcc      ...  4.340
Radial Grid Type                 RadialGrid  ... Gauss-Chebyshev
Angular Grid (max. acc.)         AngularGrid ... Lebedev-110
Angular grid pruning method      GridPruning ... 3 (G Style)
Weight generation scheme         WeightScheme... Becke
Basis function cutoff            BFCut       ...    1.0000e-11
Integration weight cutoff        WCut        ...    1.0000e-14
Grids for H and He will be reduced by one unit

# of grid points (after initial pruning)     ...  13096 (   0.0 sec)
# of grid points (after weights+screening)   ...  12508 (   0.0 sec)
nearest neighbour list constructed           ...    0.0 sec
Grid point re-assignment to atoms done       ...    0.0 sec
Grid point division into batches done        ...    0.0 sec
Reduced shell lists constructed in    0.0 sec

Total number of grid points                  ...    12508
Total number of batches                      ...      202
Average number of points per batch           ...       61
Average number of grid points per atom       ...     1042
Average number of shells per batch           ...    46.63 (61.35%)
Average number of basis functions per batch  ...   101.67 (59.11%)
Average number of large shells per batch     ...    38.11 (81.73%)
Average number of large basis fcns per batch ...    84.19 (82.81%)
Maximum spatial batch extension              ...  13.62, 16.96, 13.58 au
Average spatial batch extension              ...   0.37,  0.45,  0.41 au

Time for grid setup =    0.040 sec

------------------------------
INITIAL GUESS: MODEL POTENTIAL
------------------------------
Loading Hartree-Fock densities                     ... done
Calculating cut-offs                               ... done
Setting up the integral package                    ... done
Initializing the effective Hamiltonian             ... done
Starting the Coulomb interaction                   ... done (   0.0 sec)
Reading the grid                                   ... done
Mapping shells                                     ... done
Starting the XC term evaluation                    ... done (   0.0 sec)
  promolecular density results
     # of electrons  =     36.001583047
     EX              =    -28.872887598
     EC              =     -1.154110722
     EX+EC           =    -30.026998320
Transforming the Hamiltonian                       ... done (   0.0 sec)
Diagonalizing the Hamiltonian                      ... done (   0.0 sec)
Back transforming the eigenvectors                 ... done (   0.0 sec)
Now organizing SCF variables                       ... done
                      ------------------
                      INITIAL GUESS DONE (   0.1 sec)
                      ------------------
--------------
SCF ITERATIONS
--------------
ITER       Energy         Delta-E        Max-DP      RMS-DP      [F,P]     Damp
               ***  Starting incremental Fock matrix formation  ***
  0   -231.2836628847   0.000000000000 0.03662304  0.00108628  0.2411744 0.7000
  1   -231.3600410933  -0.076378208598 0.02119714  0.00077372  0.1207885 0.7000
                               ***Turning on DIIS***
  2   -231.3950860128  -0.035044919513 0.03217011  0.00139057  0.0515686 0.0000
  3   -231.4518915499  -0.056805537063 0.01781117  0.00051384  0.0609468 0.0000
  4   -231.4613199634  -0.009428413448 0.00437092  0.00010448  0.0066900 0.0000
                      *** Initiating the SOSCF procedure ***
                           *** Shutting down DIIS ***
                      *** Re-Reading the Fockian *** 
                      *** Removing any level shift *** 
ITER      Energy       Delta-E        Grad      Rot      Max-DP    RMS-DP
  5   -231.46151912  -0.0001991610  0.000453  0.000453  0.000871  0.000038
               *** Restarting incremental Fock matrix formation ***
  6   -231.46153749  -0.0000183703  0.000137  0.000195  0.000689  0.000025
  7   -231.46153929  -0.0000018002  0.000050  0.000106  0.000316  0.000011
  8   -231.46153945  -0.0000001550  0.000028  0.000023  0.000051  0.000001
  9   -231.46153947  -0.0000000217  0.000014  0.000010  0.000023  0.000001
 10   -231.46153948  -0.0000000053  0.000003  0.000004  0.000005  0.000000
                  ***Gradient check signals convergence***
              ***Rediagonalizing the Fockian in SOSCF/NRSCF***

               *****************************************************
               *                     SUCCESS                       *
               *           SCF CONVERGED AFTER  11 CYCLES          *
               *****************************************************

Setting up the final grid:

General Integration Accuracy     IntAcc      ...  4.670
Radial Grid Type                 RadialGrid  ... Gauss-Chebyshev
Angular Grid (max. acc.)         AngularGrid ... Lebedev-302
Angular grid pruning method      GridPruning ... 3 (G Style)
Weight generation scheme         WeightScheme... Becke
Basis function cutoff            BFCut       ...    1.0000e-11
Integration weight cutoff        WCut        ...    1.0000e-14
Grids for H and He will be reduced by one unit

# of grid points (after initial pruning)     ...  52000 (   0.0 sec)
# of grid points (after weights+screening)   ...  49174 (   0.0 sec)
nearest neighbour list constructed           ...    0.0 sec
Grid point re-assignment to atoms done       ...    0.0 sec
Grid point division into batches done        ...    0.2 sec
Reduced shell lists constructed in    0.2 sec

Total number of grid points                  ...    49174
Total number of batches                      ...      773
Average number of points per batch           ...       63
Average number of grid points per atom       ...     4098
Average number of shells per batch           ...    44.91 (59.09%)
Average number of basis functions per batch  ...    97.74 (56.83%)
Average number of large shells per batch     ...    36.04 (80.25%)
Average number of large basis fcns per batch ...    79.98 (81.82%)
Maximum spatial batch extension              ...  16.05, 16.05, 13.27 au
Average spatial batch extension              ...   0.27,  0.30,  0.27 au

Final grid set up in    0.2 sec
Final integration                            ... done (   0.1 sec)
Change in XC energy                          ...    -0.000039419
Integrated number of electrons               ...    36.000076895
Previous integrated no of electrons          ...    36.004082910

----------------
TOTAL SCF ENERGY
----------------

Total Energy       :         -231.46157890 Eh           -6298.38977 eV

Components:
Nuclear Repulsion  :          120.87348019 Eh            3289.13461 eV
Electronic Energy  :         -352.33505908 Eh           -9587.52438 eV
One Electron Energy:         -554.48229494 Eh          -15088.23032 eV
Two Electron Energy:          202.14723585 Eh            5500.70594 eV

Virial components:
Potential Energy   :         -462.04039868 Eh          -12572.75843 eV
Kinetic Energy     :          230.57881979 Eh            6274.36867 eV
Virial Ratio       :            2.00382845


DFT components:
N(Alpha)           :       18.000038447335 electrons
N(Beta)            :       18.000038447335 electrons
N(Total)           :       36.000076894669 electrons
E(XC)              :      -21.321997983272 Eh       
DFET-embed. en.    :        0.000000000000 Eh       

---------------
SCF CONVERGENCE
---------------

  Last Energy change         ...   -3.7392e-10  Tolerance :   1.0000e-08
  Last MAX-Density change    ...    2.5970e-06  Tolerance :   1.0000e-07
  Last RMS-Density change    ...    8.9653e-08  Tolerance :   5.0000e-09
  Last Orbital Gradient      ...    1.6199e-06  Tolerance :   1.0000e-05
  Last Orbital Rotation      ...    1.8978e-06  Tolerance :   1.0000e-05

             **** THE GBW FILE WAS UPDATED (12-80_DFT_AB.gbw) ****
             **** DENSITY FILE WAS UPDATED (12-80_DFT_AB.scfp.tmp) ****
             **** ENERGY FILE WAS UPDATED (12-80_DFT_AB.en.tmp) ****
----------------
ORBITAL ENERGIES
----------------

  NO   OCC          E(Eh)            E(eV) 
   0   2.0000     -19.237915      -523.4903 
   1   2.0000     -19.224345      -523.1210 
   2   2.0000     -10.320906      -280.8461 
   3   2.0000     -10.302274      -280.3391 
   4   2.0000      -1.144702       -31.1489 
   5   2.0000      -1.139148       -30.9978 
   6   2.0000      -0.800701       -21.7882 
   7   2.0000      -0.785886       -21.3851 
   8   2.0000      -0.616552       -16.7772 
   9   2.0000      -0.612473       -16.6662 
  10   2.0000      -0.553390       -15.0585 
  11   2.0000      -0.549181       -14.9440 
  12   2.0000      -0.540948       -14.7199 
  13   2.0000      -0.525269       -14.2933 
  14   2.0000      -0.430509       -11.7147 
  15   2.0000      -0.428846       -11.6695 
  16   2.0000      -0.379475       -10.3260 
  17   2.0000      -0.367330        -9.9956 
  18   0.0000       0.088187         2.3997 
  19   0.0000       0.118770         3.2319 
  20   0.0000       0.146534         3.9874 
  21   0.0000       0.173102         4.7104 
  22   0.0000       0.192412         5.2358 
  23   0.0000       0.199850         5.4382 
  24   0.0000       0.204094         5.5537 
  25   0.0000       0.214901         5.8478 
  26   0.0000       0.234316         6.3761 
  27   0.0000       0.238898         6.5007 
  28   0.0000       0.300346         8.1728 
  29   0.0000       0.305839         8.3223 
  30   0.0000       0.309424         8.4198 
  31   0.0000       0.332820         9.0565 
  32   0.0000       0.403146        10.9702 
  33   0.0000       0.413842        11.2612 
  34   0.0000       0.442105        12.0303 
  35   0.0000       0.444596        12.0981 
  36   0.0000       0.479455        13.0466 
  37   0.0000       0.492850        13.4111 
  38   0.0000       0.529282        14.4025 
  39   0.0000       0.536659        14.6032 
  40   0.0000       0.543702        14.7949 
  41   0.0000       0.551646        15.0111 
  42   0.0000       0.581474        15.8227 
  43   0.0000       0.587746        15.9934 
  44   0.0000       0.594559        16.1788 
  45   0.0000       0.617506        16.8032 
  46   0.0000       0.640483        17.4284 
  47   0.0000       0.674969        18.3668 
  48   0.0000       0.688782        18.7427 
  49   0.0000       0.719899        19.5894 
  50   0.0000       0.772879        21.0311 
  51   0.0000       0.784441        21.3457 
  52   0.0000       0.814891        22.1743 
  53   0.0000       0.833785        22.6885 
  54   0.0000       0.853964        23.2376 
  55   0.0000       0.905155        24.6305 
  56   0.0000       0.983358        26.7585 
  57   0.0000       1.025590        27.9077 
  58   0.0000       1.031511        28.0688 
  59   0.0000       1.070115        29.1193 
  60   0.0000       1.115841        30.3636 
  61   0.0000       1.156394        31.4671 
  62   0.0000       1.368655        37.2430 
  63   0.0000       1.385535        37.7023 
  64   0.0000       1.484783        40.4030 
  65   0.0000       1.493109        40.6296 
  66   0.0000       1.535945        41.7952 
  67   0.0000       1.553236        42.2657 
  68   0.0000       1.601885        43.5895 
  69   0.0000       1.609575        43.7988 
  70   0.0000       1.615281        43.9540 
  71   0.0000       1.618850        44.0511 
  72   0.0000       1.634842        44.4863 
  73   0.0000       1.652000        44.9532 
  74   0.0000       1.687976        45.9322 
  75   0.0000       1.688382        45.9432 
  76   0.0000       1.693982        46.0956 
  77   0.0000       1.725809        46.9617 
  78   0.0000       1.769243        48.1435 
  79   0.0000       1.792374        48.7730 
  80   0.0000       1.947639        52.9979 
  81   0.0000       1.961061        53.3632 
  82   0.0000       1.981663        53.9238 
  83   0.0000       2.023294        55.0566 
  84   0.0000       2.055630        55.9365 
  85   0.0000       2.063571        56.1526 
  86   0.0000       2.104950        57.2786 
  87   0.0000       2.118561        57.6490 
  88   0.0000       2.139674        58.2235 
  89   0.0000       2.182141        59.3791 
  90   0.0000       2.243989        61.0621 
  91   0.0000       2.277072        61.9623 
  92   0.0000       2.296986        62.5042 
  93   0.0000       2.312687        62.9314 
  94   0.0000       2.353511        64.0423 
  95   0.0000       2.381585        64.8062 
  96   0.0000       2.401342        65.3438 
  97   0.0000       2.418850        65.8203 
  98   0.0000       2.450603        66.6843 
  99   0.0000       2.457216        66.8643 
 100   0.0000       2.503912        68.1349 
 101   0.0000       2.553248        69.4774 
 102   0.0000       2.577409        70.1349 
 103   0.0000       2.593864        70.5826 
 104   0.0000       2.634100        71.6775 
 105   0.0000       2.650819        72.1325 
 106   0.0000       2.660943        72.4079 
 107   0.0000       2.706589        73.6500 
 108   0.0000       2.828632        76.9710 
 109   0.0000       2.844960        77.4153 
 110   0.0000       2.847895        77.4952 
 111   0.0000       2.877555        78.3023 
 112   0.0000       2.931608        79.7731 
 113   0.0000       2.964895        80.6789 
 114   0.0000       2.987299        81.2886 
 115   0.0000       3.036620        82.6306 
 116   0.0000       3.119309        84.8807 
 117   0.0000       3.133574        85.2689 
 118   0.0000       3.163994        86.0966 
 119   0.0000       3.217156        87.5433 
 120   0.0000       3.279173        89.2308 
 121   0.0000       3.328843        90.5824 
 122   0.0000       3.407991        92.7362 
 123   0.0000       3.442411        93.6728 
 124   0.0000       3.469166        94.4008 
 125   0.0000       3.474467        94.5451 
 126   0.0000       3.506386        95.4136 
 127   0.0000       3.525719        95.9397 
 128   0.0000       3.616405        98.4074 
 129   0.0000       3.626592        98.6846 
 130   0.0000       3.632724        98.8514 
 131   0.0000       3.664058        99.7041 
 132   0.0000       3.674739        99.9947 
 133   0.0000       3.696483       100.5864 
 134   0.0000       3.935412       107.0880 
 135   0.0000       4.043432       110.0274 
 136   0.0000       4.220201       114.8375 
 137   0.0000       4.246806       115.5615 
 138   0.0000       4.280583       116.4806 
 139   0.0000       4.317552       117.4866 
 140   0.0000       4.425557       120.4255 
 141   0.0000       4.489523       122.1661 
 142   0.0000       4.544779       123.6697 
 143   0.0000       4.571220       124.3892 
 144   0.0000       5.336327       145.2088 
 145   0.0000       5.378846       146.3658 
 146   0.0000       5.401003       146.9688 
 147   0.0000       5.496078       149.5559 
 148   0.0000       5.545274       150.8946 
 149   0.0000       5.556286       151.1942 
 150   0.0000       5.785791       157.4394 
 151   0.0000       5.833413       158.7352 
 152   0.0000       5.851342       159.2231 
 153   0.0000       5.902474       160.6145 
 154   0.0000       5.950424       161.9193 
 155   0.0000       6.071320       165.2090 
 156   0.0000       6.286065       171.0525 
 157   0.0000       6.296965       171.3491 
 158   0.0000       6.520847       177.4413 
 159   0.0000       6.552133       178.2926 
 160   0.0000       6.726474       183.0367 
 161   0.0000       6.801989       185.0915 
 162   0.0000       6.819285       185.5622 
 163   0.0000       6.844527       186.2491 
 164   0.0000       7.016288       190.9229 
 165   0.0000       7.040637       191.5855 
 166   0.0000       7.192356       195.7140 
 167   0.0000       7.214728       196.3227 
 168   0.0000      22.409362       609.7897 
 169   0.0000      22.547868       613.5587 
 170   0.0000      43.678961      1188.5650 
 171   0.0000      43.728452      1189.9117 

                    ********************************
                    * MULLIKEN POPULATION ANALYSIS *
                    ********************************

-----------------------
MULLIKEN ATOMIC CHARGES
-----------------------
   0 C :   -0.160513
   1 O :   -0.460116
   2 H :    0.316558
   3 H :    0.105840
   4 H :    0.081721
   5 H :    0.109857
   6 C :   -0.153512
   7 O :   -0.482212
   8 H :    0.323100
   9 H :    0.125840
  10 H :    0.106771
  11 H :    0.086665
Sum of atomic charges:    0.0000000

--------------------------------
MULLIKEN REDUCED ORBITAL CHARGES
--------------------------------
  0 C s       :     3.223986  s :     3.223986
      pz      :     0.786626  p :     2.823880
      px      :     1.010327
      py      :     1.026927
      dz2     :     0.029751  d :     0.104187
      dxz     :     0.013925
      dyz     :     0.021024
      dx2y2   :     0.024864
      dxy     :     0.014623
      f0      :     0.001554  f :     0.008460
      f+1     :     0.001590
      f-1     :     0.001493
      f+2     :     0.001467
      f-2     :     0.001088
      f+3     :     0.000379
      f-3     :     0.000891
  1 O s       :     3.803229  s :     3.803229
      pz      :     1.514214  p :     4.621849
      px      :     1.286657
      py      :     1.820978
      dz2     :     0.008926  d :     0.033331
      dxz     :     0.010472
      dyz     :     0.006082
      dx2y2   :     0.006157
      dxy     :     0.001695
      f0      :     0.000279  f :     0.001707
      f+1     :     0.000108
      f-1     :     0.000191
      f+2     :     0.000404
      f-2     :     0.000199
      f+3     :     0.000350
      f-3     :     0.000176
  2 H s       :     0.637423  s :     0.637423
      pz      :     0.011961  p :     0.046019
      px      :     0.017507
      py      :     0.016551
  3 H s       :     0.875088  s :     0.875088
      pz      :     0.002851  p :     0.019072
      px      :     0.011603
      py      :     0.004618
  4 H s       :     0.897633  s :     0.897633
      pz      :     0.009092  p :     0.020646
      px      :     0.005835
      py      :     0.005718
  5 H s       :     0.869337  s :     0.869337
      pz      :     0.003379  p :     0.020807
      px      :     0.004215
      py      :     0.013212
  6 C s       :     3.226153  s :     3.226153
      pz      :     1.011500  p :     2.818315
      px      :     0.785572
      py      :     1.021243
      dz2     :     0.018812  d :     0.101072
      dxz     :     0.023398
      dyz     :     0.002900
      dx2y2   :     0.020132
      dxy     :     0.035830
      f0      :     0.001182  f :     0.007972
      f+1     :     0.001290
      f-1     :     0.000164
      f+2     :     0.001047
      f-2     :     0.000824
      f+3     :     0.001764
      f-3     :     0.001702
  7 O s       :     3.789750  s :     3.789750
      pz      :     1.656182  p :     4.661229
      px      :     1.209958
      py      :     1.795090
      dz2     :     0.003386  d :     0.029534
      dxz     :     0.011857
      dyz     :     0.003744
      dx2y2   :     0.003995
      dxy     :     0.006551
      f0      :     0.000144  f :     0.001698
      f+1     :     0.000251
      f-1     :     0.000060
      f+2     :     0.000324
      f-2     :     0.000258
      f+3     :     0.000336
      f-3     :     0.000325
  8 H s       :     0.632290  s :     0.632290
      pz      :     0.014551  p :     0.044611
      px      :     0.015012
      py      :     0.015048
  9 H s       :     0.853994  s :     0.853994
      pz      :     0.004908  p :     0.020166
      px      :     0.008082
      py      :     0.007176
 10 H s       :     0.873447  s :     0.873447
      pz      :     0.012397  p :     0.019782
      px      :     0.003285
      py      :     0.004099
 11 H s       :     0.894428  s :     0.894428
      pz      :     0.004123  p :     0.018907
      px      :     0.003205
      py      :     0.011579


                     *******************************
                     * LOEWDIN POPULATION ANALYSIS *
                     *******************************

----------------------
LOEWDIN ATOMIC CHARGES
----------------------
   0 C :   -0.410848
   1 O :   -0.061748
   2 H :    0.183726
   3 H :    0.107834
   4 H :    0.088967
   5 H :    0.086257
   6 C :   -0.392558
   7 O :   -0.083488
   8 H :    0.184521
   9 H :    0.105595
  10 H :    0.095551
  11 H :    0.096191

-------------------------------
LOEWDIN REDUCED ORBITAL CHARGES
-------------------------------
  0 C s       :     2.852638  s :     2.852638
      pz      :     0.926563  p :     3.052893
      px      :     1.043593
      py      :     1.082737
      dz2     :     0.126128  d :     0.440416
      dxz     :     0.078530
      dyz     :     0.088865
      dx2y2   :     0.103003
      dxy     :     0.043890
      f0      :     0.009954  f :     0.064902
      f+1     :     0.013164
      f-1     :     0.011479
      f+2     :     0.009521
      f-2     :     0.013352
      f+3     :     0.002454
      f-3     :     0.004979
  1 O s       :     3.366331  s :     3.366331
      pz      :     1.572022  p :     4.612156
      px      :     1.305490
      py      :     1.734645
      dz2     :     0.022412  d :     0.077837
      dxz     :     0.020669
      dyz     :     0.012898
      dx2y2   :     0.016158
      dxy     :     0.005700
      f0      :     0.001421  f :     0.005424
      f+1     :     0.000681
      f-1     :     0.000551
      f+2     :     0.001346
      f-2     :     0.000644
      f+3     :     0.000601
      f-3     :     0.000180
  2 H s       :     0.665794  s :     0.665794
      pz      :     0.041720  p :     0.150480
      px      :     0.065873
      py      :     0.042887
  3 H s       :     0.837188  s :     0.837188
      pz      :     0.008788  p :     0.054978
      px      :     0.031785
      py      :     0.014404
  4 H s       :     0.847511  s :     0.847511
      pz      :     0.026094  p :     0.063522
      px      :     0.018978
      py      :     0.018450
  5 H s       :     0.847923  s :     0.847923
      pz      :     0.011304  p :     0.065820
      px      :     0.014179
      py      :     0.040337
  6 C s       :     2.865813  s :     2.865813
      pz      :     1.070681  p :     3.049876
      px      :     0.901085
      py      :     1.078110
      dz2     :     0.092265  d :     0.417964
      dxz     :     0.088807
      dyz     :     0.017440
      dx2y2   :     0.088860
      dxy     :     0.130591
      f0      :     0.006766  f :     0.058905
      f+1     :     0.008469
      f-1     :     0.001931
      f+2     :     0.010762
      f-2     :     0.008975
      f+3     :     0.009993
      f-3     :     0.012009
  7 O s       :     3.368542  s :     3.368542
      pz      :     1.634599  p :     4.638849
      px      :     1.273242
      py      :     1.731008
      dz2     :     0.007241  d :     0.071603
      dxz     :     0.028171
      dyz     :     0.004352
      dx2y2   :     0.014513
      dxy     :     0.017326
      f0      :     0.000302  f :     0.004494
      f+1     :     0.000953
      f-1     :     0.000125
      f+2     :     0.000701
      f-2     :     0.000876
      f+3     :     0.000833
      f-3     :     0.000702
  8 H s       :     0.669487  s :     0.669487
      pz      :     0.053321  p :     0.145992
      px      :     0.048653
      py      :     0.044018
  9 H s       :     0.832805  s :     0.832805
      pz      :     0.015567  p :     0.061600
      px      :     0.023130
      py      :     0.022903
 10 H s       :     0.843079  s :     0.843079
      pz      :     0.037206  p :     0.061370
      px      :     0.010765
      py      :     0.013399
 11 H s       :     0.848885  s :     0.848885
      pz      :     0.012617  p :     0.054924
      px      :     0.009460
      py      :     0.032847


                      *****************************
                      * MAYER POPULATION ANALYSIS *
                      *****************************

  NA   - Mulliken gross atomic population
  ZA   - Total nuclear charge
  QA   - Mulliken gross atomic charge
  VA   - Mayer's total valence
  BVA  - Mayer's bonded valence
  FA   - Mayer's free valence

  ATOM       NA         ZA         QA         VA         BVA        FA
  0 C      6.1605     6.0000    -0.1605     3.9760     3.9760    -0.0000
  1 O      8.4601     8.0000    -0.4601     1.8871     1.8871     0.0000
  2 H      0.6834     1.0000     0.3166     0.9080     0.9080    -0.0000
  3 H      0.8942     1.0000     0.1058     0.9566     0.9566    -0.0000
  4 H      0.9183     1.0000     0.0817     0.9739     0.9739    -0.0000
  5 H      0.8901     1.0000     0.1099     0.9482     0.9482    -0.0000
  6 C      6.1535     6.0000    -0.1535     3.9455     3.9455     0.0000
  7 O      8.4822     8.0000    -0.4822     1.8864     1.8864     0.0000
  8 H      0.6769     1.0000     0.3231     0.9046     0.9046     0.0000
  9 H      0.8742     1.0000     0.1258     0.9546     0.9546     0.0000
 10 H      0.8932     1.0000     0.1068     0.9653     0.9653    -0.0000
 11 H      0.9133     1.0000     0.0867     0.9552     0.9552     0.0000

  Mayer bond orders larger than 0.1
B(  0-C ,  1-O ) :   1.0132 B(  0-C ,  3-H ) :   0.9732 B(  0-C ,  4-H ) :   1.0055 
B(  0-C ,  5-H ) :   0.9658 B(  1-O ,  2-H ) :   0.9020 B(  6-C ,  7-O ) :   1.0040 
B(  6-C ,  9-H ) :   0.9708 B(  6-C , 10-H ) :   0.9890 B(  6-C , 11-H ) :   0.9694 
B(  7-O ,  8-H ) :   0.8860 

-------
TIMINGS
-------

Total SCF time: 0 days 0 hours 0 min 18 sec 

Total time                  ....      18.642 sec
Sum of individual times     ....      18.244 sec  ( 97.9%)

Fock matrix formation       ....      17.643 sec  ( 94.6%)
  XC integration            ....       8.545 sec  ( 48.4% of F)
    Basis function eval.    ....       0.061 sec  (  0.7% of XC)
    Density eval.           ....       0.089 sec  (  1.0% of XC)
    XC-Functional eval.     ....       0.103 sec  (  1.2% of XC)
    XC-Potential eval.      ....       0.066 sec  (  0.8% of XC)
Diagonalization             ....       0.083 sec  (  0.4%)
Density matrix formation    ....       0.006 sec  (  0.0%)
Population analysis         ....       0.018 sec  (  0.1%)
Initial guess               ....       0.101 sec  (  0.5%)
Orbital Transformation      ....       0.000 sec  (  0.0%)
Orbital Orthonormalization  ....       0.000 sec  (  0.0%)
DIIS solution               ....       0.066 sec  (  0.4%)
SOSCF solution              ....       0.047 sec  (  0.3%)
Grid generation             ....       0.280 sec  (  1.5%)


-------------------------------------------------------------------------------
                          DFT DISPERSION CORRECTION                            
                                                                               
                              DFTD3 V3.1  Rev 1                                
                              USING zero damping                               
-------------------------------------------------------------------------------
The omegaB97X-D3 functional is recognized. Fit by Chai et al.
Active option DFTDOPT                   ...         3   

molecular C6(AA) [au] = 834.752370 


            DFT-D V3
 parameters
 s6 scaling factor         :     1.0000 
 rs6 scaling factor        :     1.2810 
 s8 scaling factor         :     1.0000 
 rs8 scaling factor        :     1.0940 
 Damping factor alpha6     :    14.0000 
 Damping factor alpha8     :    16.0000 
 ad hoc parameters k1-k3   :    16.0000     1.3333    -4.0000 

 Edisp/kcal,au: -0.897695976126  -0.001430569446 
 E6   /kcal   :  -0.471035735 
 E8   /kcal   :  -0.426660241 
 % E8         :  47.528367341 

-------------------------   ----------------
Dispersion correction           -0.001430569
-------------------------   ----------------


-------------------------   --------------------
FINAL SINGLE POINT ENERGY      -231.463009466001
-------------------------   --------------------


                            ***************************************
                            *     ORCA property calculations      *
                            ***************************************

                                    ---------------------
                                    Active property flags
                                    ---------------------
   (+) Dipole Moment


------------------------------------------------------------------------------
                       ORCA ELECTRIC PROPERTIES CALCULATION
------------------------------------------------------------------------------

Dipole Moment Calculation                       ... on
Quadrupole Moment Calculation                   ... off
Polarizability Calculation                      ... off
GBWName                                         ... 12-80_DFT_AB.gbw
Electron density file                           ... 12-80_DFT_AB.scfp.tmp
The origin for moment calculation is the CENTER OF MASS  = (-12.005207, -5.613411 15.738534)

-------------
DIPOLE MOMENT
-------------
                                X             Y             Z
Electronic contribution:      0.71232      -0.18281      -2.26343
Nuclear contribution   :     -1.07933       0.34778       3.48634
                        -----------------------------------------
Total Dipole Moment    :     -0.36700       0.16497       1.22292
                        -----------------------------------------
Magnitude (a.u.)       :      1.28741
Magnitude (Debye)      :      3.27234



--------------------
Rotational spectrum 
--------------------
 
Rotational constants in cm-1:     0.509655     0.053296     0.050501 
Rotational constants in MHz : 15279.058248  1597.760532  1513.969831 

 Dipole components along the rotational axes: 
x,y,z [a.u.] :    -0.848546    -0.161337     0.954655 
x,y,z [Debye]:    -2.156833    -0.410087     2.426541 

 
------------------------------------------------------------------------------
                      ORCA CHELPG CHARGES GENERATION
------------------------------------------------------------------------------

GBW file                           ... 12-80_DFT_AB.gbw

Reading the GBW file               ... done

Grid spacing                       ...     0.300000
Point Cut-Off                      ...     2.800000
Van-der-Waals Radii                ...        COSMO
Total charge                       ...            0


Number of points X direction       ...           37
Number of points Y direction       ...           29
Number of points Z direction       ...           33
Maximum number of possible points  ...        35409
Final number of points             ...        10300


CHELPG Charges            
--------------------------------
  0   C   :       0.116546
  1   O   :      -0.593527
  2   H   :       0.402962
  3   H   :       0.052101
  4   H   :      -0.004865
  5   H   :       0.021609
  6   C   :       0.057161
  7   O   :      -0.564720
  8   H   :       0.379295
  9   H   :       0.079919
 10   H   :       0.022873
 11   H   :       0.030647
--------------------------------
Total charge:    -0.000000
--------------------------------

CHELPG charges calculated...

Timings for individual parts in CHELPG calculation:
Grid generation                 ...        0.002 sec (=   0.000 min)
Potential calculation           ...        2.099 sec (=   0.035 min)
Fit to the potential            ...        0.003 sec (=   0.000 min)
------------------------------------------------------------------------------


Timings for individual modules:

Sum of individual times         ...       28.478 sec (=   0.475 min)
GTO integral calculation        ...        5.148 sec (=   0.086 min)  18.1 %
SCF iterations                  ...       21.193 sec (=   0.353 min)  74.4 %
CHELPG charge generation        ...        2.137 sec (=   0.036 min)   7.5 %


                 $$$$$$$$$$$$$$$$  JOB NUMBER  2 $$$$$$$$$$$$$$


                       ****************************
                       * Single Point Calculation *
                       ****************************

---------------------------------
CARTESIAN COORDINATES (ANGSTROEM)
---------------------------------
  C     -4.658780   -2.037883    7.649658
  O     -5.337638   -1.572166    6.540238
  H     -6.235660   -1.469603    6.901389
  H     -3.612432   -1.652803    7.614765
  H     -5.188026   -1.588476    8.460927
  H     -4.629709   -3.094023    7.716798
  C     -8.330021   -3.936850    9.780098
  O     -7.082873   -4.366825    9.301597
  H     -6.330123   -4.091510    9.880843
  H     -9.113728   -4.603709    9.450616
  H     -8.289771   -4.009567   10.862791
  H     -8.578552   -2.883557    9.468591

----------------------------
CARTESIAN COORDINATES (A.U.)
----------------------------
  NO LB      ZA    FRAG     MASS         X           Y           Z
   0 C     6.0000    0    12.011   -8.803818   -3.851041   14.455759
   1 O     8.0000    0    15.999  -10.086674   -2.970963   12.359259
   2 H     1.0000    0     1.008  -11.783690   -2.777147   13.041735
   3 H     1.0000    0     1.008   -6.826507   -3.123345   14.389820
   4 H     1.0000    0     1.008   -9.803948   -3.001785   15.988835
   5 H     1.0000    0     1.008   -8.748882   -5.846856   14.582635
   6 C     0.0000    0     0.000  -15.741458   -7.439568   18.481707
   7 O     0.0000    0     0.000  -13.384690   -8.252103   17.577471
   8 H     0.0000    0     0.000  -11.962199   -7.731833   18.672087
   9 H     0.0000    0     0.000  -17.222450   -8.699749   17.859076
  10 H     0.0000    0     0.000  -15.665397   -7.576984   20.527700
  11 H     0.0000    0     0.000  -16.211114   -5.449133   17.893044

--------------------------------
INTERNAL COORDINATES (ANGSTROEM)
--------------------------------
 C      0   0   0     0.000000000000     0.00000000     0.00000000
 O      1   0   0     1.381503979239     0.00000000     0.00000000
 H      2   1   0     0.973341012315   101.00653812     0.00000000
 H      1   2   3     1.115503592533   108.62875457   213.05060956
 H      1   2   3     1.067813359406   102.98459433   329.76931004
 H      1   2   3     1.058671149244   113.62351704    91.93819443
 C      5   1   2     4.138502766840   112.31179944    89.29429067
 O      7   5   1     1.403288937293    52.44247464    35.49668626
 H      8   7   5     0.988917003717   113.04533283    64.80372069
 H      7   5   1     1.080488767204   143.48414322   322.55340090
 H      7   5   1     1.085878426362   109.12793905   132.15059345
 H      7   5   1     1.126157365939    63.16953752   235.78351533

---------------------------
INTERNAL COORDINATES (A.U.)
---------------------------
 C      0   0   0     0.000000000000     0.00000000     0.00000000
 O      1   0   0     2.610664173684     0.00000000     0.00000000
 H      2   1   0     1.839347948189   101.00653812     0.00000000
 H      1   2   3     2.107996291292   108.62875457   213.05060956
 H      1   2   3     2.017874811420   102.98459433   329.76931004
 H      1   2   3     2.000598537954   113.62351704    91.93819443
 C      5   1   2     7.820636833803   112.31179944    89.29429067
 O      7   5   1     2.651831778246    52.44247464    35.49668626
 H      8   7   5     1.868782306203   113.04533283    64.80372069
 H      7   5   1     2.041827860794   143.48414322   322.55340090
 H      7   5   1     2.052012840557   109.12793905   132.15059345
 H      7   5   1     2.128129005323    63.16953752   235.78351533

---------------------
BASIS SET INFORMATION
---------------------
There are 3 groups of distinct atoms

 Group   1 Type C   : 11s6p2d1f contracted to 5s3p2d1f pattern {62111/411/11/1}
 Group   2 Type O   : 11s6p2d1f contracted to 5s3p2d1f pattern {62111/411/11/1}
 Group   3 Type H   : 5s1p contracted to 3s1p pattern {311/1}

Atom   0C    basis set group =>   1
Atom   1O    basis set group =>   2
Atom   2H    basis set group =>   3
Atom   3H    basis set group =>   3
Atom   4H    basis set group =>   3
Atom   5H    basis set group =>   3
Atom   6C    basis set group =>   1
Atom   7O    basis set group =>   2
Atom   8H    basis set group =>   3
Atom   9H    basis set group =>   3
Atom  10H    basis set group =>   3
Atom  11H    basis set group =>   3


           ************************************************************
           *        Program running with 8 parallel MPI-processes     *
           *              working on a common directory               *
           ************************************************************
------------------------------------------------------------------------------
                           ORCA GTO INTEGRAL CALCULATION
------------------------------------------------------------------------------

                         BASIS SET STATISTICS AND STARTUP INFO

 # of primitive gaussian shells          ...  128
 # of primitive gaussian functions       ...  248
 # of contracted shells                  ...   76
 # of contracted basis functions         ...  172
 Highest angular momentum                ...    3
 Maximum contraction depth               ...    6
 Integral package used                   ... LIBINT
 Integral threshhold            Thresh   ...  2.500e-11
 Primitive cut-off              TCut     ...  2.500e-12


------------------------------ INTEGRAL EVALUATION ----------------------------


 * One electron integrals 
 Pre-screening matrix                    ... done
 Shell pair data                         ... done (   0.001 sec)



           ************************************************************
           *        Program running with 8 parallel MPI-processes     *
           *              working on a common directory               *
           ************************************************************
-------------------------------------------------------------------------------
                                 ORCA SCF
-------------------------------------------------------------------------------

------------
SCF SETTINGS
------------
Hamiltonian:
 Density Functional     Method          .... DFT(GTOs)
 Exchange Functional    Exchange        .... WB97X-D3
 Correlation Functional Correlation     .... WB97X-D3
 Gradients option       PostSCFGGA      .... off
 Hybrid DFT is turned on
   Fraction HF Exchange ScalHFX         ....  0.195728
   Scaling of DF-GGA-X  ScalDFX         ....  0.000000
   Scaling of DF-GGA-C  ScalDFC         ....  1.000000
   Scaling of DF-LDA-C  ScalLDAC        ....  1.000000
   Perturbative correction              ....  0.000000
   Density functional embedding theory  .... OFF
 Long-range corrected/Screened/Range-Separated Hybrid DFT is turned on
   Amount of maximum screened exact exchange              ....  0.804272
   Range separation parameter mu (erf(mu*r12)/r12)        ....  0.250000


General Settings:
 Integral files         IntName         .... 12-80_DFT_A
 Hartree-Fock type      HFTyp           .... RHF
 Total Charge           Charge          ....    0
 Multiplicity           Mult            ....    1
 Number of Electrons    NEL             ....   18
 Basis Dimension        Dim             ....  172
 Nuclear Repulsion      ENuc            ....     41.2156828846 Eh

Convergence Acceleration:
 DIIS                   CNVDIIS         .... on
   Start iteration      DIISMaxIt       ....    12
   Startup error        DIISStart       ....  0.200000
   # of expansion vecs  DIISMaxEq       ....     5
   Bias factor          DIISBfac        ....   1.050
   Max. coefficient     DIISMaxC        ....  10.000
 Newton-Raphson         CNVNR           .... off
 SOSCF                  CNVSOSCF        .... on
   Start iteration      SOSCFMaxIt      ....   150
   Startup grad/error   SOSCFStart      ....  0.003300
 Level Shifting         CNVShift        .... on
   Level shift para.    LevelShift      ....    0.2500
   Turn off err/grad.   ShiftErr        ....    0.0010
 Zerner damping         CNVZerner       .... off
 Static damping         CNVDamp         .... on
   Fraction old density DampFac         ....    0.7000
   Max. Damping (<1)    DampMax         ....    0.9800
   Min. Damping (>=0)   DampMin         ....    0.0000
   Turn off err/grad.   DampErr         ....    0.1000
 Fernandez-Rico         CNVRico         .... off

SCF Procedure:
 Maximum # iterations   MaxIter         ....  1000
 SCF integral mode      SCFMode         .... Direct
   Integral package                     .... LIBINT
 Reset frequency        DirectResetFreq ....    20
 Integral Threshold     Thresh          ....  2.500e-11 Eh
 Primitive CutOff       TCut            ....  2.500e-12 Eh

Convergence Tolerance:
 Convergence Check Mode ConvCheckMode   .... Total+1el-Energy
 Convergence forced     ConvForced      .... 0
 Energy Change          TolE            ....  1.000e-08 Eh
 1-El. energy change                    ....  1.000e-05 Eh
 Orbital Gradient       TolG            ....  1.000e-05
 Orbital Rotation angle TolX            ....  1.000e-05
 DIIS Error             TolErr          ....  5.000e-07


Diagonalization of the overlap matrix:
Smallest eigenvalue                        ... 1.522e-03
Time for diagonalization                   ...    0.004 sec
Threshold for overlap eigenvalues          ... 1.000e-08
Number of eigenvalues below threshold      ... 0
Time for construction of square roots      ...    0.005 sec
Total time needed                          ...    0.010 sec

-------------------
DFT GRID GENERATION
-------------------

General Integration Accuracy     IntAcc      ...  4.340
Radial Grid Type                 RadialGrid  ... Gauss-Chebyshev
Angular Grid (max. acc.)         AngularGrid ... Lebedev-110
Angular grid pruning method      GridPruning ... 3 (G Style)
Weight generation scheme         WeightScheme... Becke
Basis function cutoff            BFCut       ...    1.0000e-11
Integration weight cutoff        WCut        ...    1.0000e-14
Grids for H and He will be reduced by one unit

# of grid points (after initial pruning)     ...  13096 (   0.0 sec)
# of grid points (after weights+screening)   ...  12508 (   0.0 sec)
nearest neighbour list constructed           ...    0.0 sec
Grid point re-assignment to atoms done       ...    0.0 sec
Grid point division into batches done        ...    0.0 sec
Reduced shell lists constructed in    0.0 sec

Total number of grid points                  ...    12508
Total number of batches                      ...      202
Average number of points per batch           ...       61
Average number of grid points per atom       ...     1042
Average number of shells per batch           ...    46.63 (61.35%)
Average number of basis functions per batch  ...   101.67 (59.11%)
Average number of large shells per batch     ...    38.11 (81.73%)
Average number of large basis fcns per batch ...    84.19 (82.81%)
Maximum spatial batch extension              ...  13.62, 16.96, 13.58 au
Average spatial batch extension              ...   0.37,  0.45,  0.41 au

Time for grid setup =    0.051 sec

------------------------------
INITIAL GUESS: MODEL POTENTIAL
------------------------------
Loading Hartree-Fock densities                     ... done
Calculating cut-offs                               ... done
Setting up the integral package                    ... done
Initializing the effective Hamiltonian             ... done
Starting the Coulomb interaction                   ... done (   0.0 sec)
Reading the grid                                   ... done
Mapping shells                                     ... done
Starting the XC term evaluation                    ... done (   0.0 sec)
  promolecular density results
     # of electrons  =     18.003318866
     EX              =    -14.448253575
     EC              =     -0.578573584
     EX+EC           =    -15.026827158
Transforming the Hamiltonian                       ... done (   0.0 sec)
Diagonalizing the Hamiltonian                      ... done (   0.0 sec)
Back transforming the eigenvectors                 ... done (   0.0 sec)
Now organizing SCF variables                       ... done
                      ------------------
                      INITIAL GUESS DONE (   0.2 sec)
                      ------------------
--------------
SCF ITERATIONS
--------------
ITER       Energy         Delta-E        Max-DP      RMS-DP      [F,P]     Damp
               ***  Starting incremental Fock matrix formation  ***
  0   -115.6371403055   0.000000000000 0.03632844  0.00077521  0.2359610 0.7000
  1   -115.6758761168  -0.038735811346 0.02107540  0.00055153  0.1215715 0.7000
                               ***Turning on DIIS***
  2   -115.6937739345  -0.017897817716 0.03259218  0.00099205  0.0521200 0.0000
  3   -115.7227845582  -0.029010623627 0.01772254  0.00036784  0.0602781 0.0000
  4   -115.7275403999  -0.004755841749 0.00423844  0.00007472  0.0064691 0.0000
                      *** Initiating the SOSCF procedure ***
                           *** Shutting down DIIS ***
                      *** Re-Reading the Fockian *** 
                      *** Removing any level shift *** 
ITER      Energy       Delta-E        Grad      Rot      Max-DP    RMS-DP
  5   -115.72764104  -0.0001006364  0.000431  0.000431  0.000822  0.000028
               *** Restarting incremental Fock matrix formation ***
  6   -115.72765029  -0.0000092544  0.000106  0.000164  0.000611  0.000017
  7   -115.72765116  -0.0000008664  0.000037  0.000085  0.000280  0.000008
  8   -115.72765123  -0.0000000749  0.000019  0.000016  0.000035  0.000001
  9   -115.72765124  -0.0000000095  0.000010  0.000007  0.000019  0.000001
                  ***Gradient check signals convergence***
              ***Rediagonalizing the Fockian in SOSCF/NRSCF***

               *****************************************************
               *                     SUCCESS                       *
               *           SCF CONVERGED AFTER  10 CYCLES          *
               *****************************************************

Setting up the final grid:

General Integration Accuracy     IntAcc      ...  4.670
Radial Grid Type                 RadialGrid  ... Gauss-Chebyshev
Angular Grid (max. acc.)         AngularGrid ... Lebedev-302
Angular grid pruning method      GridPruning ... 3 (G Style)
Weight generation scheme         WeightScheme... Becke
Basis function cutoff            BFCut       ...    1.0000e-11
Integration weight cutoff        WCut        ...    1.0000e-14
Grids for H and He will be reduced by one unit

# of grid points (after initial pruning)     ...  52000 (   0.0 sec)
# of grid points (after weights+screening)   ...  49174 (   0.0 sec)
nearest neighbour list constructed           ...    0.0 sec
Grid point re-assignment to atoms done       ...    0.0 sec
Grid point division into batches done        ...    0.2 sec
Reduced shell lists constructed in    0.2 sec

Total number of grid points                  ...    49174
Total number of batches                      ...      773
Average number of points per batch           ...       63
Average number of grid points per atom       ...     4098
Average number of shells per batch           ...    44.91 (59.09%)
Average number of basis functions per batch  ...    97.74 (56.83%)
Average number of large shells per batch     ...    36.04 (80.25%)
Average number of large basis fcns per batch ...    79.98 (81.82%)
Maximum spatial batch extension              ...  16.05, 16.05, 13.27 au
Average spatial batch extension              ...   0.27,  0.30,  0.27 au

Final grid set up in    0.2 sec
Final integration                            ... done (   0.1 sec)
Change in XC energy                          ...    -0.000216927
Integrated number of electrons               ...    18.000041987
Previous integrated no of electrons          ...    18.002613149

----------------
TOTAL SCF ENERGY
----------------

Total Energy       :         -115.72786817 Eh           -3149.11539 eV

Components:
Nuclear Repulsion  :           41.21568288 Eh            1121.53575 eV
Electronic Energy  :         -156.94355106 Eh           -4270.65114 eV
One Electron Energy:         -238.78391800 Eh           -6497.64074 eV
Two Electron Energy:           81.84036695 Eh            2226.98960 eV

Virial components:
Potential Energy   :         -231.11613197 Eh           -6288.98968 eV
Kinetic Energy     :          115.38826380 Eh            3139.87429 eV
Virial Ratio       :            2.00294314


DFT components:
N(Alpha)           :        9.000020993715 electrons
N(Beta)            :        9.000020993715 electrons
N(Total)           :       18.000041987430 electrons
E(XC)              :      -10.678930770678 Eh       
DFET-embed. en.    :        0.000000000000 Eh       

---------------
SCF CONVERGENCE
---------------

  Last Energy change         ...   -2.4322e-09  Tolerance :   1.0000e-08
  Last MAX-Density change    ...    4.2772e-06  Tolerance :   1.0000e-07
  Last RMS-Density change    ...    1.2349e-07  Tolerance :   5.0000e-09
  Last Orbital Gradient      ...    1.7990e-06  Tolerance :   1.0000e-05
  Last Orbital Rotation      ...    3.6440e-06  Tolerance :   1.0000e-05

             **** THE GBW FILE WAS UPDATED (12-80_DFT_A.gbw) ****
             **** DENSITY FILE WAS UPDATED (12-80_DFT_A.scfp.tmp) ****
             **** ENERGY FILE WAS UPDATED (12-80_DFT_A.en.tmp) ****
----------------
ORBITAL ENERGIES
----------------

  NO   OCC          E(Eh)            E(eV) 
   0   2.0000     -19.228559      -523.2357 
   1   2.0000     -10.305423      -280.4248 
   2   2.0000      -1.149015       -31.2663 
   3   2.0000      -0.789248       -21.4765 
   4   2.0000      -0.616565       -16.7776 
   5   2.0000      -0.556999       -15.1567 
   6   2.0000      -0.528821       -14.3900 
   7   2.0000      -0.432142       -11.7592 
   8   2.0000      -0.371691       -10.1142 
   9   0.0000       0.073020         1.9870 
  10   0.0000       0.116300         3.1647 
  11   0.0000       0.145228         3.9518 
  12   0.0000       0.182388         4.9630 
  13   0.0000       0.183480         4.9927 
  14   0.0000       0.199032         5.4159 
  15   0.0000       0.207366         5.6427 
  16   0.0000       0.221232         6.0200 
  17   0.0000       0.236079         6.4240 
  18   0.0000       0.281348         7.6559 
  19   0.0000       0.302918         8.2428 
  20   0.0000       0.307099         8.3566 
  21   0.0000       0.330860         9.0032 
  22   0.0000       0.341786         9.3005 
  23   0.0000       0.355133         9.6637 
  24   0.0000       0.410042        11.1578 
  25   0.0000       0.436666        11.8823 
  26   0.0000       0.459266        12.4973 
  27   0.0000       0.491636        13.3781 
  28   0.0000       0.522833        14.2270 
  29   0.0000       0.541714        14.7408 
  30   0.0000       0.554072        15.0771 
  31   0.0000       0.574449        15.6315 
  32   0.0000       0.590456        16.0671 
  33   0.0000       0.609674        16.5901 
  34   0.0000       0.635860        17.3026 
  35   0.0000       0.665414        18.1068 
  36   0.0000       0.682052        18.5596 
  37   0.0000       0.700584        19.0639 
  38   0.0000       0.769072        20.9275 
  39   0.0000       0.794195        21.6111 
  40   0.0000       0.801339        21.8055 
  41   0.0000       0.817046        22.2329 
  42   0.0000       0.879016        23.9192 
  43   0.0000       0.931907        25.3585 
  44   0.0000       1.015651        27.6373 
  45   0.0000       1.045694        28.4548 
  46   0.0000       1.061031        28.8721 
  47   0.0000       1.129269        30.7290 
  48   0.0000       1.151022        31.3209 
  49   0.0000       1.155644        31.4467 
  50   0.0000       1.166898        31.7529 
  51   0.0000       1.209036        32.8995 
  52   0.0000       1.257939        34.2303 
  53   0.0000       1.352127        36.7932 
  54   0.0000       1.378093        37.4998 
  55   0.0000       1.389329        37.8056 
  56   0.0000       1.451137        39.4874 
  57   0.0000       1.488521        40.5047 
  58   0.0000       1.525789        41.5188 
  59   0.0000       1.553417        42.2706 
  60   0.0000       1.615081        43.9486 
  61   0.0000       1.625784        44.2398 
  62   0.0000       1.649623        44.8885 
  63   0.0000       1.685821        45.8735 
  64   0.0000       1.722384        46.8684 
  65   0.0000       1.775925        48.3254 
  66   0.0000       1.862254        50.6745 
  67   0.0000       1.909601        51.9629 
  68   0.0000       1.929653        52.5085 
  69   0.0000       1.961226        53.3677 
  70   0.0000       2.019999        54.9670 
  71   0.0000       2.055600        55.9357 
  72   0.0000       2.074644        56.4539 
  73   0.0000       2.118017        57.6342 
  74   0.0000       2.153222        58.5921 
  75   0.0000       2.178525        59.2807 
  76   0.0000       2.182858        59.3986 
  77   0.0000       2.226636        60.5899 
  78   0.0000       2.243450        61.0474 
  79   0.0000       2.303488        62.6811 
  80   0.0000       2.323889        63.2362 
  81   0.0000       2.378119        64.7119 
  82   0.0000       2.442589        66.4662 
  83   0.0000       2.451661        66.7131 
  84   0.0000       2.454889        66.8009 
  85   0.0000       2.549096        69.3644 
  86   0.0000       2.579268        70.1854 
  87   0.0000       2.595231        70.6198 
  88   0.0000       2.646343        72.0107 
  89   0.0000       2.651973        72.1638 
  90   0.0000       2.700211        73.4765 
  91   0.0000       2.708787        73.7099 
  92   0.0000       2.815869        76.6237 
  93   0.0000       2.847319        77.4795 
  94   0.0000       2.873948        78.2041 
  95   0.0000       2.912858        79.2629 
  96   0.0000       2.959375        80.5287 
  97   0.0000       3.024344        82.2966 
  98   0.0000       3.053870        83.1000 
  99   0.0000       3.114117        84.7394 
 100   0.0000       3.119036        84.8733 
 101   0.0000       3.141847        85.4940 
 102   0.0000       3.213008        87.4304 
 103   0.0000       3.233291        87.9823 
 104   0.0000       3.289539        89.5129 
 105   0.0000       3.323280        90.4310 
 106   0.0000       3.357452        91.3609 
 107   0.0000       3.430219        93.3410 
 108   0.0000       3.465098        94.2901 
 109   0.0000       3.471710        94.4700 
 110   0.0000       3.503056        95.3230 
 111   0.0000       3.588404        97.6454 
 112   0.0000       3.629000        98.7501 
 113   0.0000       3.648337        99.2763 
 114   0.0000       3.661510        99.6347 
 115   0.0000       3.692950       100.4903 
 116   0.0000       3.738267       101.7234 
 117   0.0000       4.033251       109.7504 
 118   0.0000       4.072346       110.8142 
 119   0.0000       4.174774       113.6014 
 120   0.0000       4.244505       115.4989 
 121   0.0000       4.262249       115.9817 
 122   0.0000       4.278704       116.4295 
 123   0.0000       4.313773       117.3837 
 124   0.0000       4.338795       118.0646 
 125   0.0000       4.482869       121.9851 
 126   0.0000       4.527020       123.1865 
 127   0.0000       4.541434       123.5787 
 128   0.0000       4.545956       123.7017 
 129   0.0000       4.557566       124.0177 
 130   0.0000       4.589773       124.8941 
 131   0.0000       4.946142       134.5914 
 132   0.0000       5.032360       136.9375 
 133   0.0000       5.075047       138.0991 
 134   0.0000       5.322483       144.8321 
 135   0.0000       5.396508       146.8464 
 136   0.0000       5.421274       147.5204 
 137   0.0000       5.492341       149.4542 
 138   0.0000       5.541345       150.7877 
 139   0.0000       5.780340       157.2910 
 140   0.0000       5.783746       157.3837 
 141   0.0000       5.870917       159.7558 
 142   0.0000       5.898240       160.4993 
 143   0.0000       6.035207       164.2263 
 144   0.0000       6.067287       165.0993 
 145   0.0000       6.292543       171.2288 
 146   0.0000       6.547731       178.1728 
 147   0.0000       6.586270       179.2215 
 148   0.0000       6.639241       180.6629 
 149   0.0000       6.797684       184.9744 
 150   0.0000       6.840230       186.1321 
 151   0.0000       6.850099       186.4007 
 152   0.0000       7.012049       190.8075 
 153   0.0000       7.146067       194.4544 
 154   0.0000       7.209390       196.1775 
 155   0.0000       7.260124       197.5580 
 156   0.0000       7.422798       201.9846 
 157   0.0000       7.958301       216.5564 
 158   0.0000       8.929986       242.9973 
 159   0.0000       9.293392       252.8860 
 160   0.0000       9.546986       259.7867 
 161   0.0000       9.562946       260.2210 
 162   0.0000       9.796812       266.5848 
 163   0.0000       9.861788       268.3529 
 164   0.0000       9.940334       270.4903 
[...]
  82   0.0000       2.406146        65.4746 
  83   0.0000       2.430020        66.1242 
  84   0.0000       2.499374        68.0114 
  85   0.0000       2.509562        68.2886 
  86   0.0000       2.586115        70.3718 
  87   0.0000       2.597859        70.6913 
  88   0.0000       2.642180        71.8974 
  89   0.0000       2.667271        72.5801 
  90   0.0000       2.692852        73.2762 
  91   0.0000       2.759744        75.0964 
  92   0.0000       2.835183        77.1492 
  93   0.0000       2.842228        77.3410 
  94   0.0000       2.855601        77.7049 
  95   0.0000       2.929313        79.7106 
  96   0.0000       2.936710        79.9120 
  97   0.0000       2.993233        81.4500 
  98   0.0000       3.067895        83.4817 
  99   0.0000       3.115833        84.7861 
 100   0.0000       3.141228        85.4772 
 101   0.0000       3.164823        86.1192 
 102   0.0000       3.171416        86.2986 
 103   0.0000       3.206635        87.2570 
 104   0.0000       3.285437        89.4013 
 105   0.0000       3.297071        89.7179 
 106   0.0000       3.334869        90.7464 
 107   0.0000       3.413184        92.8775 
 108   0.0000       3.417510        92.9952 
 109   0.0000       3.451628        93.9236 
 110   0.0000       3.533404        96.1488 
 111   0.0000       3.615317        98.3778 
 112   0.0000       3.625812        98.6634 
 113   0.0000       3.634551        98.9012 
 114   0.0000       3.680544       100.1527 
 115   0.0000       3.734555       101.6224 
 116   0.0000       3.836475       104.3958 
 117   0.0000       3.942802       107.2891 
 118   0.0000       4.115085       111.9772 
 119   0.0000       4.227848       115.0456 
 120   0.0000       4.261872       115.9714 
 121   0.0000       4.267348       116.1204 
 122   0.0000       4.286628       116.6451 
 123   0.0000       4.304702       117.1369 
 124   0.0000       4.332172       117.8844 
 125   0.0000       4.432332       120.6099 
 126   0.0000       4.511705       122.7697 
 127   0.0000       4.544612       123.6652 
 128   0.0000       4.569688       124.3475 
 129   0.0000       4.588152       124.8500 
 130   0.0000       4.624495       125.8389 
 131   0.0000       5.040218       137.1513 
 132   0.0000       5.117797       139.2623 
 133   0.0000       5.146258       140.0368 
 134   0.0000       5.315733       144.6484 
 135   0.0000       5.344202       145.4231 
 136   0.0000       5.386060       146.5621 
 137   0.0000       5.388502       146.6286 
 138   0.0000       5.563923       151.4020 
 139   0.0000       5.814822       158.2293 
 140   0.0000       5.841319       158.9504 
 141   0.0000       5.859472       159.4443 
 142   0.0000       5.958074       162.1274 
 143   0.0000       6.077354       165.3732 
 144   0.0000       6.127682       166.7427 
 145   0.0000       6.293988       171.2681 
 146   0.0000       6.528772       177.6569 
 147   0.0000       6.679943       181.7705 
 148   0.0000       6.734334       183.2505 
 149   0.0000       6.799217       185.0161 
 150   0.0000       6.827235       185.7785 
 151   0.0000       6.836089       186.0194 
 152   0.0000       7.048607       191.8023 
 153   0.0000       7.079747       192.6497 
 154   0.0000       7.200517       195.9360 
 155   0.0000       7.348323       199.9580 
 156   0.0000       7.551228       205.4794 
 157   0.0000       8.070539       219.6105 
 158   0.0000       8.906286       242.3524 
 159   0.0000       9.352454       254.4932 
 160   0.0000       9.516769       258.9645 
 161   0.0000       9.573345       260.5040 
 162   0.0000       9.816106       267.1098 
 163   0.0000       9.893273       269.2097 
 164   0.0000       9.992223       271.9022 
 165   0.0000      10.180483       277.0250 
 166   0.0000      11.271992       306.7265 
 167   0.0000      19.139520       520.8128 
 168   0.0000      22.416865       609.9939 
 169   0.0000      43.697976      1189.0824 
 170   0.0000      66.057484      1797.5155 
 171   0.0000     126.471097      3441.4535 

                    ********************************
                    * MULLIKEN POPULATION ANALYSIS *
                    ********************************

-----------------------
MULLIKEN ATOMIC CHARGES
-----------------------
   0 C :   -0.002643
   1 O :    0.000210
   2 H :   -0.000333
   3 H :   -0.000446
   4 H :   -0.001802
   5 H :   -0.001887
   6 C :   -0.153916
   7 O :   -0.481822
   8 H :    0.323724
   9 H :    0.121358
  10 H :    0.102918
  11 H :    0.094639
Sum of atomic charges:    0.0000000

--------------------------------
MULLIKEN REDUCED ORBITAL CHARGES
--------------------------------
  0 C s       :    -0.002020  s :    -0.002020
      pz      :     0.000437  p :     0.004680
      px      :     0.002851
      py      :     0.001392
      dz2     :     0.000007  d :    -0.000015
      dxz     :     0.000050
      dyz     :    -0.000028
      dx2y2   :    -0.000005
      dxy     :    -0.000039
      f0      :     0.000000  f :    -0.000002
      f+1     :     0.000000
      f-1     :     0.000000
      f+2     :     0.000000
      f-2     :    -0.000001
      f+3     :    -0.000000
      f-3     :    -0.000000
  1 O s       :    -0.000021  s :    -0.000021
      pz      :    -0.000047  p :    -0.000189
      px      :    -0.000106
      py      :    -0.000037
      dz2     :     0.000000  d :    -0.000000
      dxz     :    -0.000001
      dyz     :     0.000001
      dx2y2   :    -0.000000
      dxy     :    -0.000000
      f0      :    -0.000000  f :    -0.000000
      f+1     :    -0.000000
      f-1     :    -0.000000
      f+2     :    -0.000000
      f-2     :    -0.000000
      f+3     :     0.000000
      f-3     :    -0.000000
  2 H s       :     0.000335  s :     0.000335
      pz      :    -0.000002  p :    -0.000001
      px      :    -0.000000
      py      :     0.000000
  3 H s       :     0.000446  s :     0.000446
      pz      :    -0.000000  p :     0.000000
      px      :     0.000000
      py      :     0.000000
  4 H s       :     0.001800  s :     0.001800
      pz      :     0.000002  p :     0.000002
      px      :     0.000003
      py      :    -0.000003
  5 H s       :     0.001878  s :     0.001878
      pz      :     0.000002  p :     0.000008
      px      :     0.000001
      py      :     0.000006
  6 C s       :     3.226498  s :     3.226498
      pz      :     1.007634  p :     2.818011
      px      :     0.784890
      py      :     1.025487
      dz2     :     0.018815  d :     0.101419
      dxz     :     0.023303
      dyz     :     0.002870
      dx2y2   :     0.020401
      dxy     :     0.036031
      f0      :     0.001182  f :     0.007988
      f+1     :     0.001291
      f-1     :     0.000162
      f+2     :     0.001059
      f-2     :     0.000819
      f+3     :     0.001772
      f-3     :     0.001701
  7 O s       :     3.789429  s :     3.789429
      pz      :     1.657896  p :     4.661206
      px      :     1.209066
      py      :     1.794244
      dz2     :     0.003392  d :     0.029485
      dxz     :     0.011848
      dyz     :     0.003725
      dx2y2   :     0.003984
      dxy     :     0.006536
      f0      :     0.000145  f :     0.001702
      f+1     :     0.000251
      f-1     :     0.000060
      f+2     :     0.000325
      f-2     :     0.000258
      f+3     :     0.000336
      f-3     :     0.000326
  8 H s       :     0.631577  s :     0.631577
      pz      :     0.014671  p :     0.044698
      px      :     0.014984
      py      :     0.015043
  9 H s       :     0.858520  s :     0.858520
      pz      :     0.004900  p :     0.020123
      px      :     0.008065
      py      :     0.007157
 10 H s       :     0.877335  s :     0.877335
      pz      :     0.012359  p :     0.019747
      px      :     0.003289
      py      :     0.004100
 11 H s       :     0.886442  s :     0.886442
      pz      :     0.004133  p :     0.018920
      px      :     0.003166
      py      :     0.011621


                     *******************************
                     * LOEWDIN POPULATION ANALYSIS *
                     *******************************

----------------------
LOEWDIN ATOMIC CHARGES
----------------------
   0 C :   -0.005034
   1 O :   -0.000024
   2 H :   -0.000243
   3 H :   -0.000090
   4 H :   -0.001141
   5 H :   -0.002316
   6 C :   -0.392611
   7 O :   -0.081666
   8 H :    0.185943
   9 H :    0.104171
  10 H :    0.094302
  11 H :    0.098708

-------------------------------
LOEWDIN REDUCED ORBITAL CHARGES
-------------------------------
  0 C s       :     0.000456  s :     0.000456
      pz      :     0.000805  p :     0.004425
      px      :     0.002157
      py      :     0.001462
      dz2     :     0.000013  d :     0.000152
      dxz     :     0.000040
      dyz     :     0.000024
      dx2y2   :     0.000004
      dxy     :     0.000071
      f0      :     0.000000  f :     0.000002
      f+1     :     0.000000
      f-1     :     0.000000
      f+2     :     0.000000
      f-2     :     0.000001
      f+3     :     0.000000
      f-3     :     0.000000
  1 O s       :     0.000007  s :     0.000007
      pz      :     0.000006  p :     0.000017
      px      :     0.000004
      py      :     0.000006
      dz2     :     0.000000  d :     0.000001
      dxz     :     0.000000
      dyz     :     0.000000
      dx2y2   :     0.000000
      dxy     :     0.000000
      f0      :     0.000000  f :     0.000000
      f+1     :     0.000000
      f-1     :     0.000000
      f+2     :     0.000000
      f-2     :     0.000000
      f+3     :     0.000000
      f-3     :     0.000000
  2 H s       :     0.000243  s :     0.000243
      pz      :     0.000000  p :     0.000001
      px      :     0.000000
      py      :     0.000000
  3 H s       :     0.000087  s :     0.000087
      pz      :     0.000000  p :     0.000003
      px      :     0.000002
      py      :     0.000000
  4 H s       :     0.001138  s :     0.001138
      pz      :     0.000001  p :     0.000003
      px      :     0.000001
      py      :     0.000001
  5 H s       :     0.002302  s :     0.002302
      pz      :     0.000002  p :     0.000014
      px      :     0.000009
      py      :     0.000003
  6 C s       :     2.865783  s :     2.865783
      pz      :     1.069168  p :     3.049666
      px      :     0.900694
      py      :     1.079803
      dz2     :     0.092594  d :     0.418258
      dxz     :     0.088800
      dyz     :     0.017347
      dx2y2   :     0.088583
      dxy     :     0.130933
      f0      :     0.006782  f :     0.058905
      f+1     :     0.008464
      f-1     :     0.001933
      f+2     :     0.010749
      f-2     :     0.008979
      f+3     :     0.010014
      f-3     :     0.011984
  7 O s       :     3.368274  s :     3.368274
      pz      :     1.634534  p :     4.637362
      px      :     1.272332
      py      :     1.730496
      dz2     :     0.007226  d :     0.071535
      dxz     :     0.028171
      dyz     :     0.004336
      dx2y2   :     0.014515
      dxy     :     0.017287
      f0      :     0.000302  f :     0.004494
      f+1     :     0.000952
      f-1     :     0.000125
      f+2     :     0.000702
      f-2     :     0.000876
      f+3     :     0.000833
      f-3     :     0.000704
  8 H s       :     0.668167  s :     0.668167
      pz      :     0.053286  p :     0.145890
      px      :     0.048594
      py      :     0.044011
  9 H s       :     0.834350  s :     0.834350
      pz      :     0.015559  p :     0.061479
      px      :     0.023035
      py      :     0.022885
 10 H s       :     0.844413  s :     0.844413
      pz      :     0.037049  p :     0.061285
      px      :     0.010775
      py      :     0.013461
 11 H s       :     0.846192  s :     0.846192
      pz      :     0.012613  p :     0.055100
      px      :     0.009394
      py      :     0.033093


                      *****************************
                      * MAYER POPULATION ANALYSIS *
                      *****************************

  NA   - Mulliken gross atomic population
  ZA   - Total nuclear charge
  QA   - Mulliken gross atomic charge
  VA   - Mayer's total valence
  BVA  - Mayer's bonded valence
  FA   - Mayer's free valence

  ATOM       NA         ZA         QA         VA         BVA        FA
  0 C      0.0026     0.0000    -0.0026     0.0053     0.0053    -0.0000
  1 O     -0.0002     0.0000     0.0002    -0.0004    -0.0004     0.0000
  2 H      0.0003     0.0000    -0.0003     0.0007     0.0007    -0.0000
  3 H      0.0004     0.0000    -0.0004     0.0009     0.0009     0.0000
  4 H      0.0018     0.0000    -0.0018     0.0036     0.0036    -0.0000
  5 H      0.0019     0.0000    -0.0019     0.0038     0.0038    -0.0000
  6 C      6.1539     6.0000    -0.1539     3.9473     3.9473     0.0000
  7 O      8.4818     8.0000    -0.4818     1.8872     1.8872    -0.0000
  8 H      0.6763     1.0000     0.3237     0.9024     0.9024     0.0000
  9 H      0.8786     1.0000     0.1214     0.9542     0.9542     0.0000
 10 H      0.8971     1.0000     0.1029     0.9650     0.9650     0.0000
 11 H      0.9054     1.0000     0.0946     0.9547     0.9547     0.0000

  Mayer bond orders larger than 0.1
B(  6-C ,  7-O ) :   1.0054 B(  6-C ,  9-H ) :   0.9708 B(  6-C , 10-H ) :   0.9890 
B(  6-C , 11-H ) :   0.9693 B(  7-O ,  8-H ) :   0.8871 

-------
TIMINGS
-------

Total SCF time: 0 days 0 hours 0 min 11 sec 

Total time                  ....      11.338 sec
Sum of individual times     ....      11.005 sec  ( 97.1%)

Fock matrix formation       ....      10.442 sec  ( 92.1%)
  XC integration            ....       3.778 sec  ( 36.2% of F)
    Basis function eval.    ....       0.057 sec  (  1.5% of XC)
    Density eval.           ....       0.057 sec  (  1.5% of XC)
    XC-Functional eval.     ....       0.090 sec  (  2.4% of XC)
    XC-Potential eval.      ....       0.060 sec  (  1.6% of XC)
Diagonalization             ....       0.081 sec  (  0.7%)
Density matrix formation    ....       0.007 sec  (  0.1%)
Population analysis         ....       0.018 sec  (  0.2%)
Initial guess               ....       0.119 sec  (  1.1%)
Orbital Transformation      ....       0.000 sec  (  0.0%)
Orbital Orthonormalization  ....       0.000 sec  (  0.0%)
DIIS solution               ....       0.034 sec  (  0.3%)
SOSCF solution              ....       0.017 sec  (  0.2%)
Grid generation             ....       0.287 sec  (  2.5%)


-------------------------------------------------------------------------------
                          DFT DISPERSION CORRECTION                            
                                                                               
                              DFTD3 V3.1  Rev 1                                
                              USING zero damping                               
-------------------------------------------------------------------------------
The omegaB97X-D3 functional is recognized. Fit by Chai et al.
Active option DFTDOPT                   ...         3   

molecular C6(AA) [au] = 208.793571 


            DFT-D V3
 parameters
 s6 scaling factor         :     1.0000 
 rs6 scaling factor        :     1.2810 
 s8 scaling factor         :     1.0000 
 rs8 scaling factor        :     1.0940 
 Damping factor alpha6     :    14.0000 
 Damping factor alpha8     :    16.0000 
 ad hoc parameters k1-k3   :    16.0000     1.3333    -4.0000 

 Edisp/kcal,au: -0.154390636522  -0.000246037114 
 E6   /kcal   :  -0.033109374 
 E8   /kcal   :  -0.121281263 
 % E8         :  78.554804539 

-------------------------   ----------------
Dispersion correction           -0.000246037
-------------------------   ----------------


-------------------------   --------------------
FINAL SINGLE POINT ENERGY      -115.733754941038
-------------------------   --------------------


                            ***************************************
                            *     ORCA property calculations      *
                            ***************************************

                                    ---------------------
                                    Active property flags
                                    ---------------------
   (+) Dipole Moment


------------------------------------------------------------------------------
                       ORCA ELECTRIC PROPERTIES CALCULATION
------------------------------------------------------------------------------

Dipole Moment Calculation                       ... on
Quadrupole Moment Calculation                   ... off
Polarizability Calculation                      ... off
GBWName                                         ... 12-80_DFT_B.gbw
Electron density file                           ... 12-80_DFT_B.scfp.tmp
The origin for moment calculation is the CENTER OF MASS  = (-14.504774, -7.835822 18.062457)

-------------
DIPOLE MOMENT
-------------
                                X             Y             Z
Electronic contribution:      1.47464      -0.62457      -0.74832
Nuclear contribution   :     -1.50150       0.93287       1.33768
                        -----------------------------------------
Total Dipole Moment    :     -0.02687       0.30830       0.58936
                        -----------------------------------------
Magnitude (a.u.)       :      0.66567
Magnitude (Debye)      :      1.69200



--------------------
Rotational spectrum 
--------------------
 
Rotational constants in cm-1:     4.264189     0.832960     0.809627 
Rotational constants in MHz : 127837.166761 24971.516935 24272.006235 

 Dipole components along the rotational axes: 
x,y,z [a.u.] :    -0.283038     0.599815    -0.056838 
x,y,z [Debye]:    -0.719425     1.524608    -0.144471 

 
------------------------------------------------------------------------------
                      ORCA CHELPG CHARGES GENERATION
------------------------------------------------------------------------------

GBW file                           ... 12-80_DFT_B.gbw

Reading the GBW file               ... done

Grid spacing                       ...     0.300000
Point Cut-Off                      ...     2.800000
Van-der-Waals Radii                ...        COSMO
Total charge                       ...            0


Number of points X direction       ...           37
Number of points Y direction       ...           29
Number of points Z direction       ...           33
Maximum number of possible points  ...        35409
Final number of points             ...         6047


CHELPG Charges            
--------------------------------
  0   C   :      -0.012220
  1   O   :      -0.077411
  2   H   :       0.048595
  3   H   :       0.035296
  4   H   :      -0.001725
  5   H   :      -0.003767
  6   C   :       0.072071
  7   O   :      -0.588701
  8   H   :       0.402684
  9   H   :       0.085505
 10   H   :       0.015850
 11   H   :       0.023823
--------------------------------
Total charge:     0.000000
--------------------------------

CHELPG charges calculated...

Timings for individual parts in CHELPG calculation:
Grid generation                 ...        0.001 sec (=   0.000 min)
Potential calculation           ...        1.165 sec (=   0.019 min)
Fit to the potential            ...        0.002 sec (=   0.000 min)
------------------------------------------------------------------------------


Timings for individual modules:

Sum of individual times         ...       14.399 sec (=   0.240 min)
GTO integral calculation        ...        1.112 sec (=   0.019 min)   7.7 %
SCF iterations                  ...       12.090 sec (=   0.202 min)  84.0 %
CHELPG charge generation        ...        1.196 sec (=   0.020 min)   8.3 %



                             ****ORCA TERMINATED NORMALLY****
TOTAL RUN TIME: 0 days 0 hours 1 minutes 8 seconds 546 msec
