
                                 *****************
                                 * O   R   C   A *
                                 *****************

           --- An Ab Initio, DFT and Semiempirical electronic structure package ---

                  #######################################################
                  #                        -***-                        #
                  #          Department of theory and spectroscopy      #
                  #               Directorship: Frank Neese             #
                  #        Max Planck Institute fuer Kohlenforschung    #
                  #                Kaiser Wilhelm Platz 1               #
                  #                 D-45470 Muelheim/Ruhr               #
                  #                      Germany                        #
                  #                                                     #
                  #                  All rights reserved                #
                  #                        -***-                        #
                  #######################################################


                         Program Version 4.1.2  - RELEASE  -


 With contributions from (in alphabetic order):
   Daniel Aravena         : Magnetic Properties
   Michael Atanasov       : Ab Initio Ligand Field Theory
   Alexander A. Auer      : GIAO ZORA
   Ute Becker             : Parallelization
   Giovanni Bistoni       : ED, Open-shell LED
   Martin Brehm           : Molecular dynamics
   Dmytro Bykov           : SCF Hessian
   Vijay G. Chilkuri      : MRCI spin determinant printing
   Dipayan Datta          : RHF DLPNO-CCSD density
   Achintya Kumar Dutta   : EOM-CC, STEOM-CC
   Dmitry Ganyushin       : Spin-Orbit,Spin-Spin,Magnetic field MRCI
   Miquel Garcia          : C-PCM Hessian
   Yang Guo               : DLPNO-NEVPT2, CIM, IAO-localization
   Andreas Hansen         : Spin unrestricted coupled pair/coupled cluster methods
   Benjamin Helmich-Paris : CASSCF linear response (MC-RPA)
   Lee Huntington         : MR-EOM, pCC
   Robert Izsak           : Overlap fitted RIJCOSX, COSX-SCS-MP3, EOM
   Christian Kollmar      : KDIIS, OOCD, Brueckner-CCSD(T), CCSD density
   Simone Kossmann        : Meta GGA functionals, TD-DFT gradient, OOMP2, MP2 Hessian
   Martin Krupicka        : AUTO-CI
   Lucas Lang             : DCDCAS
   Dagmar Lenk            : GEPOL surface, SMD
   Dimitrios Liakos       : Extrapolation schemes; parallel MDCI
   Dimitrios Manganas     : ROCIS; embedding schemes
   Dimitrios Pantazis     : SARC Basis sets
   Taras Petrenko         : DFT Hessian,TD-DFT gradient, ASA, ECA, R-Raman, ABS, FL, XAS/XES, NRVS
   Peter Pinski           : DLPNO-MP2, DLPNO-MP2 Gradient
   Christoph Reimann      : Effective Core Potentials
   Marius Retegan         : Local ZFS, SOC
   Christoph Riplinger    : Optimizer, TS searches, QM/MM, DLPNO-CCSD(T), (RO)-DLPNO pert. Triples
   Tobias Risthaus        : Range-separated hybrids, TD-DFT gradient, RPA, STAB
   Michael Roemelt        : Restricted open shell CIS
   Masaaki Saitow         : Open-shell DLPNO
   Barbara Sandhoefer     : DKH picture change effects
   Avijit Sen             : IP-ROCIS
   Kantharuban Sivalingam : CASSCF convergence, NEVPT2, FIC-MRCI
   Bernardo de Souza      : ESD, SOC TD-DFT
   Georgi Stoychev        : AutoAux, RI-MP2 NMR
   Willem Van den Heuvel  : Paramagnetic NMR
   Boris Wezisla          : Elementary symmetry handling
   Frank Wennmohs         : Technical directorship


 We gratefully acknowledge several colleagues who have allowed us to
 interface, adapt or use parts of their codes:
   Stefan Grimme, W. Hujo, H. Kruse,             : VdW corrections, initial TS optimization,
                  C. Bannwarth                     DFT functionals, gCP, sTDA/sTD-DF
   Ed Valeev                                     : LibInt (2-el integral package), F12 methods
   Garnet Chan, S. Sharma, J. Yang, R. Olivares  : DMRG
   Ulf Ekstrom                                   : XCFun DFT Library
   Mihaly Kallay                                 : mrcc  (arbitrary order and MRCC methods)
   Andreas Klamt, Michael Diedenhofen            : otool_cosmo (COSMO solvation model)
   Jiri Pittner, Ondrej Demel                    : Mk-CCSD
   Frank Weinhold                                : gennbo (NPA and NBO analysis)
   Christopher J. Cramer and Donald G. Truhlar   : smd solvation model
   Lars Goerigk                                  : TD-DFT with DH, B97 family of functionals
   V. Asgeirsson, H. Jonsson                     : NEB implementation
   FAccTs GmbH                                   : IRC, NEB, NEB-TS, Multilevel


 Your calculation uses the libint2 library for the computation of 2-el integrals
 For citations please refer to: http://libint.valeyev.net

 This ORCA versions uses:
   CBLAS   interface :  Fast vector & matrix operations
   LAPACKE interface :  Fast linear algebra routines
   SCALAPACK package :  Parallel linear algebra routines


Your calculation utilizes the atom-pairwise dispersion correction
with the zero-damping scheme (D30)
Cite in your paper:
S.Grimme, J.Antony, S.Ehrlich and H.Krieg, J.Chem.Phys., 132, (2010), 154104 
   

XCFun DFT library Copyright 2009-2010 Ulf Ekstrom and contributors.
See http://admol.org/xcfun for more information. This is free soft-
ware; see the source code for copying conditions. There is ABSOLUTELY
NO WARRANTY; not even for MERCHANTABILITY or FITNESS FOR A PARTICULAR
PURPOSE. For details see the documentation. Scientific users of this 
library should cite U. Ekstrom, L. Visscher, R. Bast, A. J. Thorvald-
sen and K. Ruud; J.Chem.Theor.Comp. 2010, DOI: 10.1021/ct100117s
XCFun Version 0.99 
----- Orbital basis set information -----
Your calculation utilizes the basis: def2-TZVP
   F. Weigend and R. Ahlrichs, Phys. Chem. Chem. Phys. 7, 3297 (2005).

================================================================================
                                        WARNINGS
                       Please study these warnings very carefully!
================================================================================


INFO   : the flag for use of LIBINT has been found!

================================================================================
                                       INPUT FILE
================================================================================
NAME = 116.in
|  1> #Run DFT-D3 single point of the dimer
|  2> ! wB97X-D3 def2-TZVP TIGHTSCF  CHELPG PAL8
|  3> 
|  4> %base "116_charges"
|  5> 
|  6> %scf
|  7> MaxIter 1000
|  8> end
|  9> %output
| 10>   Print[ P_Mayer ] 1
| 11>   Print[ P_NatPop ] 1
| 12>   Print[ P_Hirshfeld ] 1
| 13>   Print[ P_Mulliken ] 1
| 14>   Print [ P_Loewdin ] 1
| 15> end
| 16> 
| 17> * xyz 0 1
| 18>   C                      0.504988             6.456761             8.654364            
| 19>   O                      1.728646             5.692379             8.806575            
| 20>   H                      2.400657             6.226533             8.308304            
| 21>   H                      -0.035491            6.603208             9.632987            
| 22>   H                      0.681086             7.468840             8.246916            
| 23>   H                      -0.176623            5.894841             8.038308            
| 24> *
| 25> 
| 26>                          ****END OF INPUT****
================================================================================

                       ****************************
                       * Single Point Calculation *
                       ****************************

---------------------------------
CARTESIAN COORDINATES (ANGSTROEM)
---------------------------------
  C      0.504988    6.456761    8.654364
  O      1.728646    5.692379    8.806575
  H      2.400657    6.226533    8.308304
  H     -0.035491    6.603208    9.632987
  H      0.681086    7.468840    8.246916
  H     -0.176623    5.894841    8.038308

----------------------------
CARTESIAN COORDINATES (A.U.)
----------------------------
  NO LB      ZA    FRAG     MASS         X           Y           Z
   0 C     6.0000    0    12.011    0.954289   12.201510   16.354378
   1 O     8.0000    0    15.999    3.266668   10.757037   16.642015
   2 H     1.0000    0     1.008    4.536584   11.766442   15.700419
   3 H     1.0000    0     1.008   -0.067068   12.478255   18.203707
   4 H     1.0000    0     1.008    1.287066   14.114062   15.584413
   5 H     1.0000    0     1.008   -0.333769   11.139635   15.190201

--------------------------------
INTERNAL COORDINATES (ANGSTROEM)
--------------------------------
 C      0   0   0     0.000000000000     0.00000000     0.00000000
 O      1   0   0     1.450788382711     0.00000000     0.00000000
 H      2   1   0     0.992569024944   103.58220048     0.00000000
 H      1   2   3     1.127504877763   112.43796085   228.03856106
 H      1   2   3     1.105137222497   112.75495232   347.95254779
 H      1   2   3     1.076973832949   108.59791836   112.14179817

---------------------------
INTERNAL COORDINATES (A.U.)
---------------------------
 C      0   0   0     0.000000000000     0.00000000     0.00000000
 O      1   0   0     2.741592721598     0.00000000     0.00000000
 H      2   1   0     1.875683626157   103.58220048     0.00000000
 H      1   2   3     2.130675433632   112.43796085   228.03856106
 H      1   2   3     2.088406690922   112.75495232   347.95254779
 H      1   2   3     2.035185597673   108.59791836   112.14179817

---------------------
BASIS SET INFORMATION
---------------------
There are 3 groups of distinct atoms

 Group   1 Type C   : 11s6p2d1f contracted to 5s3p2d1f pattern {62111/411/11/1}
 Group   2 Type O   : 11s6p2d1f contracted to 5s3p2d1f pattern {62111/411/11/1}
 Group   3 Type H   : 5s1p contracted to 3s1p pattern {311/1}

Atom   0C    basis set group =>   1
Atom   1O    basis set group =>   2
Atom   2H    basis set group =>   3
Atom   3H    basis set group =>   3
Atom   4H    basis set group =>   3
Atom   5H    basis set group =>   3


           ************************************************************
           *        Program running with 8 parallel MPI-processes     *
           *              working on a common directory               *
           ************************************************************
------------------------------------------------------------------------------
                           ORCA GTO INTEGRAL CALCULATION
------------------------------------------------------------------------------

                         BASIS SET STATISTICS AND STARTUP INFO

 # of primitive gaussian shells          ...   64
 # of primitive gaussian functions       ...  124
 # of contracted shells                  ...   38
 # of contracted basis functions         ...   86
 Highest angular momentum                ...    3
 Maximum contraction depth               ...    6
 Integral package used                   ... LIBINT
 Integral threshhold            Thresh   ...  2.500e-11
 Primitive cut-off              TCut     ...  2.500e-12


------------------------------ INTEGRAL EVALUATION ----------------------------


 * One electron integrals 
 Pre-screening matrix                    ... done
 Shell pair data                         ... done (   0.000 sec)



           ************************************************************
           *        Program running with 8 parallel MPI-processes     *
           *              working on a common directory               *
           ************************************************************
-------------------------------------------------------------------------------
                                 ORCA SCF
-------------------------------------------------------------------------------

------------
SCF SETTINGS
------------
Hamiltonian:
 Density Functional     Method          .... DFT(GTOs)
 Exchange Functional    Exchange        .... WB97X-D3
 Correlation Functional Correlation     .... WB97X-D3
 Gradients option       PostSCFGGA      .... off
 Hybrid DFT is turned on
   Fraction HF Exchange ScalHFX         ....  0.195728
   Scaling of DF-GGA-X  ScalDFX         ....  0.000000
   Scaling of DF-GGA-C  ScalDFC         ....  1.000000
   Scaling of DF-LDA-C  ScalLDAC        ....  1.000000
   Perturbative correction              ....  0.000000
   Density functional embedding theory  .... OFF
 Long-range corrected/Screened/Range-Separated Hybrid DFT is turned on
   Amount of maximum screened exact exchange              ....  0.804272
   Range separation parameter mu (erf(mu*r12)/r12)        ....  0.250000


General Settings:
 Integral files         IntName         .... 116_charges
 Hartree-Fock type      HFTyp           .... RHF
 Total Charge           Charge          ....    0
 Multiplicity           Mult            ....    1
 Number of Electrons    NEL             ....   18
 Basis Dimension        Dim             ....   86
 Nuclear Repulsion      ENuc            ....     39.5798664064 Eh

Convergence Acceleration:
 DIIS                   CNVDIIS         .... on
   Start iteration      DIISMaxIt       ....    12
   Startup error        DIISStart       ....  0.200000
   # of expansion vecs  DIISMaxEq       ....     5
   Bias factor          DIISBfac        ....   1.050
   Max. coefficient     DIISMaxC        ....  10.000
 Newton-Raphson         CNVNR           .... off
 SOSCF                  CNVSOSCF        .... on
   Start iteration      SOSCFMaxIt      ....   150
   Startup grad/error   SOSCFStart      ....  0.003300
 Level Shifting         CNVShift        .... on
   Level shift para.    LevelShift      ....    0.2500
   Turn off err/grad.   ShiftErr        ....    0.0010
 Zerner damping         CNVZerner       .... off
 Static damping         CNVDamp         .... on
   Fraction old density DampFac         ....    0.7000
   Max. Damping (<1)    DampMax         ....    0.9800
   Min. Damping (>=0)   DampMin         ....    0.0000
   Turn off err/grad.   DampErr         ....    0.1000
 Fernandez-Rico         CNVRico         .... off

SCF Procedure:
 Maximum # iterations   MaxIter         ....  1000
 SCF integral mode      SCFMode         .... Direct
   Integral package                     .... LIBINT
 Reset frequency        DirectResetFreq ....    20
 Integral Threshold     Thresh          ....  2.500e-11 Eh
 Primitive CutOff       TCut            ....  2.500e-12 Eh

Convergence Tolerance:
 Convergence Check Mode ConvCheckMode   .... Total+1el-Energy
 Convergence forced     ConvForced      .... 0
 Energy Change          TolE            ....  1.000e-08 Eh
 1-El. energy change                    ....  1.000e-05 Eh
 Orbital Gradient       TolG            ....  1.000e-05
 Orbital Rotation angle TolX            ....  1.000e-05
 DIIS Error             TolErr          ....  5.000e-07


Diagonalization of the overlap matrix:
Smallest eigenvalue                        ... 1.744e-03
Time for diagonalization                   ...    0.392 sec
Threshold for overlap eigenvalues          ... 1.000e-08
Number of eigenvalues below threshold      ... 0
Time for construction of square roots      ...    0.088 sec
Total time needed                          ...    0.480 sec

-------------------
DFT GRID GENERATION
-------------------

General Integration Accuracy     IntAcc      ...  4.340
Radial Grid Type                 RadialGrid  ... Gauss-Chebyshev
Angular Grid (max. acc.)         AngularGrid ... Lebedev-110
Angular grid pruning method      GridPruning ... 3 (G Style)
Weight generation scheme         WeightScheme... Becke
Basis function cutoff            BFCut       ...    1.0000e-11
Integration weight cutoff        WCut        ...    1.0000e-14
Grids for H and He will be reduced by one unit

# of grid points (after initial pruning)     ...   6548 (   0.0 sec)
# of grid points (after weights+screening)   ...   6373 (   0.6 sec)
nearest neighbour list constructed           ...    0.0 sec
Grid point re-assignment to atoms done       ...    0.0 sec
Grid point division into batches done        ...    0.0 sec
Reduced shell lists constructed in    0.0 sec

Total number of grid points                  ...     6373
Total number of batches                      ...      102
Average number of points per batch           ...       62
Average number of grid points per atom       ...     1062
Average number of shells per batch           ...    32.07 (84.40%)
Average number of basis functions per batch  ...    73.93 (85.96%)
Average number of large shells per batch     ...    30.79 (95.99%)
Average number of large basis fcns per batch ...    71.07 (96.14%)
Maximum spatial batch extension              ...  12.94, 15.54, 19.80 au
Average spatial batch extension              ...   0.40,  0.43,  0.52 au

Time for grid setup =    1.420 sec

------------------------------
INITIAL GUESS: MODEL POTENTIAL
------------------------------
Loading Hartree-Fock densities                     ... done
Calculating cut-offs                               ... done
Setting up the integral package                    ... done
Initializing the effective Hamiltonian             ... done
Starting the Coulomb interaction                   ... done (   0.0 sec)
Reading the grid                                   ... done
Mapping shells                                     ... done
Starting the XC term evaluation                    ... done (   0.1 sec)
  promolecular density results
     # of electrons  =     17.999816633
     EX              =    -14.407865177
     EC              =     -0.572553735
     EX+EC           =    -14.980418912
Transforming the Hamiltonian                       ... done (   0.0 sec)
Diagonalizing the Hamiltonian                      ... done (   0.0 sec)
Back transforming the eigenvectors                 ... done (   0.0 sec)
Now organizing SCF variables                       ... done
                      ------------------
                      INITIAL GUESS DONE (   1.9 sec)
                      ------------------
--------------
SCF ITERATIONS
--------------
ITER       Energy         Delta-E        Max-DP      RMS-DP      [F,P]     Damp
               ***  Starting incremental Fock matrix formation  ***
  0   -115.6496666529   0.000000000000 0.03605305  0.00146034  0.2404762 0.7000
  1   -115.6849402948  -0.035273641961 0.02085019  0.00103164  0.1176563 0.7000
                               ***Turning on DIIS***
  2   -115.7010381511  -0.016097856236 0.02820753  0.00184756  0.0429710 0.0000
  3   -115.7272801178  -0.026241966790 0.01762003  0.00068783  0.0604001 0.0000
  4   -115.7315892296  -0.004309111720 0.00406699  0.00013666  0.0060558 0.0000
                      *** Initiating the SOSCF procedure ***
                           *** Shutting down DIIS ***
                      *** Re-Reading the Fockian *** 
                      *** Removing any level shift *** 
ITER      Energy       Delta-E        Grad      Rot      Max-DP    RMS-DP
  5   -115.73168555  -0.0000963216  0.000465  0.000465  0.000657  0.000046
               *** Restarting incremental Fock matrix formation ***
  6   -115.73169405  -0.0000084955  0.000158  0.000214  0.000462  0.000028
  7   -115.73169490  -0.0000008504  0.000048  0.000108  0.000209  0.000012
  8   -115.73169497  -0.0000000706  0.000023  0.000022  0.000035  0.000001
  9   -115.73169497  -0.0000000066  0.000013  0.000010  0.000019  0.000001
                  ***Gradient check signals convergence***
              ***Rediagonalizing the Fockian in SOSCF/NRSCF***

               *****************************************************
               *                     SUCCESS                       *
               *           SCF CONVERGED AFTER  10 CYCLES          *
               *****************************************************

Setting up the final grid:

General Integration Accuracy     IntAcc      ...  4.670
Radial Grid Type                 RadialGrid  ... Gauss-Chebyshev
Angular Grid (max. acc.)         AngularGrid ... Lebedev-302
Angular grid pruning method      GridPruning ... 3 (G Style)
Weight generation scheme         WeightScheme... Becke
Basis function cutoff            BFCut       ...    1.0000e-11
Integration weight cutoff        WCut        ...    1.0000e-14
Grids for H and He will be reduced by one unit

# of grid points (after initial pruning)     ...  26000 (   0.0 sec)
# of grid points (after weights+screening)   ...  25200 (   1.8 sec)
nearest neighbour list constructed           ...    0.0 sec
Grid point re-assignment to atoms done       ...    0.0 sec
Grid point division into batches done        ...    0.2 sec
Reduced shell lists constructed in    0.2 sec

Total number of grid points                  ...    25200
Total number of batches                      ...      396
Average number of points per batch           ...       63
Average number of grid points per atom       ...     4200
Average number of shells per batch           ...    31.12 (81.89%)
Average number of basis functions per batch  ...    71.16 (82.74%)
Average number of large shells per batch     ...    29.75 (95.59%)
Average number of large basis fcns per batch ...    68.65 (96.47%)
Maximum spatial batch extension              ...  14.44, 16.58, 17.08 au
Average spatial batch extension              ...   0.30,  0.31,  0.34 au

Final grid set up in   10.1 sec
Final integration                            ... done (   0.5 sec)
Change in XC energy                          ...     0.000170891
Integrated number of electrons               ...    17.999987381
Previous integrated no of electrons          ...    17.999428810

----------------
TOTAL SCF ENERGY
----------------

Total Energy       :         -115.73152409 Eh           -3149.21487 eV

Components:
Nuclear Repulsion  :           39.57986641 Eh            1077.02292 eV
Electronic Energy  :         -155.31139049 Eh           -4226.23779 eV
One Electron Energy:         -235.64207982 Eh           -6412.14698 eV
Two Electron Energy:           80.33068933 Eh            2185.90919 eV

Virial components:
Potential Energy   :         -230.83081582 Eh           -6281.22583 eV
Kinetic Energy     :          115.09929173 Eh            3132.01096 eV
Virial Ratio       :            2.00549293


DFT components:
N(Alpha)           :        8.999993690617 electrons
N(Beta)            :        8.999993690617 electrons
N(Total)           :       17.999987381233 electrons
E(XC)              :      -10.621394381468 Eh       
DFET-embed. en.    :        0.000000000000 Eh       

---------------
SCF CONVERGENCE
---------------

  Last Energy change         ...   -2.7289e-09  Tolerance :   1.0000e-08
  Last MAX-Density change    ...    3.5402e-06  Tolerance :   1.0000e-07
  Last RMS-Density change    ...    1.8389e-07  Tolerance :   5.0000e-09
  Last Orbital Gradient      ...    1.9357e-06  Tolerance :   1.0000e-05
  Last Orbital Rotation      ...    2.2139e-06  Tolerance :   1.0000e-05

             **** THE GBW FILE WAS UPDATED (116_charges.gbw) ****
             **** DENSITY FILE WAS UPDATED (116_charges.scfp.tmp) ****
             **** ENERGY FILE WAS UPDATED (116_charges.en.tmp) ****
----------------
ORBITAL ENERGIES
----------------

  NO   OCC          E(Eh)            E(eV) 
   0   2.0000     -19.234555      -523.3989 
   1   2.0000     -10.318975      -280.7936 
   2   2.0000      -1.122001       -30.5312 
   3   2.0000      -0.790961       -21.5231 
   4   2.0000      -0.600852       -16.3500 
   5   2.0000      -0.534944       -14.5566 
   6   2.0000      -0.520662       -14.1679 
   7   2.0000      -0.440151       -11.9771 
   8   2.0000      -0.373230       -10.1561 
   9   0.0000       0.108685         2.9575 
  10   0.0000       0.150661         4.0997 
  11   0.0000       0.192581         5.2404 
  12   0.0000       0.206660         5.6235 
  13   0.0000       0.230863         6.2821 
  14   0.0000       0.300426         8.1750 
  15   0.0000       0.312836         8.5127 
  16   0.0000       0.384499        10.4628 
  17   0.0000       0.442249        12.0342 
  18   0.0000       0.478431        13.0188 
  19   0.0000       0.527737        14.3605 
  20   0.0000       0.545124        14.8336 
  21   0.0000       0.559052        15.2126 
  22   0.0000       0.593835        16.1591 
  23   0.0000       0.609913        16.5966 
  24   0.0000       0.697855        18.9896 
  25   0.0000       0.737059        20.0564 
  26   0.0000       0.784751        21.3542 
  27   0.0000       0.866325        23.5739 
  28   0.0000       0.983443        26.7608 
  29   0.0000       1.053096        28.6562 
  30   0.0000       1.104384        30.0518 
  31   0.0000       1.360652        37.0252 
  32   0.0000       1.442512        39.2527 
  33   0.0000       1.547763        42.1168 
  34   0.0000       1.602446        43.6048 
  35   0.0000       1.621383        44.1201 
  36   0.0000       1.626899        44.2702 
  37   0.0000       1.683059        45.7984 
  38   0.0000       1.715040        46.6686 
  39   0.0000       1.778839        48.4047 
  40   0.0000       1.958824        53.3023 
  41   0.0000       2.009578        54.6834 
  42   0.0000       2.039708        55.5033 
  43   0.0000       2.068657        56.2910 
  44   0.0000       2.148999        58.4772 
  45   0.0000       2.211204        60.1699 
  46   0.0000       2.288312        62.2681 
  47   0.0000       2.383249        64.8515 
  48   0.0000       2.389533        65.0225 
  49   0.0000       2.462830        67.0170 
  50   0.0000       2.487676        67.6931 
  51   0.0000       2.515396        68.4474 
  52   0.0000       2.613520        71.1175 
  53   0.0000       2.661469        72.4222 
  54   0.0000       2.779986        75.6473 
  55   0.0000       2.852267        77.6141 
  56   0.0000       2.901981        78.9669 
  57   0.0000       2.950997        80.3007 
  58   0.0000       3.084536        83.9345 
  59   0.0000       3.172510        86.3284 
  60   0.0000       3.225327        87.7656 
  61   0.0000       3.381963        92.0279 
  62   0.0000       3.460092        94.1539 
  63   0.0000       3.504404        95.3597 
  64   0.0000       3.564722        97.0010 
  65   0.0000       3.607803        98.1733 
  66   0.0000       3.645556        99.2006 
  67   0.0000       3.932180       107.0001 
  68   0.0000       4.216784       114.7445 
  69   0.0000       4.269128       116.1689 
  70   0.0000       4.431197       120.5790 
  71   0.0000       4.568947       124.3274 
  72   0.0000       5.345231       145.4511 
  73   0.0000       5.414321       147.3312 
  74   0.0000       5.508721       149.8999 
  75   0.0000       5.714208       155.4915 
  76   0.0000       5.769540       156.9972 
  77   0.0000       5.942654       161.7078 
  78   0.0000       6.213753       169.0848 
  79   0.0000       6.515745       177.3024 
  80   0.0000       6.770211       184.2268 
  81   0.0000       6.788179       184.7157 
  82   0.0000       7.003350       190.5708 
  83   0.0000       7.159591       194.8224 
  84   0.0000      22.273732       606.0991 
  85   0.0000      43.633968      1187.3406 

                    ********************************
                    * MULLIKEN POPULATION ANALYSIS *
                    ********************************

-----------------------
MULLIKEN ATOMIC CHARGES
-----------------------
   0 C :   -0.180140
   1 O :   -0.472782
   2 H :    0.317280
   3 H :    0.111309
   4 H :    0.109413
   5 H :    0.114919
Sum of atomic charges:    0.0000000

--------------------------------
MULLIKEN REDUCED ORBITAL CHARGES
--------------------------------
  0 C s       :     3.234377  s :     3.234377
      pz      :     1.075122  p :     2.842426
      px      :     0.820948
      py      :     0.946356
      dz2     :     0.005405  d :     0.096241
      dxz     :     0.037471
      dyz     :     0.009936
      dx2y2   :     0.023683
      dxy     :     0.019746
      f0      :     0.000983  f :     0.007094
      f+1     :     0.000944
      f-1     :     0.000340
      f+2     :     0.000343
      f-2     :     0.001468
      f+3     :     0.001907
      f-3     :     0.001110
  1 O s       :     3.815129  s :     3.815129
      pz      :     1.764965  p :     4.626689
      px      :     1.257723
      py      :     1.604002
      dz2     :     0.003131  d :     0.029484
      dxz     :     0.005987
      dyz     :     0.004929
      dx2y2   :     0.003374
      dxy     :     0.012062
      f0      :     0.000261  f :     0.001480
      f+1     :     0.000190
      f-1     :     0.000109
      f+2     :     0.000068
      f-2     :     0.000411
      f+3     :     0.000141
      f-3     :     0.000300
  2 H s       :     0.638508  s :     0.638508
      pz      :     0.016427  p :     0.044212
      px      :     0.014073
      py      :     0.013711
  3 H s       :     0.869628  s :     0.869628
      pz      :     0.010064  p :     0.019063
      px      :     0.005270
      py      :     0.003729
  4 H s       :     0.871824  s :     0.871824
      pz      :     0.005096  p :     0.018763
      px      :     0.002757
      py      :     0.010910
  5 H s       :     0.864048  s :     0.864048
      pz      :     0.007362  p :     0.021032
      px      :     0.007633
      py      :     0.006037


                     *******************************
                     * LOEWDIN POPULATION ANALYSIS *
                     *******************************

----------------------
LOEWDIN ATOMIC CHARGES
----------------------
   0 C :   -0.369939
   1 O :   -0.118619
   2 H :    0.187443
   3 H :    0.107735
   4 H :    0.098898
   5 H :    0.094482

-------------------------------
LOEWDIN REDUCED ORBITAL CHARGES
-------------------------------
  0 C s       :     2.877763  s :     2.877763
      pz      :     1.116795  p :     3.055418
      px      :     0.906921
      py      :     1.031701
      dz2     :     0.035844  d :     0.386579
      dxz     :     0.120869
      dyz     :     0.040399
      dx2y2   :     0.091053
      dxy     :     0.098413
      f0      :     0.006140  f :     0.050180
      f+1     :     0.006369
      f-1     :     0.003404
      f+2     :     0.003092
      f-2     :     0.008363
      f+3     :     0.012822
      f-3     :     0.009989
  1 O s       :     3.415426  s :     3.415426
      pz      :     1.711480  p :     4.634850
      px      :     1.305885
      py      :     1.617484
      dz2     :     0.005298  d :     0.064260
      dxz     :     0.015794
      dyz     :     0.006856
      dx2y2   :     0.011754
      dxy     :     0.024559
      f0      :     0.000497  f :     0.004083
      f+1     :     0.000347
      f-1     :     0.000185
      f+2     :     0.000162
      f-2     :     0.001201
      f+3     :     0.000848
      f-3     :     0.000843
  2 H s       :     0.667953  s :     0.667953
      pz      :     0.051671  p :     0.144603
      px      :     0.043243
      py      :     0.049689
  3 H s       :     0.837054  s :     0.837054
      pz      :     0.030097  p :     0.055211
      px      :     0.014225
      py      :     0.010889
  4 H s       :     0.841975  s :     0.841975
      pz      :     0.016514  p :     0.059127
      px      :     0.009716
      py      :     0.032897
  5 H s       :     0.841933  s :     0.841933
      pz      :     0.023073  p :     0.063585
      px      :     0.021332
      py      :     0.019179


                      *****************************
                      * MAYER POPULATION ANALYSIS *
                      *****************************

  NA   - Mulliken gross atomic population
  ZA   - Total nuclear charge
  QA   - Mulliken gross atomic charge
  VA   - Mayer's total valence
  BVA  - Mayer's bonded valence
  FA   - Mayer's free valence

  ATOM       NA         ZA         QA         VA         BVA        FA
  0 C      6.1801     6.0000    -0.1801     3.9481     3.9481     0.0000
  1 O      8.4728     8.0000    -0.4728     1.8885     1.8885    -0.0000
  2 H      0.6827     1.0000     0.3173     0.9088     0.9088    -0.0000
  3 H      0.8887     1.0000     0.1113     0.9556     0.9556     0.0000
  4 H      0.8906     1.0000     0.1094     0.9617     0.9617    -0.0000
  5 H      0.8851     1.0000     0.1149     0.9535     0.9535     0.0000

  Mayer bond orders larger than 0.1
B(  0-C ,  1-O ) :   1.0077 B(  0-C ,  3-H ) :   0.9732 B(  0-C ,  4-H ) :   0.9798 
B(  0-C ,  5-H ) :   0.9771 B(  1-O ,  2-H ) :   0.8986 


------------------
HIRSHFELD ANALYSIS
------------------

Total integrated alpha density =      8.999714405
Total integrated beta density  =      8.999714405

  ATOM     CHARGE      SPIN    
   0 C    0.006169    0.000000
   1 O   -0.256790    0.000000
   2 H    0.159751    0.000000
   3 H    0.031361    0.000000
   4 H    0.033157    0.000000
   5 H    0.026922    0.000000

  TOTAL   0.000571    0.000000

-------
TIMINGS
-------

Total SCF time: 0 days 0 hours 0 min 37 sec 

Total time                  ....      37.702 sec
Sum of individual times     ....      32.728 sec  ( 86.8%)

Fock matrix formation       ....      16.067 sec  ( 42.6%)
  XC integration            ....       3.741 sec  ( 23.3% of F)
    Basis function eval.    ....       0.037 sec  (  1.0% of XC)
    Density eval.           ....       0.105 sec  (  2.8% of XC)
    XC-Functional eval.     ....       0.076 sec  (  2.0% of XC)
    XC-Potential eval.      ....       0.034 sec  (  0.9% of XC)
Diagonalization             ....       0.830 sec  (  2.2%)
Density matrix formation    ....       1.936 sec  (  5.1%)
Population analysis         ....       0.388 sec  (  1.0%)
Initial guess               ....       0.510 sec  (  1.4%)
Orbital Transformation      ....       0.000 sec  (  0.0%)
Orbital Orthonormalization  ....       0.000 sec  (  0.0%)
DIIS solution               ....       0.314 sec  (  0.8%)
SOSCF solution              ....       1.203 sec  (  3.2%)
Grid generation             ....      11.481 sec  ( 30.5%)


-------------------------------------------------------------------------------
                          DFT DISPERSION CORRECTION                            
                                                                               
                              DFTD3 V3.1  Rev 1                                
                              USING zero damping                               
-------------------------------------------------------------------------------
The omegaB97X-D3 functional is recognized. Fit by Chai et al.
Active option DFTDOPT                   ...         3   

molecular C6(AA) [au] = 208.830813 


            DFT-D V3
 parameters
 s6 scaling factor         :     1.0000 
 rs6 scaling factor        :     1.2810 
 s8 scaling factor         :     1.0000 
 rs8 scaling factor        :     1.0940 
 Damping factor alpha6     :    14.0000 
 Damping factor alpha8     :    16.0000 
 ad hoc parameters k1-k3   :    16.0000     1.3333    -4.0000 

 Edisp/kcal,au: -0.165510350467  -0.000263757504 
 E6   /kcal   :  -0.033099586 
 E8   /kcal   :  -0.132410765 
 % E8         :  80.001501064 

-------------------------   ----------------
Dispersion correction           -0.000263758
-------------------------   ----------------


-------------------------   --------------------
FINAL SINGLE POINT ENERGY      -115.731787843364
-------------------------   --------------------


                            ***************************************
                            *     ORCA property calculations      *
                            ***************************************

                                    ---------------------
                                    Active property flags
                                    ---------------------
   (+) Dipole Moment


------------------------------------------------------------------------------
                       ORCA ELECTRIC PROPERTIES CALCULATION
------------------------------------------------------------------------------

Dipole Moment Calculation                       ... on
Quadrupole Moment Calculation                   ... off
Polarizability Calculation                      ... off
GBWName                                         ... 116_charges.gbw
Electron density file                           ... 116_charges.scfp.tmp
The origin for moment calculation is the CENTER OF MASS  = ( 2.159402, 11.502046 16.474758)

-------------
DIPOLE MOMENT
-------------
                                X             Y             Z
Electronic contribution:      1.51141      -1.07691       0.22910
Nuclear contribution   :     -1.58736       1.72692      -0.60452
                        -----------------------------------------
Total Dipole Moment    :     -0.07595       0.65002      -0.37542
                        -----------------------------------------
Magnitude (a.u.)       :      0.75447
Magnitude (Debye)      :      1.91772



--------------------
Rotational spectrum 
--------------------
 
Rotational constants in cm-1:     4.165169     0.798807     0.764428 
Rotational constants in MHz : 124868.624747 23947.641232 22916.965147 

 Dipole components along the rotational axes: 
x,y,z [a.u.] :    -0.409886     0.632711     0.030004 
x,y,z [Debye]:    -1.041848     1.608223     0.076265 

 
------------------------------------------------------------------------------
                      ORCA CHELPG CHARGES GENERATION
------------------------------------------------------------------------------

GBW file                           ... 116_charges.gbw

Reading the GBW file               ... done

Grid spacing                       ...     0.300000
Point Cut-Off                      ...     2.800000
Van-der-Waals Radii                ...        COSMO
Total charge                       ...            0


Number of points X direction       ...           27
Number of points Y direction       ...           24
Number of points Z direction       ...           23
Maximum number of possible points  ...        14904
Final number of points             ...         5939


CHELPG Charges            
--------------------------------
  0   C   :       0.073664
  1   O   :      -0.575248
  2   H   :       0.380216
  3   H   :       0.056640
  4   H   :       0.016694
  5   H   :       0.048035
--------------------------------
Total charge:     0.000000
--------------------------------

CHELPG charges calculated...

Timings for individual parts in CHELPG calculation:
Grid generation                 ...        0.001 sec (=   0.000 min)
Potential calculation           ...        0.709 sec (=   0.012 min)
Fit to the potential            ...        0.001 sec (=   0.000 min)
------------------------------------------------------------------------------


Timings for individual modules:

Sum of individual times         ...       45.337 sec (=   0.756 min)
GTO integral calculation        ...        5.285 sec (=   0.088 min)  11.7 %
SCF iterations                  ...       39.298 sec (=   0.655 min)  86.7 %
CHELPG charge generation        ...        0.755 sec (=   0.013 min)   1.7 %
                             ****ORCA TERMINATED NORMALLY****
TOTAL RUN TIME: 0 days 0 hours 0 minutes 46 seconds 630 msec
