LAMMPS data file via vdw_self_gen.py, on 2021-08-05 13:24:24.605983

7000 atoms
5 atom types
6500 bonds
5 bond types
12000 angles
8 angle types
13500 dihedrals
7 dihedral types

-47.4402666602831076  47.4402666602831076 xlo xhi
-47.4402666602831076  47.4402666602831076 ylo yhi
-47.4402666602831076  47.4402666602831076 zlo zhi

Masses

1  35.452700
2  1.007940
3  1.007940
4  12.011000
5  12.011000

Atoms

1         0    1   -0.1873450000000000  -26.5412956306650649  28.3160195927525926 -38.6892054215150125 0 0 0
2         0    5   -0.0790670000000000  -25.6797467931746439  26.7982607662614711 -38.3470943398073274 0 0 0
3         0    4    0.0690980000000000  -26.5898258731292323  25.7579146560137673 -37.7017804907993579 0 0 0
4         0    4    0.0690980000000000  -27.2076467113233349  26.1599402850668312 -36.3547175099860596 0 0 0
5         0    5   -0.0790670000000000  -26.2122678011858774  26.5115914090208733 -35.2527193918499933 0 0 0
6         0    1   -0.1873450000000000  -25.1448123918736783  25.1444182789952180 -34.8598234984304014 0 0 0
7         0    2    0.0846130000000000  -24.8199593016976401  27.0343101349443096 -37.7134177411040810 0 0 0
8         0    2    0.0846130000000000  -25.2985508296377759  26.4206789383653273 -39.3004035179996976 0 0 0
9         0    3    0.0140440000000000  -26.0214512863748269  24.8286463753974687 -37.5808564908151084 0 0 0
10        0    3    0.0140440000000000  -27.4067383310215007  25.5178614956112675 -38.3954551423624579 0 0 0
11        0    3    0.0140440000000000  -27.8466580776195798  25.3370743584813667 -36.0108372837315471 0 0 0
12        0    3    0.0140440000000000  -27.8778433236351724  27.0152723697165236 -36.5002890704453264 0 0 0
13        0    2    0.0846130000000000  -26.7493180127876897  26.7761571225338848 -34.3362978030319397 0 0 0
14        0    2    0.0846130000000000  -25.5837374380759712  27.3617060190410903 -35.5288948212044247 0 0 0
15        1    1   -0.1873450000000000   28.0496795429617940 -38.3171330803878121  14.3294350915449940 0 0 0
16        1    5   -0.0790670000000000   26.8498477555507193 -38.4715121993768037  15.6330719338205313 0 0 0
17        1    4    0.0690980000000000   25.6566817635780744 -37.5443854156907548  15.4238238342547476 0 0 0
18        1    4    0.0690980000000000   25.9812362183944288 -36.0442493195931775  15.3773268682894955 0 0 0
19        1    5   -0.0790670000000000   26.6711849318228182 -35.4812568997795665  16.6166201540660801 0 0 0
20        1    1   -0.1873450000000000   25.6751142061166959 -35.6736924394521893  18.0773741627418012 0 0 0
21        1    2    0.0846130000000000   27.3561794852736426 -38.2734592641133347  16.5822310780157061 0 0 0
22        1    2    0.0846130000000000   26.5157621732979045 -39.5131229763178169  15.6435886676831633 0 0 0
23        1    3    0.0140440000000000   24.9261829171435991 -37.7362587553970812  16.2180327984876165 0 0 0
24        1    3    0.0140440000000000   25.1533635214167184 -37.8153438995587763  14.4860561375262087 0 0 0
25        1    3    0.0140440000000000   25.0462891118274804 -35.4957889144950798  15.2077315813216032 0 0 0
26        1    3    0.0140440000000000   26.6115183347822963 -35.8331126183121143  14.5054820996903029 0 0 0
27        1    2    0.0846130000000000   26.8520868062414060 -34.4094015589402531  16.4875964541265212 0 0 0
28        1    2    0.0846130000000000   27.6347250337944139 -35.9630751816679677  16.7995402197523696 0 0 0
29        2    1   -0.1873450000000000  -28.4564685620564717  27.9060314066485873  36.3793102205867953 0 0 0
30        2    5   -0.0790670000000000  -27.4361784035093841  26.6337220426897900  35.6699900377675618 0 0 0
31        2    4    0.0690980000000000  -27.0187762174772210  25.5933492223714261  36.7045883822657402 0 0 0
32        2    4    0.0690980000000000  -26.1993051656325342  26.1259396994443875  37.8889533799416114 0 0 0
33        2    5   -0.0790670000000000  -24.8932538538107515  26.8258758314914836  37.5240466493328952 0 0 0
34        2    1   -0.1873450000000000  -23.7757196241193860  25.7420442988397582  36.6641530188773928 0 0 0
35        2    2    0.0846130000000000  -26.5702951255045328  27.1154157176416888  35.2066141438294835 0 0 0
36        2    2    0.0846130000000000  -28.0183712270672771  26.1574555998322005  34.8756987938239646 0 0 0
37        2    3    0.0140440000000000  -26.4539878914734246  24.8050405512216798  36.1939070650042325 0 0 0
38        2    3    0.0140440000000000  -27.9178371985069838  25.1039025691226101  37.1024417873200889 0 0 0
39        2    3    0.0140440000000000  -25.9801453871763712  25.2861559293023674  38.5600939615734291 0 0 0
40        2    3    0.0140440000000000  -26.8118975219360287  26.8216423531704180  38.4743387026112913 0 0 0
41        2    2    0.0846130000000000  -24.3835351415060302  27.1606954260032971  38.4330731332470705 0 0 0
42        2    2    0.0846130000000000  -25.0640804824255703  27.7025811544222940  36.8945832469011989 0 0 0
43        3    1   -0.1873450000000000  -4.7212703962466911   4.2129005595790776   2.8913249820876308  0 0 0
44        3    5   -0.0790670000000000  -6.0078229713476521   4.3395286934301520   4.1126545994385211  0 0 0
45        3    4    0.0690980000000000  -6.0447878556904158   5.7192394922974810   4.7622895995842853  0 0 0
46        3    4    0.0690980000000000  -4.7680650438391661   6.1378395743652971   5.5056997836626751  0 0 0
47        3    5   -0.0790670000000000  -4.3307288670489577   5.2108950013569748   6.6363404724497599  0 0 0
48        3    1   -0.1873450000000000  -5.5651347586310056   5.0882994649902686   7.9107827154292112  0 0 0
49        3    2    0.0846130000000000  -5.8510010993728443   3.5475144417488371   4.8506384693869151  0 0 0
50        3    2    0.0846130000000000  -6.9562906437320375   4.1404044275740848   3.6052736875103824  0 0 0
51        3    3    0.0140440000000000  -6.8971543972151110   5.7547805586940317   5.4503447815926940  0 0 0
52        3    3    0.0140440000000000  -6.2546665961832790   6.4722495926985797   3.9908735582142203  0 0 0
53        3    3    0.0140440000000000  -4.9205507066245335   7.1468598308395839   5.9085939559579126  0 0 0
54        3    3    0.0140440000000000  -3.9408465236534886   6.2252964487811395   4.7915510817950437  0 0 0
55        3    2    0.0846130000000000  -3.4201889355358639   5.5982765873555724   7.1044206097653140  0 0 0
56        3    2    0.0846130000000000  -4.1174615653193261   4.2018856867293017   6.2751820635658380  0 0 0
57        4    1   -0.1873450000000000   37.5075900943470373  17.0920095313982756  3.0173996164104122  0 0 0
58        4    5   -0.0790670000000000   36.8520623635001456  17.3512738442489507  4.6501775122593187  0 0 0
59        4    4    0.0690980000000000   37.5538870422836837  16.4852281196128345  5.6915232030315330  0 0 0
60        4    4    0.0690980000000000   37.4502900845232034  14.9688061610487892  5.4732619313235995  0 0 0
61        4    5   -0.0790670000000000   36.0325814276685037  14.4063327104029160  5.4226326739937019  0 0 0
62        4    1   -0.1873450000000000   35.1473650930162336  14.6971144169058245  6.9375018569359321  0 0 0
63        4    2    0.0846130000000000   35.7766047119946649  17.1543741162351608  4.6166931334173889  0 0 0
64        4    2    0.0846130000000000   36.9906706606102276  18.4095116044133178  4.8901720362271526  0 0 0
65        4    3    0.0140440000000000   37.1546502715778431  16.7407821907008802  6.6797104017275579  0 0 0
66        4    3    0.0140440000000000   38.6180175085547646  16.7550676243660490  5.7226519410118408  0 0 0
67        4    3    0.0140440000000000   38.0059081702414616  14.4676885398500943  6.2756752549585748  0 0 0
68        4    3    0.0140440000000000   37.9628184858722619  14.6971950738839041  4.5429449914909004  0 0 0
69        4    2    0.0846130000000000   36.0669940695996161  13.3227577917426814  5.2712139145026971  0 0 0
70        4    2    0.0846130000000000   35.4523525392930807  14.8397693565114288  4.6044118931497824  0 0 0
71        5    1   -0.1873450000000000   27.1735775924973879  18.1506335225063715 -37.8748568915321897 0 0 0
72        5    5   -0.0790670000000000   27.7128001573941880  16.7678708530287501 -36.8950075804617441 0 0 0
73        5    4    0.0690980000000000   27.1619717240052410  15.4460350105948514 -37.4206804513874900 0 0 0
74        5    4    0.0690980000000000   25.6312699580198711  15.3262111234684522 -37.4430457925024882 0 0 0
75        5    5   -0.0790670000000000   24.9372996631327624  15.5036074342663390 -36.0955394589998946 0 0 0
76        5    1   -0.1873450000000000   25.4597603780463899  14.2825894378391176 -34.9126867821323117 0 0 0
77        5    2    0.0846130000000000   27.4107622903506005  16.9503737959689715 -35.8596498309906053 0 0 0
78        5    2    0.0846130000000000   28.8061944525423392  16.7555841023435050 -36.9268625595870148 0 0 0
79        5    3    0.0140440000000000   27.5839557039798073  14.6322131233771291 -36.8199847892338354 0 0 0
80        5    3    0.0140440000000000   27.5333092390778020  15.2845537014957351 -38.4415566645550726 0 0 0
81        5    3    0.0140440000000000   25.3698106429469341  14.3430459272503334 -37.8538044721514595 0 0 0
82        5    3    0.0140440000000000   25.2169949743554866  16.0604113999995555 -38.1439550200430588 0 0 0
83        5    2    0.0846130000000000   23.8549288135154214  15.3939213113907201 -36.2167367087506804 0 0 0
84        5    2    0.0846130000000000   25.1272162123377321  16.4908603377912861 -35.6674255207548825 0 0 0
85        6    1   -0.1873450000000000   26.1427770172553622 -28.8727920545152905  25.5162508067086513 0 0 0
86        6    5   -0.0790670000000000   25.5627337024265024 -27.2244292205391787  25.1855727646668868 0 0 0
87        6    4    0.0690980000000000   26.6581134712137739 -26.1822138944541969  25.3878703197808662 0 0 0
88        6    4    0.0690980000000000   27.2475671236202146 -26.1042857099138281  26.8036307015259361 0 0 0
89        6    5   -0.0790670000000000   26.2476714438590584 -25.8074832844207869  27.9176120702733819 0 0 0
90        6    1   -0.1873450000000000   25.4412337937810378 -24.2392395022626204  27.6868300136508978 0 0 0
91        6    2    0.0846130000000000   24.6989519811432530 -27.0356375176837354  25.8295748590811129 0 0 0
92        6    2    0.0846130000000000   25.2164813520135205 -27.2053575344174625  24.1480649963962293 0 0 0
93        6    3    0.0140440000000000   26.2595028705528826 -25.2018170662586130  25.1030133902446408 0 0 0
94        6    3    0.0140440000000000   27.4781675846262878 -26.3843829192878623  24.6858767711117686 0 0 0
95        6    3    0.0140440000000000   28.0283272555868592 -25.3335152031957058  26.8085206611281386 0 0 0
96        6    3    0.0140440000000000   27.7580585888811520 -27.0453510990073980  27.0397280347296345 0 0 0
97        6    2    0.0846130000000000   26.7651789313235042 -25.7661523608133862  28.8813154635287965 0 0 0
98        6    2    0.0846130000000000   25.4750866859185763 -26.5771944354319025  27.9859909493750862 0 0 0
99        7    1   -0.1873450000000000  -2.8216453449923762  -36.3096817507846836 -37.7579991922295051 0 0 0
100       7    5   -0.0790670000000000  -4.5420617706406619  -36.1015877737235655 -38.1577021645357490 0 0 0
101       7    4    0.0690980000000000  -5.3944780355828330  -35.8767990618629753 -36.9127722585241429 0 0 0
102       7    4    0.0690980000000000  -5.3755800026067355  -37.0135661053402458 -35.8806339819286180 0 0 0
103       7    5   -0.0790670000000000  -5.8284369891868204  -38.3771679587655541 -36.3947818936628593 0 0 0
104       7    1   -0.1873450000000000  -7.5060972870452334  -38.3419863434929127 -36.9840261387229532 0 0 0
105       7    2    0.0846130000000000  -4.8667805623812468  -36.9830015463766841 -38.7182084841860714 0 0 0
106       7    2    0.0846130000000000  -4.6173199285815416  -35.2363028259080266 -38.8227547619648661 0 0 0
107       7    3    0.0140440000000000  -6.4264153672612245  -35.6875337219768198 -37.2297829785420333 0 0 0
108       7    3    0.0140440000000000  -5.0636286548417795  -34.9558036471985929 -36.4143124915113461 0 0 0
109       7    3    0.0140440000000000  -6.0108069279527108  -36.7205264063207935 -35.0354642016394209 0 0 0
110       7    3    0.0140440000000000  -4.3645128432497637  -37.1179673314132046 -35.4697919968975413 0 0 0
111       7    2    0.0846130000000000  -5.7853197316453429  -39.1133256197562247 -35.5857953206798143 0 0 0
112       7    2    0.0846130000000000  -5.1928869144721341  -38.7365424301625012 -37.2077666580578210 0 0 0
113       8    1   -0.1873450000000000  -7.0467948148851463  -27.7367095806828274  3.8478951250145181  0 0 0
114       8    5   -0.0790670000000000  -5.3132515483140814  -27.3515665727595874  3.9448015405603520  0 0 0
115       8    4    0.0690980000000000  -4.8249825669604549  -27.2752381100420322  5.3879790390777860  0 0 0
116       8    4    0.0690980000000000  -5.5034166086231622  -26.2116167941211984  6.2633891236850152  0 0 0
117       8    5   -0.0790670000000000  -5.3901543844035169  -24.7752051993491733  5.7606656021850542  0 0 0
118       8    1   -0.1873450000000000  -3.6973213781779912  -24.2417534595137738  5.6478105814724371  0 0 0
119       8    2    0.0846130000000000  -5.1463249109934104  -26.4122888277576813  3.4096448511721222  0 0 0
120       8    2    0.0846130000000000  -4.7761744975448703  -28.1406131942153444  3.4103574749124026  0 0 0
121       8    3    0.0140440000000000  -3.7423486808032260  -27.1048844706978578  5.3782154277431733  0 0 0
122       8    3    0.0140440000000000  -4.9669936593620143  -28.2538439094823524  5.8658069838829157  0 0 0
123       8    3    0.0140440000000000  -5.0754493343170033  -26.2728887170844558  7.2717478063864354  0 0 0
124       8    3    0.0140440000000000  -6.5664022630129235  -26.4547978213539636  6.3768441366001669  0 0 0
125       8    2    0.0846130000000000  -5.8973177453039716  -24.0968408973794297  6.4541017377975995  0 0 0
126       8    2    0.0846130000000000  -5.8490379677385960  -24.6516042477622754  4.7767109299504122  0 0 0
127       9    1   -0.1873450000000000   25.5916466238554392 -35.4866961763567090  34.7742543008518510 0 0 0
128       9    5   -0.0790670000000000   26.3591236758677958 -37.0208921844043957  35.2434235992132585 0 0 0
129       9    4    0.0690980000000000   25.7309070766918317 -37.6125095732702022  36.5013292770410374 0 0 0
130       9    4    0.0690980000000000   25.8183659297276762 -36.7391671213695261  37.7613014114685299 0 0 0
131       9    5   -0.0790670000000000   27.2288639378770938 -36.3561670227663569  38.2002135138039520 0 0 0
132       9    1   -0.1873450000000000   28.2173003879448778 -37.7845158404361356  38.5820559428748169 0 0 0
133       9    2    0.0846130000000000   27.4295636373708298 -36.8365331961631455  35.3725356395970465 0 0 0
134       9    2    0.0846130000000000   26.2380275771323106 -37.7129188806119657  34.4049061126889271 0 0 0
135       9    3    0.0140440000000000   26.1979389608036755 -38.5845682676374366  36.6967645244454133 0 0 0
136       9    3    0.0140440000000000   24.6716383487740245 -37.8263607943282665  36.3054379214191840 0 0 0
137       9    3    0.0140440000000000   25.3195824720130780 -37.2695885773756572  38.5820118419606786 0 0 0
138       9    3    0.0140440000000000   25.2423278263363109 -35.8188332774343081  37.6092709127233746 0 0 0
139       9    2    0.0846130000000000   27.1834970260706505 -35.7429492795916559  39.1058361271307575 0 0 0
140       9    2    0.0846130000000000   27.7510683217364189 -35.7800923313369807  37.4324513978639573 0 0 0
141       10   1   -0.1873450000000000  -37.1543877460471421  35.2864038178906370  3.1680915363548223  0 0 0
142       10   5   -0.0790670000000000  -37.6315147125335017  35.4643253894918757  4.8720844997236377  0 0 0
143       10   4    0.0690980000000000  -37.9258612826855028  36.9166723679165329  5.2340821178103907  0 0 0
144       10   4    0.0690980000000000  -36.7553011265908012  37.8950776051432427  5.0596746021153516  0 0 0
145       10   5   -0.0790670000000000  -35.4970805580750408  37.5651851321428865  5.8577281700677810  0 0 0
146       10   1   -0.1873450000000000  -35.8052199919877268  37.5511784416605465  7.6092545053792708  0 0 0
147       10   2    0.0846130000000000  -36.8327963902262283  35.0456082528581234  5.4911360870731114  0 0 0
148       10   2    0.0846130000000000  -38.5263131918756443  34.8533893249027003  5.0229804736636350  0 0 0
149       10   3    0.0140440000000000  -38.2790642753508337  36.9498427083503316  6.2710773909373998  0 0 0
150       10   3    0.0140440000000000  -38.7654616324281207  37.2744235904377490  4.6231473247296142  0 0 0
151       10   3    0.0140440000000000  -37.1022430755553358  38.8983772896417790  5.3366556421412392  0 0 0
152       10   3    0.0140440000000000  -36.4849843054291156  37.9568295239174347  3.9989846992102929  0 0 0
153       10   2    0.0846130000000000  -34.7284065400978790  38.3217773098202983  5.6707655915549067  0 0 0
154       10   2    0.0846130000000000  -35.0831576941998406  36.5927017689086256  5.5803077196789443  0 0 0
155       11   1   -0.1873450000000000   35.3178432940618805  13.9186912877196747  25.3562543368746205 0 0 0
156       11   5   -0.0790670000000000   35.5380185491966643  15.6825052267244764  25.4144049396114831 0 0 0
157       11   4    0.0690980000000000   37.0110922121066324  16.0760149060566917  25.3675216748698773 0 0 0
158       11   4    0.0690980000000000   37.8778465483339133  15.5434531694888474  26.5177480813547390 0 0 0
159       11   5   -0.0790670000000000   37.4332994233841561  15.9500704160653175  27.9198457272359022 0 0 0
160       11   1   -0.1873450000000000   37.4468022306621222  17.7153250749016991  28.1359111456907272 0 0 0
161       11   2    0.0846130000000000   35.0473486656640887  16.0536962958752127  26.3188164180198889 0 0 0
162       11   2    0.0846130000000000   35.0118419017166218  16.1028104515910471  24.5523385603827471 0 0 0
163       11   3    0.0140440000000000   37.0760707882253513  17.1696436201756129  25.3364436713919474 0 0 0
164       11   3    0.0140440000000000   37.4448080375327947  15.7260667184817677  24.4211692803106750 0 0 0
165       11   3    0.0140440000000000   38.9086508502471133  15.8827411777189820  26.3564297376102559 0 0 0
166       11   3    0.0140440000000000   37.9150189320538757  14.4487335490682725  26.4713291201987140 0 0 0
167       11   2    0.0846130000000000   38.1161266531047147  15.5280621964894330  28.6640919982796483 0 0 0
168       11   2    0.0846130000000000   36.4270244367928342  15.5900969909641081  28.1475471103708017 0 0 0
169       12   1   -0.1873450000000000  -16.8721616849725997 -4.8273581419958855  -2.8694995371358782  0 0 0
170       12   5   -0.0790670000000000  -16.0253506778669141 -4.0162919940515405  -4.2066536303141255  0 0 0
171       12   4    0.0690980000000000  -16.4734219833835169 -4.5398550820973256  -5.5675752748655576  0 0 0
172       12   4    0.0690980000000000  -16.2351990263695320 -6.0365322588800634  -5.8147859543460330  0 0 0
173       12   5   -0.0790670000000000  -14.7855666977588598 -6.4998493762003875  -5.7019103558102415  0 0 0
174       12   1   -0.1873450000000000  -13.7328940402864212 -5.6834204964374031  -6.8801780511574684  0 0 0
175       12   2    0.0846130000000000  -14.9503031599669001 -4.1491203515361095  -4.0545703360146446  0 0 0
176       12   2    0.0846130000000000  -16.2444610636585338 -2.9474677318252467  -4.1273937797295694  0 0 0
177       12   3    0.0140440000000000  -15.9693275892240116 -3.9556593876823554  -6.3459171370340837  0 0 0
178       12   3    0.0140440000000000  -17.5456956256390590 -4.3382167529362903  -5.6929835131802102  0 0 0
179       12   3    0.0140440000000000  -16.6133635028356856 -6.2838434471899509  -6.8145490634252912  0 0 0
180       12   3    0.0140440000000000  -16.8408168037044099 -6.6239487763346245  -5.1147027477216254  0 0 0
181       12   2    0.0846130000000000  -14.7213872475813439 -7.5742989295730645  -5.9011228816015331  0 0 0
182       12   2    0.0846130000000000  -14.3779619780733761 -6.3201076337001556  -4.7041280981041300  0 0 0
183       13   1   -0.1873450000000000   35.4243385127154653 -13.8761545044704615  16.8909712972175754 0 0 0
184       13   5   -0.0790670000000000   35.3012481665736644 -15.4621912635420156  16.0958396021126333 0 0 0
185       13   4    0.0690980000000000   36.4283606818089467 -16.4004955556258167  16.5155971012202549 0 0 0
186       13   4    0.0690980000000000   37.8496547199495623 -15.9183258806013406  16.1910335012390512 0 0 0
187       13   5   -0.0790670000000000   38.1307328771548555 -15.6428488916212789  14.7166030897972018 0 0 0
188       13   1   -0.1873450000000000   37.9173652693217846 -17.0975337494557706  13.7159249049072614 0 0 0
189       13   2    0.0846130000000000   35.2919709983836611 -15.2972244150686034  15.0145442031789571 0 0 0
190       13   2    0.0846130000000000   34.3347646364480141 -15.8907729006976499  16.3767384360170603 0 0 0
191       13   3    0.0140440000000000   36.2575742847680260 -17.3769832656767598  16.0481405998158486 0 0 0
192       13   3    0.0140440000000000   36.3643569650127034 -16.5745493049181185  17.5980779659442277 0 0 0
193       13   3    0.0140440000000000   38.5593630103813112 -16.6710379366755284  16.5563226641401791 0 0 0
194       13   3    0.0140440000000000   38.0654227137768899 -15.0062573904816041  16.7598241442443978 0 0 0
195       13   2    0.0846130000000000   39.1667341641725528 -15.3127021254720965  14.5903061337812332 0 0 0
196       13   2    0.0846130000000000   37.4799055226153470 -14.8608338970141389  14.3179874377052307 0 0 0
197       14   1   -0.1873450000000000  -37.8335993932978809 -36.8907812787031730 -28.8477564412415362 0 0 0
198       14   5   -0.0790670000000000  -37.5063941314948508 -35.8231725321391963 -27.4635431166746606 0 0 0
199       14   4    0.0690980000000000  -36.2270076389090221 -36.2142411103990582 -26.7305837083260727 0 0 0
200       14   4    0.0690980000000000  -36.2084984475396112 -37.6297319448122494 -26.1356475971955398 0 0 0
201       14   5   -0.0790670000000000  -37.3157697157534898 -37.9361938128507887 -25.1312228851705939 0 0 0
202       14   1   -0.1873450000000000  -37.2467611228974391 -36.8604345234486885 -23.7166662879369916 0 0 0
203       14   2    0.0846130000000000  -38.3776027543291036 -35.8516320361759782 -26.8027213110195888 0 0 0
204       14   2    0.0846130000000000  -37.4164469555609926 -34.8053363924524106 -27.8541783517585380 0 0 0
205       14   3    0.0140440000000000  -36.0456078680186351 -35.4811134802811665 -25.9363357476244794 0 0 0
206       14   3    0.0140440000000000  -35.3771714188938944 -36.1211212937666417 -27.4199769957903108 0 0 0
207       14   3    0.0140440000000000  -35.2350778076652418 -37.7873132157295615 -25.6546924326296022 0 0 0
208       14   3    0.0140440000000000  -36.2626284267391910 -38.3674593518370557 -26.9448297594286927 0 0 0
209       14   2    0.0846130000000000  -37.2111198325623747 -38.9616813062727658 -24.7628884206099329 0 0 0
210       14   2    0.0846130000000000  -38.3081070094210148 -37.8415802442140432 -25.5788087467954206 0 0 0
211       15   1   -0.1873450000000000  -4.3233187681094227  -26.4700467459085083  39.3828014498235888 0 0 0
212       15   5   -0.0790670000000000  -4.1291622100327690  -25.6067263762459554  37.8401156693480232 0 0 0
213       15   4    0.0690980000000000  -5.4660629322036893  -25.3757285020753294  37.1427417626182859 0 0 0
214       15   4    0.0690980000000000  -6.2519129460849641  -26.6430755307635145  36.7764397924378770 0 0 0
215       15   5   -0.0790670000000000  -5.5260832058805134  -27.6267559440955104  35.8629948993207393 0 0 0
216       15   1   -0.1873450000000000  -5.1093514569822531  -26.8958297550097498  34.2961279116766846 0 0 0
217       15   2    0.0846130000000000  -3.4400221327466838  -26.1829143449180322  37.2159416188335186 0 0 0
218       15   2    0.0846130000000000  -3.6542964429489864  -24.6470099774797298  38.0639989554395228 0 0 0
219       15   3    0.0140440000000000  -5.2866435309796316  -24.7824061294204867  36.2388672898226289 0 0 0
220       15   3    0.0140440000000000  -6.1017228871533042  -24.7521552933410263  37.7855861301927902 0 0 0
221       15   3    0.0140440000000000  -7.1918979585579725  -26.3384096984610494  36.2996753051345991 0 0 0
222       15   3    0.0140440000000000  -6.5413473660343504  -27.1716308898970595  37.6923025017342965 0 0 0
223       15   2    0.0846130000000000  -6.1695157119073256  -28.4880409934713406  35.6570115288518537 0 0 0
224       15   2    0.0846130000000000  -4.6046328108185364  -27.9991216211147247  36.3171877078483050 0 0 0
225       16   1   -0.1873450000000000  -36.8283957075764334 -34.7715784364639049 -35.2982025757202962 0 0 0
226       16   5   -0.0790670000000000  -37.9509505567859122 -35.8903236672823880 -36.1051585633907166 0 0 0
227       16   4    0.0690980000000000  -37.4204588350311340 -37.3204914441460645 -36.1190361629821695 0 0 0
228       16   4    0.0690980000000000  -36.0844472791440083 -37.5263740490818805 -36.8474531756342074 0 0 0
229       16   5   -0.0790670000000000  -36.0649435251353978 -37.1129201719597077 -38.3163006950085858 0 0 0
230       16   1   -0.1873450000000000  -37.2418868797136753 -38.0326497436138453 -39.2816464654654283 0 0 0
231       16   2    0.0846130000000000  -38.1320912076808511 -35.5147958736592386 -37.1164284618401368 0 0 0
232       16   2    0.0846130000000000  -38.8977205183360368 -35.8487553505025573 -35.5587379346197281 0 0 0
233       16   3    0.0140440000000000  -38.1839159282170542 -37.9682117862938284 -36.5649099648948877 0 0 0
234       16   3    0.0140440000000000  -37.3036779038953270 -37.6686798497344810 -35.0840081178370866 0 0 0
235       16   3    0.0140440000000000  -35.8109356603022633 -38.5860436093573327 -36.7700626931172962 0 0 0
236       16   3    0.0140440000000000  -35.2936119608190140 -36.9767106154454552 -36.3236238499824040 0 0 0
237       16   2    0.0846130000000000  -35.0757555329585031 -37.3046495868401635 -38.7440779999262688 0 0 0
238       16   2    0.0846130000000000  -36.2830010274871029 -36.0496083387019226 -38.4421458626635726 0 0 0
239       17   1   -0.1873450000000000   13.2128920861851746 -15.3446329498812428  4.9498428112817683  0 0 0
240       17   5   -0.0790670000000000   14.5785645876857597 -15.0161696900600869  6.0406905332818441  0 0 0
241       17   4    0.0690980000000000   15.8782056944132357 -14.7867603143511150  5.2756426546226320  0 0 0
242       17   4    0.0690980000000000   16.3544416223235167 -15.9608474107432521  4.4081032031549015  0 0 0
243       17   5   -0.0790670000000000   16.5912151651792925 -17.2735588057555880  5.1494294625767196  0 0 0
244       17   1   -0.1873450000000000   17.8426986411661375 -17.1129994885779837  6.4028250172199144  0 0 0
245       17   2    0.0846130000000000   14.6611384006418231 -15.8540719745756995  6.7389749980363085  0 0 0
246       17   2    0.0846130000000000   14.3232832061527446 -14.1233067659955474  6.6188808165567625  0 0 0
247       17   3    0.0140440000000000   16.6612429093347707 -14.5225346920352631  5.9955380376886307  0 0 0
248       17   3    0.0140440000000000   15.7615851240134948 -13.9074045250281380  4.6281173313774309  0 0 0
249       17   3    0.0140440000000000   17.2821435002819044 -15.6615623810826126  3.9046201686308866  0 0 0
250       17   3    0.0140440000000000   15.6276953330624924 -16.1427045829583911  3.6076562321697851  0 0 0
251       17   2    0.0846130000000000   16.9329998609113197 -18.0411121680855686  4.4477945626898201  0 0 0
252       17   2    0.0846130000000000   15.6798049499695011 -17.6402453321907409  5.6278545311529538  0 0 0
253       18   1   -0.1873450000000000   24.7860013615520636 -36.7759655826179284 -34.7516165021423049 0 0 0
254       18   5   -0.0790670000000000   25.0202757681681334 -36.0691172025732456 -36.3666642156891413 0 0 0
255       18   4    0.0690980000000000   25.4747666697339952 -37.1098702168211645 -37.3851263447482935 0 0 0
256       18   4    0.0690980000000000   26.8078837018326972 -37.8055927295958654 -37.0742002558673107 0 0 0
257       18   5   -0.0790670000000000   28.0141853395908882 -36.8822272849940589 -36.9290446340083278 0 0 0
258       18   1   -0.1873450000000000   28.3311416332715318 -35.9632416524786294 -38.4183379954809539 0 0 0
259       18   2    0.0846130000000000   25.7393855237984219 -35.2499948165345032 -36.2749061492995892 0 0 0
260       18   2    0.0846130000000000   24.0622062086867139 -35.6397727005500400 -36.6739796991544793 0 0 0
261       18   3    0.0140440000000000   25.5335574056594510 -36.6290054922872983 -38.3682461686092111 0 0 0
262       18   3    0.0140440000000000   24.6989922354125113 -37.8816518418151276 -37.4783097996898888 0 0 0
263       18   3    0.0140440000000000   27.0084469561277274 -38.5344306654994782 -37.8693525140005178 0 0 0
264       18   3    0.0140440000000000   26.7087270328231270 -38.3913581043630074 -36.1527913161913190 0 0 0
265       18   2    0.0846130000000000   28.9113175427783915 -37.4721970476779944 -36.7161221971385032 0 0 0
266       18   2    0.0846130000000000   27.8829644227663955 -36.1673671852744363 -36.1130947310629296 0 0 0
267       19   1   -0.1873450000000000  -7.2892501551670970  -6.3973249628632480   17.1342917068496590 0 0 0
268       19   5   -0.0790670000000000  -6.6875099813991685  -6.0733427591997406   15.4923895958871789 0 0 0
269       19   4    0.0690980000000000  -5.1707460600626609  -6.2090301773785761   15.4028906792465854 0 0 0
270       19   4    0.0690980000000000  -4.3647355834198303  -5.2593090363819224   16.3008231570454640 0 0 0
271       19   5   -0.0790670000000000  -4.6144057712272879  -3.7706685160927575   16.0762085119898757 0 0 0