
                                 *****************
                                 * O   R   C   A *
                                 *****************

           --- An Ab Initio, DFT and Semiempirical electronic structure package ---

                  #######################################################
                  #                        -***-                        #
                  #          Department of theory and spectroscopy      #
                  #               Directorship: Frank Neese             #
                  #        Max Planck Institute fuer Kohlenforschung    #
                  #                Kaiser Wilhelm Platz 1               #
                  #                 D-45470 Muelheim/Ruhr               #
                  #                      Germany                        #
                  #                                                     #
                  #                  All rights reserved                #
                  #                        -***-                        #
                  #######################################################


                         Program Version 4.1.2  - RELEASE  -


 With contributions from (in alphabetic order):
   Daniel Aravena         : Magnetic Properties
   Michael Atanasov       : Ab Initio Ligand Field Theory
   Alexander A. Auer      : GIAO ZORA
   Ute Becker             : Parallelization
   Giovanni Bistoni       : ED, Open-shell LED
   Martin Brehm           : Molecular dynamics
   Dmytro Bykov           : SCF Hessian
   Vijay G. Chilkuri      : MRCI spin determinant printing
   Dipayan Datta          : RHF DLPNO-CCSD density
   Achintya Kumar Dutta   : EOM-CC, STEOM-CC
   Dmitry Ganyushin       : Spin-Orbit,Spin-Spin,Magnetic field MRCI
   Miquel Garcia          : C-PCM Hessian
   Yang Guo               : DLPNO-NEVPT2, CIM, IAO-localization
   Andreas Hansen         : Spin unrestricted coupled pair/coupled cluster methods
   Benjamin Helmich-Paris : CASSCF linear response (MC-RPA)
   Lee Huntington         : MR-EOM, pCC
   Robert Izsak           : Overlap fitted RIJCOSX, COSX-SCS-MP3, EOM
   Christian Kollmar      : KDIIS, OOCD, Brueckner-CCSD(T), CCSD density
   Simone Kossmann        : Meta GGA functionals, TD-DFT gradient, OOMP2, MP2 Hessian
   Martin Krupicka        : AUTO-CI
   Lucas Lang             : DCDCAS
   Dagmar Lenk            : GEPOL surface, SMD
   Dimitrios Liakos       : Extrapolation schemes; parallel MDCI
   Dimitrios Manganas     : ROCIS; embedding schemes
   Dimitrios Pantazis     : SARC Basis sets
   Taras Petrenko         : DFT Hessian,TD-DFT gradient, ASA, ECA, R-Raman, ABS, FL, XAS/XES, NRVS
   Peter Pinski           : DLPNO-MP2, DLPNO-MP2 Gradient
   Christoph Reimann      : Effective Core Potentials
   Marius Retegan         : Local ZFS, SOC
   Christoph Riplinger    : Optimizer, TS searches, QM/MM, DLPNO-CCSD(T), (RO)-DLPNO pert. Triples
   Tobias Risthaus        : Range-separated hybrids, TD-DFT gradient, RPA, STAB
   Michael Roemelt        : Restricted open shell CIS
   Masaaki Saitow         : Open-shell DLPNO
   Barbara Sandhoefer     : DKH picture change effects
   Avijit Sen             : IP-ROCIS
   Kantharuban Sivalingam : CASSCF convergence, NEVPT2, FIC-MRCI
   Bernardo de Souza      : ESD, SOC TD-DFT
   Georgi Stoychev        : AutoAux, RI-MP2 NMR
   Willem Van den Heuvel  : Paramagnetic NMR
   Boris Wezisla          : Elementary symmetry handling
   Frank Wennmohs         : Technical directorship


 We gratefully acknowledge several colleagues who have allowed us to
 interface, adapt or use parts of their codes:
   Stefan Grimme, W. Hujo, H. Kruse,             : VdW corrections, initial TS optimization,
                  C. Bannwarth                     DFT functionals, gCP, sTDA/sTD-DF
   Ed Valeev                                     : LibInt (2-el integral package), F12 methods
   Garnet Chan, S. Sharma, J. Yang, R. Olivares  : DMRG
   Ulf Ekstrom                                   : XCFun DFT Library
   Mihaly Kallay                                 : mrcc  (arbitrary order and MRCC methods)
   Andreas Klamt, Michael Diedenhofen            : otool_cosmo (COSMO solvation model)
   Jiri Pittner, Ondrej Demel                    : Mk-CCSD
   Frank Weinhold                                : gennbo (NPA and NBO analysis)
   Christopher J. Cramer and Donald G. Truhlar   : smd solvation model
   Lars Goerigk                                  : TD-DFT with DH, B97 family of functionals
   V. Asgeirsson, H. Jonsson                     : NEB implementation
   FAccTs GmbH                                   : IRC, NEB, NEB-TS, Multilevel


 Your calculation uses the libint2 library for the computation of 2-el integrals
 For citations please refer to: http://libint.valeyev.net

 This ORCA versions uses:
   CBLAS   interface :  Fast vector & matrix operations
   LAPACKE interface :  Fast linear algebra routines
   SCALAPACK package :  Parallel linear algebra routines


Your calculation utilizes the atom-pairwise dispersion correction
with the zero-damping scheme (D30)
Cite in your paper:
S.Grimme, J.Antony, S.Ehrlich and H.Krieg, J.Chem.Phys., 132, (2010), 154104 
   

XCFun DFT library Copyright 2009-2010 Ulf Ekstrom and contributors.
See http://admol.org/xcfun for more information. This is free soft-
ware; see the source code for copying conditions. There is ABSOLUTELY
NO WARRANTY; not even for MERCHANTABILITY or FITNESS FOR A PARTICULAR
PURPOSE. For details see the documentation. Scientific users of this 
library should cite U. Ekstrom, L. Visscher, R. Bast, A. J. Thorvald-
sen and K. Ruud; J.Chem.Theor.Comp. 2010, DOI: 10.1021/ct100117s
XCFun Version 0.99 
----- Orbital basis set information -----
Your calculation utilizes the basis: def2-TZVP
   F. Weigend and R. Ahlrichs, Phys. Chem. Chem. Phys. 7, 3297 (2005).

================================================================================
                                        WARNINGS
                       Please study these warnings very carefully!
================================================================================


INFO   : the flag for use of LIBINT has been found!

Your calculation utilizes the atom-pairwise dispersion correction
with the zero-damping scheme (D30)
Cite in your paper:
S.Grimme, J.Antony, S.Ehrlich and H.Krieg, J.Chem.Phys., 132, (2010), 154104 
   

XCFun DFT library Copyright 2009-2010 Ulf Ekstrom and contributors.
See http://admol.org/xcfun for more information. This is free soft-
ware; see the source code for copying conditions. There is ABSOLUTELY
NO WARRANTY; not even for MERCHANTABILITY or FITNESS FOR A PARTICULAR
PURPOSE. For details see the documentation. Scientific users of this 
library should cite U. Ekstrom, L. Visscher, R. Bast, A. J. Thorvald-
sen and K. Ruud; J.Chem.Theor.Comp. 2010, DOI: 10.1021/ct100117s
XCFun Version 0.99 
----- Orbital basis set information -----
Your calculation utilizes the basis: def2-TZVP
   F. Weigend and R. Ahlrichs, Phys. Chem. Chem. Phys. 7, 3297 (2005).

================================================================================
                                        WARNINGS
                       Please study these warnings very carefully!
================================================================================


WARNING: MOInp is set but Guess=PModel. MOInp will be ignored!
         To read the initial guess from a file you must also specify
         'MORead' in the simple input or 'Guess MORead' in the %scf block


INFO   : the flag for use of LIBINT has been found!

Your calculation utilizes the atom-pairwise dispersion correction
with the zero-damping scheme (D30)
Cite in your paper:
S.Grimme, J.Antony, S.Ehrlich and H.Krieg, J.Chem.Phys., 132, (2010), 154104 
   

XCFun DFT library Copyright 2009-2010 Ulf Ekstrom and contributors.
See http://admol.org/xcfun for more information. This is free soft-
ware; see the source code for copying conditions. There is ABSOLUTELY
NO WARRANTY; not even for MERCHANTABILITY or FITNESS FOR A PARTICULAR
PURPOSE. For details see the documentation. Scientific users of this 
library should cite U. Ekstrom, L. Visscher, R. Bast, A. J. Thorvald-
sen and K. Ruud; J.Chem.Theor.Comp. 2010, DOI: 10.1021/ct100117s
XCFun Version 0.99 
----- Orbital basis set information -----
Your calculation utilizes the basis: def2-TZVP
   F. Weigend and R. Ahlrichs, Phys. Chem. Chem. Phys. 7, 3297 (2005).

================================================================================
                                        WARNINGS
                       Please study these warnings very carefully!
================================================================================


WARNING: MOInp is set but Guess=PModel. MOInp will be ignored!
         To read the initial guess from a file you must also specify
         'MORead' in the simple input or 'Guess MORead' in the %scf block


INFO   : the flag for use of LIBINT has been found!

================================================================================
                                       INPUT FILE
================================================================================
NAME = 7-15.in
|  1> #Run DFT-D3 single point of the dimer
|  2> ! wB97X-D3 def2-TZVP TIGHTSCF CHELPG PMODEL PAL8
|  3> 
|  4> %base "7-15_DFT_AB"
|  5> 
|  6> %scf
|  7> MaxIter 1000
|  8> end
|  9> 
| 10> * xyz 0 1
| 11>   C                      -1.043704            -4.234054            3.067058            
| 12>   O                      -0.967894            -4.898226            4.364749            
| 13>   H                      -1.811567            -5.220936            4.592340            
| 14>   H                      -1.580061            -3.307889            3.073810            
| 15>   H                      -0.006759            -3.989458            2.723288            
| 16>   H                      -1.542091            -4.895781            2.312860            
| 17>   C                      -4.531715            -3.327488            3.855180            
| 18>   O                      -5.285925            -4.508734            4.030222            
| 19>   H                      -4.623814            -5.225967            3.998889            
| 20>   H                      -4.056107            -3.085744            4.805620            
| 21>   H                      -3.844368            -3.437728            3.013197            
| 22>   H                      -5.163979            -2.483007            3.642173            
| 23> *
| 24> 
| 25> #Run DFT-D3 single point of the molecule with dimer basis set
| 26> $new_job
| 27> %base "7-15_DFT_A"
| 28> ! wB97X-D3 def2-TZVP TIGHTSCF CHELPG PMODEL
| 29> 
| 30> %scf
| 31> MaxIter 1000
| 32> end
| 33> 
| 34> * xyz 0 1
| 35>   C                      -1.043704            -4.234054            3.067058            
| 36>   O                      -0.967894            -4.898226            4.364749            
| 37>   H                      -1.811567            -5.220936            4.592340            
| 38>   H                      -1.580061            -3.307889            3.073810            
| 39>   H                      -0.006759            -3.989458            2.723288            
| 40>   H                      -1.542091            -4.895781            2.312860            
| 41>   C                    : -4.531715            -3.327488            3.855180            
| 42>   O                    : -5.285925            -4.508734            4.030222            
| 43>   H                    : -4.623814            -5.225967            3.998889            
| 44>   H                    : -4.056107            -3.085744            4.805620            
| 45>   H                    : -3.844368            -3.437728            3.013197            
| 46>   H                    : -5.163979            -2.483007            3.642173            
| 47> *
| 48> 
| 49> #Run DFT-D3 single point of the particle with dimer basis set
| 50> $new_job
| 51> %base "7-15_DFT_B"
| 52> ! wB97X-D3 def2-TZVP TIGHTSCF CHELPG PMODEL
| 53> 
| 54> %scf
| 55> MaxIter 1000
| 56> end
| 57> 
| 58> * xyz 0 1
| 59>   C                    : -1.043704            -4.234054            3.067058            
| 60>   O                    : -0.967894            -4.898226            4.364749            
| 61>   H                    : -1.811567            -5.220936            4.592340            
| 62>   H                    : -1.580061            -3.307889            3.073810            
| 63>   H                    : -0.006759            -3.989458            2.723288            
| 64>   H                    : -1.542091            -4.895781            2.312860            
| 65>   C                      -4.531715            -3.327488            3.855180            
| 66>   O                      -5.285925            -4.508734            4.030222            
| 67>   H                      -4.623814            -5.225967            3.998889            
| 68>   H                      -4.056107            -3.085744            4.805620            
| 69>   H                      -3.844368            -3.437728            3.013197            
| 70>   H                      -5.163979            -2.483007            3.642173            
| 71> *
| 72> 
| 73>                          ****END OF INPUT****
================================================================================


                 $$$$$$$$$$$$$$$$$$$$$$$$$$$$$$$$$$$$$$$$$$$$$$ 
                 $ THERE ARE  3 JOBS TO BE PROCESSED THIS RUN $
                 $$$$$$$$$$$$$$$$$$$$$$$$$$$$$$$$$$$$$$$$$$$$$$ 




                 $$$$$$$$$$$$$$$$  JOB NUMBER  1 $$$$$$$$$$$$$$


                       ****************************
                       * Single Point Calculation *
                       ****************************

---------------------------------
CARTESIAN COORDINATES (ANGSTROEM)
---------------------------------
  C     -1.043704   -4.234054    3.067058
  O     -0.967894   -4.898226    4.364749
  H     -1.811567   -5.220936    4.592340
  H     -1.580061   -3.307889    3.073810
  H     -0.006759   -3.989458    2.723288
  H     -1.542091   -4.895781    2.312860
  C     -4.531715   -3.327488    3.855180
  O     -5.285925   -4.508734    4.030222
  H     -4.623814   -5.225967    3.998889
  H     -4.056107   -3.085744    4.805620
  H     -3.844368   -3.437728    3.013197
  H     -5.163979   -2.483007    3.642173

----------------------------
CARTESIAN COORDINATES (A.U.)
----------------------------
  NO LB      ZA    FRAG     MASS         X           Y           Z
   0 C     6.0000    0    12.011   -1.972315   -8.001202    5.795900
   1 O     8.0000    0    15.999   -1.829055   -9.256306    8.248180
   2 H     1.0000    0     1.008   -3.423366   -9.866139    8.678265
   3 H     1.0000    0     1.008   -2.985883   -6.251004    5.808659
   4 H     1.0000    0     1.008   -0.012773   -7.538983    5.146269
   5 H     1.0000    0     1.008   -2.914130   -9.251685    4.370672
   6 C     6.0000    0    12.011   -8.563700   -6.288041    7.285234
   7 O     8.0000    0    15.999   -9.988951   -8.520272    7.616016
   8 H     1.0000    0     1.008   -8.737742   -9.875646    7.556805
   9 H     1.0000    0     1.008   -7.664931   -5.831211    9.081306
  10 H     1.0000    0     1.008   -7.264803   -6.496364    5.694117
  11 H     1.0000    0     1.008   -9.758506   -4.692203    6.882710

--------------------------------
INTERNAL COORDINATES (ANGSTROEM)
--------------------------------
 C      0   0   0     0.000000000000     0.00000000     0.00000000
 O      1   0   0     1.459751188787     0.00000000     0.00000000
 H      2   1   0     0.931516794433   109.13450054     0.00000000
 H      1   2   3     1.070283153272   114.46523612    70.19336839
 H      1   2   3     1.119490933032   108.92266156   188.73210289
 H      1   2   3     1.120306586387   110.66016901   309.20026894
 C      4   1   2     3.053389024251   118.71795477   298.36211700
 O      7   4   1     1.412379034955   123.59307945   350.83504411
 H      8   7   4     0.976624753679   104.37166867     9.35057470
 H      7   4   1     1.089944642998    78.45745519    95.00073892
 H      7   4   1     1.092489875604    36.41191766   272.28809732
 H      7   4   1     1.076233202938   120.81181870   195.43587576

---------------------------
INTERNAL COORDINATES (A.U.)
---------------------------
 C      0   0   0     0.000000000000     0.00000000     0.00000000
 O      1   0   0     2.758529970473     0.00000000     0.00000000
 H      2   1   0     1.760311630626   109.13450054     0.00000000
 H      1   2   3     2.022542045434   114.46523612    70.19336839
 H      1   2   3     2.115531272839   108.92266156   188.73210289
 H      1   2   3     2.117072634300   110.66016901   309.20026894
 C      4   1   2     5.770069036156   118.71795477   298.36211700
 O      7   4   1     2.669009573357   123.59307945   350.83504411
 H      8   7   4     1.845553320062   104.37166867     9.35057470
 H      7   4   1     2.059696876401    78.45745519    95.00073892
 H      7   4   1     2.064506668974    36.41191766   272.28809732
 H      7   4   1     2.033786009786   120.81181870   195.43587576

---------------------
BASIS SET INFORMATION
---------------------
There are 3 groups of distinct atoms

 Group   1 Type C   : 11s6p2d1f contracted to 5s3p2d1f pattern {62111/411/11/1}
 Group   2 Type O   : 11s6p2d1f contracted to 5s3p2d1f pattern {62111/411/11/1}
 Group   3 Type H   : 5s1p contracted to 3s1p pattern {311/1}

Atom   0C    basis set group =>   1
Atom   1O    basis set group =>   2
Atom   2H    basis set group =>   3
Atom   3H    basis set group =>   3
Atom   4H    basis set group =>   3
Atom   5H    basis set group =>   3
Atom   6C    basis set group =>   1
Atom   7O    basis set group =>   2
Atom   8H    basis set group =>   3
Atom   9H    basis set group =>   3
Atom  10H    basis set group =>   3
Atom  11H    basis set group =>   3


           ************************************************************
           *        Program running with 8 parallel MPI-processes     *
           *              working on a common directory               *
           ************************************************************
------------------------------------------------------------------------------
                           ORCA GTO INTEGRAL CALCULATION
------------------------------------------------------------------------------

                         BASIS SET STATISTICS AND STARTUP INFO

 # of primitive gaussian shells          ...  128
 # of primitive gaussian functions       ...  248
 # of contracted shells                  ...   76
 # of contracted basis functions         ...  172
 Highest angular momentum                ...    3
 Maximum contraction depth               ...    6
 Integral package used                   ... LIBINT
 Integral threshhold            Thresh   ...  2.500e-11
 Primitive cut-off              TCut     ...  2.500e-12


------------------------------ INTEGRAL EVALUATION ----------------------------


 * One electron integrals 
 Pre-screening matrix                    ... done
 Shell pair data                         ... done (   0.001 sec)



           ************************************************************
           *        Program running with 8 parallel MPI-processes     *
           *              working on a common directory               *
           ************************************************************
-------------------------------------------------------------------------------
                                 ORCA SCF
-------------------------------------------------------------------------------

------------
SCF SETTINGS
------------
Hamiltonian:
 Density Functional     Method          .... DFT(GTOs)
 Exchange Functional    Exchange        .... WB97X-D3
 Correlation Functional Correlation     .... WB97X-D3
 Gradients option       PostSCFGGA      .... off
 Hybrid DFT is turned on
   Fraction HF Exchange ScalHFX         ....  0.195728
   Scaling of DF-GGA-X  ScalDFX         ....  0.000000
   Scaling of DF-GGA-C  ScalDFC         ....  1.000000
   Scaling of DF-LDA-C  ScalLDAC        ....  1.000000
   Perturbative correction              ....  0.000000
   Density functional embedding theory  .... OFF
 Long-range corrected/Screened/Range-Separated Hybrid DFT is turned on
   Amount of maximum screened exact exchange              ....  0.804272
   Range separation parameter mu (erf(mu*r12)/r12)        ....  0.250000


General Settings:
 Integral files         IntName         .... 7-15_DFT_AB
 Hartree-Fock type      HFTyp           .... RHF
 Total Charge           Charge          ....    0
 Multiplicity           Mult            ....    1
 Number of Electrons    NEL             ....   36
 Basis Dimension        Dim             ....  172
 Nuclear Repulsion      ENuc            ....    123.2223690945 Eh

Convergence Acceleration:
 DIIS                   CNVDIIS         .... on
   Start iteration      DIISMaxIt       ....    12
   Startup error        DIISStart       ....  0.200000
   # of expansion vecs  DIISMaxEq       ....     5
   Bias factor          DIISBfac        ....   1.050
   Max. coefficient     DIISMaxC        ....  10.000
 Newton-Raphson         CNVNR           .... off
 SOSCF                  CNVSOSCF        .... on
   Start iteration      SOSCFMaxIt      ....   150
   Startup grad/error   SOSCFStart      ....  0.003300
 Level Shifting         CNVShift        .... on
   Level shift para.    LevelShift      ....    0.2500
   Turn off err/grad.   ShiftErr        ....    0.0010
 Zerner damping         CNVZerner       .... off
 Static damping         CNVDamp         .... on
   Fraction old density DampFac         ....    0.7000
   Max. Damping (<1)    DampMax         ....    0.9800
   Min. Damping (>=0)   DampMin         ....    0.0000
   Turn off err/grad.   DampErr         ....    0.1000
 Fernandez-Rico         CNVRico         .... off

SCF Procedure:
 Maximum # iterations   MaxIter         ....  1000
 SCF integral mode      SCFMode         .... Direct
   Integral package                     .... LIBINT
 Reset frequency        DirectResetFreq ....    20
 Integral Threshold     Thresh          ....  2.500e-11 Eh
 Primitive CutOff       TCut            ....  2.500e-12 Eh

Convergence Tolerance:
 Convergence Check Mode ConvCheckMode   .... Total+1el-Energy
 Convergence forced     ConvForced      .... 0
 Energy Change          TolE            ....  1.000e-08 Eh
 1-El. energy change                    ....  1.000e-05 Eh
 Orbital Gradient       TolG            ....  1.000e-05
 Orbital Rotation angle TolX            ....  1.000e-05
 DIIS Error             TolErr          ....  5.000e-07


Diagonalization of the overlap matrix:
Smallest eigenvalue                        ... 1.419e-03
Time for diagonalization                   ...    0.004 sec
Threshold for overlap eigenvalues          ... 1.000e-08
Number of eigenvalues below threshold      ... 0
Time for construction of square roots      ...    0.005 sec
Total time needed                          ...    0.009 sec

-------------------
DFT GRID GENERATION
-------------------

General Integration Accuracy     IntAcc      ...  4.340
Radial Grid Type                 RadialGrid  ... Gauss-Chebyshev
Angular Grid (max. acc.)         AngularGrid ... Lebedev-110
Angular grid pruning method      GridPruning ... 3 (G Style)
Weight generation scheme         WeightScheme... Becke
Basis function cutoff            BFCut       ...    1.0000e-11
Integration weight cutoff        WCut        ...    1.0000e-14
Grids for H and He will be reduced by one unit

# of grid points (after initial pruning)     ...  13096 (   0.0 sec)
# of grid points (after weights+screening)   ...  12435 (   0.0 sec)
nearest neighbour list constructed           ...    0.0 sec
Grid point re-assignment to atoms done       ...    0.0 sec
Grid point division into batches done        ...    0.0 sec
Reduced shell lists constructed in    0.0 sec

Total number of grid points                  ...    12435
Total number of batches                      ...      199
Average number of points per batch           ...       62
Average number of grid points per atom       ...     1036
Average number of shells per batch           ...    50.73 (66.75%)
Average number of basis functions per batch  ...   111.27 (64.69%)
Average number of large shells per batch     ...    41.35 (81.50%)
Average number of large basis fcns per batch ...    91.27 (82.03%)
Maximum spatial batch extension              ...  14.59, 22.02, 15.25 au
Average spatial batch extension              ...   0.36,  0.39,  0.38 au

Time for grid setup =    0.041 sec

------------------------------
INITIAL GUESS: MODEL POTENTIAL
------------------------------
Loading Hartree-Fock densities                     ... done
Calculating cut-offs                               ... done
Setting up the integral package                    ... done
Initializing the effective Hamiltonian             ... done
Starting the Coulomb interaction                   ... done (   0.0 sec)
Reading the grid                                   ... done
Mapping shells                                     ... done
Starting the XC term evaluation                    ... done (   0.0 sec)
  promolecular density results
     # of electrons  =     35.996509161
     EX              =    -28.850700932
     EC              =     -1.152423987
     EX+EC           =    -30.003124919
Transforming the Hamiltonian                       ... done (   0.0 sec)
Diagonalizing the Hamiltonian                      ... done (   0.0 sec)
Back transforming the eigenvectors                 ... done (   0.0 sec)
Now organizing SCF variables                       ... done
                      ------------------
                      INITIAL GUESS DONE (   0.1 sec)
                      ------------------
--------------
SCF ITERATIONS
--------------
ITER       Energy         Delta-E        Max-DP      RMS-DP      [F,P]     Damp
               ***  Starting incremental Fock matrix formation  ***
  0   -231.2954861360   0.000000000000 0.03682503  0.00106749  0.2570295 0.7000
  1   -231.3684341499  -0.072948013824 0.02363176  0.00075789  0.1285577 0.7000
                               ***Turning on DIIS***
  2   -231.4018715938  -0.033437443902 0.03631442  0.00136442  0.0502606 0.0000
  3   -231.4564079839  -0.054536390089 0.01832274  0.00050411  0.0615032 0.0000
  4   -231.4652650713  -0.008857087435 0.00416946  0.00010064  0.0062607 0.0000
                      *** Initiating the SOSCF procedure ***
                           *** Shutting down DIIS ***
                      *** Re-Reading the Fockian *** 
                      *** Removing any level shift *** 
ITER      Energy       Delta-E        Grad      Rot      Max-DP    RMS-DP
  5   -231.46545358  -0.0001885079  0.000441  0.000441  0.000725  0.000035
               *** Restarting incremental Fock matrix formation ***
  6   -231.46546996  -0.0000163844  0.000165  0.000237  0.000501  0.000021
  7   -231.46547166  -0.0000017013  0.000047  0.000107  0.000241  0.000010
  8   -231.46547181  -0.0000001456  0.000023  0.000020  0.000048  0.000001
  9   -231.46547183  -0.0000000165  0.000013  0.000012  0.000021  0.000001
                  ***Gradient check signals convergence***
              ***Rediagonalizing the Fockian in SOSCF/NRSCF***

               *****************************************************
               *                     SUCCESS                       *
               *           SCF CONVERGED AFTER  10 CYCLES          *
               *****************************************************

Setting up the final grid:

General Integration Accuracy     IntAcc      ...  4.670
Radial Grid Type                 RadialGrid  ... Gauss-Chebyshev
Angular Grid (max. acc.)         AngularGrid ... Lebedev-302
Angular grid pruning method      GridPruning ... 3 (G Style)
Weight generation scheme         WeightScheme... Becke
Basis function cutoff            BFCut       ...    1.0000e-11
Integration weight cutoff        WCut        ...    1.0000e-14
Grids for H and He will be reduced by one unit

# of grid points (after initial pruning)     ...  52000 (   0.0 sec)
# of grid points (after weights+screening)   ...  48860 (   0.0 sec)
nearest neighbour list constructed           ...    0.0 sec
Grid point re-assignment to atoms done       ...    0.0 sec
Grid point division into batches done        ...    0.2 sec
Reduced shell lists constructed in    0.2 sec

Total number of grid points                  ...    48860
Total number of batches                      ...      767
Average number of points per batch           ...       63
Average number of grid points per atom       ...     4072
Average number of shells per batch           ...    48.57 (63.90%)
Average number of basis functions per batch  ...   105.27 (61.20%)
Average number of large shells per batch     ...    39.63 (81.60%)
Average number of large basis fcns per batch ...    87.59 (83.20%)
Maximum spatial batch extension              ...  13.99, 14.91, 15.59 au
Average spatial batch extension              ...   0.24,  0.27,  0.26 au

Final grid set up in    0.3 sec
Final integration                            ... done (   0.1 sec)
Change in XC energy                          ...    -0.000156578
Integrated number of electrons               ...    35.999934198
Previous integrated no of electrons          ...    35.998401567

----------------
TOTAL SCF ENERGY
----------------

Total Energy       :         -231.46562841 Eh           -6298.49996 eV

Components:
Nuclear Repulsion  :          123.22236909 Eh            3353.05113 eV
Electronic Energy  :         -354.68799751 Eh           -9651.55109 eV
One Electron Energy:         -558.99103482 Eh          -15210.91937 eV
Two Electron Energy:          204.30303732 Eh            5559.36828 eV

Virial components:
Potential Energy   :         -461.91608390 Eh          -12569.37566 eV
Kinetic Energy     :          230.45045549 Eh            6270.87570 eV
Virial Ratio       :            2.00440517


DFT components:
N(Alpha)           :       17.999967099171 electrons
N(Beta)            :       17.999967099171 electrons
N(Total)           :       35.999934198342 electrons
E(XC)              :      -21.296872105331 Eh       
DFET-embed. en.    :        0.000000000000 Eh       

---------------
SCF CONVERGENCE
---------------

  Last Energy change         ...   -6.0422e-09  Tolerance :   1.0000e-08
  Last MAX-Density change    ...    4.0586e-06  Tolerance :   1.0000e-07
  Last RMS-Density change    ...    1.4858e-07  Tolerance :   5.0000e-09
  Last Orbital Gradient      ...    1.7401e-06  Tolerance :   1.0000e-05
  Last Orbital Rotation      ...    3.4510e-06  Tolerance :   1.0000e-05

             **** THE GBW FILE WAS UPDATED (7-15_DFT_AB.gbw) ****
             **** DENSITY FILE WAS UPDATED (7-15_DFT_AB.scfp.tmp) ****
             **** ENERGY FILE WAS UPDATED (7-15_DFT_AB.en.tmp) ****
----------------
ORBITAL ENERGIES
----------------

  NO   OCC          E(Eh)            E(eV) 
   0   2.0000     -19.238876      -523.5164 
   1   2.0000     -19.238040      -523.4937 
   2   2.0000     -10.329092      -281.0689 
   3   2.0000     -10.317329      -280.7488 
   4   2.0000      -1.143832       -31.1253 
   5   2.0000      -1.137816       -30.9615 
   6   2.0000      -0.808398       -21.9976 
   7   2.0000      -0.800990       -21.7961 
   8   2.0000      -0.622057       -16.9270 
   9   2.0000      -0.608705       -16.5637 
  10   2.0000      -0.557819       -15.1790 
  11   2.0000      -0.544883       -14.8270 
  12   2.0000      -0.537745       -14.6328 
  13   2.0000      -0.527760       -14.3611 
  14   2.0000      -0.448128       -12.1942 
  15   2.0000      -0.438091       -11.9211 
  16   2.0000      -0.386377       -10.5138 
  17   2.0000      -0.380487       -10.3536 
  18   0.0000       0.073812         2.0085 
  19   0.0000       0.129278         3.5178 
  20   0.0000       0.147822         4.0224 
  21   0.0000       0.161171         4.3857 
  22   0.0000       0.184612         5.0235 
  23   0.0000       0.195749         5.3266 
  24   0.0000       0.202148         5.5007 
  25   0.0000       0.218866         5.9557 
  26   0.0000       0.233943         6.3659 
  27   0.0000       0.248933         6.7738 
  28   0.0000       0.293564         7.9883 
  29   0.0000       0.303502         8.2587 
  30   0.0000       0.311630         8.4799 
  31   0.0000       0.381580        10.3833 
  32   0.0000       0.396387        10.7862 
  33   0.0000       0.425132        11.5684 
  34   0.0000       0.458129        12.4663 
  35   0.0000       0.467061        12.7094 
  36   0.0000       0.478694        13.0259 
  37   0.0000       0.487100        13.2547 
  38   0.0000       0.522188        14.2095 
  39   0.0000       0.533711        14.5230 
  40   0.0000       0.542901        14.7731 
  41   0.0000       0.547283        14.8923 
  42   0.0000       0.567418        15.4402 
  43   0.0000       0.584642        15.9089 
  44   0.0000       0.603131        16.4120 
  45   0.0000       0.622127        16.9289 
  46   0.0000       0.629227        17.1221 
  47   0.0000       0.647304        17.6140 
  48   0.0000       0.677017        18.4226 
  49   0.0000       0.749715        20.4008 
  50   0.0000       0.767161        20.8755 
  51   0.0000       0.774827        21.0841 
  52   0.0000       0.806401        21.9433 
  53   0.0000       0.825313        22.4579 
  54   0.0000       0.867396        23.6030 
  55   0.0000       0.913575        24.8596 
  56   0.0000       0.974793        26.5255 
  57   0.0000       0.999025        27.1848 
  58   0.0000       1.040335        28.3090 
  59   0.0000       1.079999        29.3883 
  60   0.0000       1.101055        29.9612 
  61   0.0000       1.143677        31.1210 
  62   0.0000       1.363357        37.0988 
  63   0.0000       1.390241        37.8304 
  64   0.0000       1.490824        40.5674 
  65   0.0000       1.495690        40.6998 
  66   0.0000       1.539009        41.8786 
  67   0.0000       1.550991        42.2046 
  68   0.0000       1.567296        42.6483 
  69   0.0000       1.592705        43.3397 
  70   0.0000       1.600256        43.5452 
  71   0.0000       1.612170        43.8694 
  72   0.0000       1.646125        44.7934 
  73   0.0000       1.648184        44.8494 
  74   0.0000       1.668367        45.3986 
  75   0.0000       1.674377        45.5621 
  76   0.0000       1.703856        46.3643 
  77   0.0000       1.731333        47.1120 
  78   0.0000       1.786492        48.6129 
  79   0.0000       1.789177        48.6860 
  80   0.0000       1.949523        53.0492 
  81   0.0000       1.958323        53.2887 
  82   0.0000       2.006874        54.6098 
  83   0.0000       2.023919        55.0736 
  84   0.0000       2.047306        55.7100 
  85   0.0000       2.049277        55.7637 
  86   0.0000       2.078942        56.5709 
  87   0.0000       2.100170        57.1485 
  88   0.0000       2.107524        57.3486 
  89   0.0000       2.118079        57.6359 
  90   0.0000       2.255224        61.3678 
  91   0.0000       2.261259        61.5320 
  92   0.0000       2.290701        62.3331 
  93   0.0000       2.325729        63.2863 
  94   0.0000       2.352588        64.0172 
  95   0.0000       2.380812        64.7852 
  96   0.0000       2.386374        64.9365 
  97   0.0000       2.399336        65.2892 
  98   0.0000       2.418034        65.7980 
  99   0.0000       2.455839        66.8268 
 100   0.0000       2.493380        67.8483 
 101   0.0000       2.544183        69.2307 
 102   0.0000       2.564487        69.7833 
 103   0.0000       2.604298        70.8666 
 104   0.0000       2.636196        71.7345 
 105   0.0000       2.668089        72.6024 
 106   0.0000       2.697427        73.4007 
 107   0.0000       2.726996        74.2053 
 108   0.0000       2.811311        76.4996 
 109   0.0000       2.833470        77.1026 
 110   0.0000       2.862859        77.9023 
 111   0.0000       2.880478        78.3818 
 112   0.0000       2.900662        78.9310 
 113   0.0000       2.923711        79.5582 
 114   0.0000       2.976823        81.0035 
 115   0.0000       3.036565        82.6291 
 116   0.0000       3.085742        83.9673 
 117   0.0000       3.103429        84.4486 
 118   0.0000       3.139930        85.4418 
 119   0.0000       3.176232        86.4297 
 120   0.0000       3.230579        87.9085 
 121   0.0000       3.294019        89.6348 
 122   0.0000       3.376724        91.8853 
 123   0.0000       3.409179        92.7685 
 124   0.0000       3.436426        93.5099 
 125   0.0000       3.439631        93.5971 
 126   0.0000       3.470930        94.4488 
 127   0.0000       3.495254        95.1107 
 128   0.0000       3.545265        96.4716 
 129   0.0000       3.618697        98.4697 
 130   0.0000       3.634010        98.8864 
 131   0.0000       3.644309        99.1667 
 132   0.0000       3.651898        99.3732 
 133   0.0000       3.671838        99.9158 
 134   0.0000       4.018886       109.3595 
 135   0.0000       4.034468       109.7835 
 136   0.0000       4.182482       113.8111 
 137   0.0000       4.214539       114.6834 
 138   0.0000       4.275981       116.3554 
 139   0.0000       4.326303       117.7247 
 140   0.0000       4.413773       120.1049 
 141   0.0000       4.484773       122.0369 
 142   0.0000       4.546006       123.7031 
 143   0.0000       4.586063       124.7931 
 144   0.0000       5.315693       144.6474 
 145   0.0000       5.351997       145.6352 
 146   0.0000       5.395125       146.8088 
 147   0.0000       5.455487       148.4514 
 148   0.0000       5.522700       150.2803 
 149   0.0000       5.558432       151.2526 
 150   0.0000       5.738157       156.1432 
 151   0.0000       5.768628       156.9723 
 152   0.0000       5.787623       157.4892 
 153   0.0000       5.824270       158.4865 
 154   0.0000       5.919014       161.0645 
 155   0.0000       5.997183       163.1917 
 156   0.0000       6.296825       171.3453 
 157   0.0000       6.431296       175.0045 
 158   0.0000       6.514404       177.2660 
 159   0.0000       6.524499       177.5406 
 160   0.0000       6.738320       183.3590 
 161   0.0000       6.754755       183.8062 
 162   0.0000       6.760925       183.9741 
 163   0.0000       6.810681       185.3281 
 164   0.0000       7.015886       190.9120 
 165   0.0000       7.042450       191.6348 
 166   0.0000       7.188662       195.6134 
 167   0.0000       7.216170       196.3620 
 168   0.0000      22.263644       605.8246 
 169   0.0000      22.446041       610.7878 
 170   0.0000      43.644907      1187.6383 
 171   0.0000      43.736673      1190.1354 

                    ********************************
                    * MULLIKEN POPULATION ANALYSIS *
                    ********************************

-----------------------
MULLIKEN ATOMIC CHARGES
-----------------------
   0 C :   -0.193583
   1 O :   -0.463994
   2 H :    0.300752
   3 H :    0.113605
   4 H :    0.130864
   5 H :    0.113717
   6 C :   -0.182346
   7 O :   -0.460681
   8 H :    0.307079
   9 H :    0.115590
  10 H :    0.094368
  11 H :    0.124632
Sum of atomic charges:   -0.0000000

--------------------------------
MULLIKEN REDUCED ORBITAL CHARGES
--------------------------------
  0 C s       :     3.244127  s :     3.244127
      pz      :     0.755471  p :     2.852909
      px      :     1.112852
      py      :     0.984587
      dz2     :     0.023468  d :     0.089843
      dxz     :     0.025202
      dyz     :     0.018348
      dx2y2   :     0.009684
      dxy     :     0.013142
      f0      :     0.001996  f :     0.006703
      f+1     :     0.000985
      f-1     :     0.001598
      f+2     :     0.000684
      f-2     :     0.000905
      f+3     :     0.000461
      f-3     :     0.000074
  1 O s       :     3.790027  s :     3.790027
      pz      :     1.448664  p :     4.644317
      px      :     1.460877
      py      :     1.734776
      dz2     :     0.008208  d :     0.028053
      dxz     :     0.005061
      dyz     :     0.004768
      dx2y2   :     0.005731
      dxy     :     0.004284
      f0      :     0.000213  f :     0.001597
      f+1     :     0.000159
      f-1     :     0.000411
      f+2     :     0.000156
      f-2     :     0.000192
      f+3     :     0.000145
      f-3     :     0.000321
  2 H s       :     0.647512  s :     0.647512
      pz      :     0.014390  p :     0.051736
      px      :     0.018469
      py      :     0.018877
  3 H s       :     0.865812  s :     0.865812
      pz      :     0.002957  p :     0.020583
      px      :     0.006764
      py      :     0.010862
  4 H s       :     0.849490  s :     0.849490
      pz      :     0.003641  p :     0.019646
      px      :     0.011690
      py      :     0.004316
  5 H s       :     0.867836  s :     0.867836
      pz      :     0.006834  p :     0.018447
      px      :     0.005295
      py      :     0.006318
  6 C s       :     3.234621  s :     3.234621
      pz      :     1.033479  p :     2.844574
      px      :     0.972842
      py      :     0.838254
      dz2     :     0.005918  d :     0.095646
      dxz     :     0.015817
      dyz     :     0.028258
      dx2y2   :     0.022457
      dxy     :     0.023196
      f0      :     0.001027  f :     0.007505
      f+1     :     0.001124
      f-1     :     0.000546
      f+2     :     0.000201
      f-2     :     0.001489
      f+3     :     0.001211
      f-3     :     0.001906
  7 O s       :     3.802338  s :     3.802338
      pz      :     1.900659  p :     4.625532
      px      :     1.503687
      py      :     1.221185
      dz2     :     0.004725  d :     0.031200
      dxz     :     0.003359
      dyz     :     0.002786
      dx2y2   :     0.004059
      dxy     :     0.016271
      f0      :     0.000204  f :     0.001612
      f+1     :     0.000261
      f-1     :     0.000414
      f+2     :     0.000033
      f-2     :     0.000140
      f+3     :     0.000312
      f-3     :     0.000249
  8 H s       :     0.647201  s :     0.647201
      pz      :     0.016876  p :     0.045721
      px      :     0.013911
      py      :     0.014934
  9 H s       :     0.864495  s :     0.864495
      pz      :     0.010642  p :     0.019915
      px      :     0.005326
      py      :     0.003947
 10 H s       :     0.885706  s :     0.885706
      pz      :     0.009451  p :     0.019927
      px      :     0.007371
      py      :     0.003105
 11 H s       :     0.854778  s :     0.854778
      pz      :     0.004976  p :     0.020590
      px      :     0.006470
      py      :     0.009144


                     *******************************
                     * LOEWDIN POPULATION ANALYSIS *
                     *******************************

----------------------
LOEWDIN ATOMIC CHARGES
----------------------
   0 C :   -0.357927
   1 O :   -0.088822
   2 H :    0.140009
   3 H :    0.086895
   4 H :    0.116945
   5 H :    0.101286
   6 C :   -0.390019
   7 O :   -0.082322
   8 H :    0.175634
   9 H :    0.098245
  10 H :    0.094285
  11 H :    0.105792

-------------------------------
LOEWDIN REDUCED ORBITAL CHARGES
-------------------------------
  0 C s       :     2.878266  s :     2.878266
      pz      :     0.875185  p :     3.053822
      px      :     1.123986
      py      :     1.054652
      dz2     :     0.110042  d :     0.377699
      dxz     :     0.077188
      dyz     :     0.096450
      dx2y2   :     0.041326
      dxy     :     0.052693
      f0      :     0.012871  f :     0.048140
      f+1     :     0.007525
      f-1     :     0.011047
      f+2     :     0.006431
      f-2     :     0.006000
      f+3     :     0.002817
      f-3     :     0.001447
  1 O s       :     3.376558  s :     3.376558
      pz      :     1.480213  p :     4.644297
      px      :     1.490346
      py      :     1.673738
      dz2     :     0.019411  d :     0.063870
      dxz     :     0.013196
      dyz     :     0.012872
      dx2y2   :     0.009753
      dxy     :     0.008638
      f0      :     0.000784  f :     0.004097
      f+1     :     0.000782
      f-1     :     0.000802
      f+2     :     0.000442
      f-2     :     0.000398
      f+3     :     0.000236
      f-3     :     0.000653
  2 H s       :     0.686598  s :     0.686598
      pz      :     0.038608  p :     0.173393
      px      :     0.082089
      py      :     0.052696
  3 H s       :     0.847402  s :     0.847402
      pz      :     0.010166  p :     0.065703
      px      :     0.021691
      py      :     0.033847
  4 H s       :     0.826933  s :     0.826933
      pz      :     0.010334  p :     0.056122
      px      :     0.033643
      py      :     0.012146
  5 H s       :     0.841935  s :     0.841935
      pz      :     0.020930  p :     0.056779
      px      :     0.016618
      py      :     0.019231
  6 C s       :     2.860035  s :     2.860035
      pz      :     1.091198  p :     3.059508
      px      :     1.043833
      py      :     0.924477
      dz2     :     0.047550  d :     0.412756
      dxz     :     0.089663
      dyz     :     0.083547
      dx2y2   :     0.073736
      dxy     :     0.118260
      f0      :     0.007490  f :     0.057720
      f+1     :     0.004791
      f-1     :     0.007859
      f+2     :     0.005259
      f-2     :     0.008128
      f+3     :     0.011278
      f-3     :     0.012915
  7 O s       :     3.381507  s :     3.381507
      pz      :     1.797958  p :     4.624203
      px      :     1.548755
      py      :     1.277490
      dz2     :     0.008914  d :     0.071889
      dxz     :     0.005087
      dyz     :     0.010078
      dx2y2   :     0.013157
      dxy     :     0.034651
      f0      :     0.000401  f :     0.004723
      f+1     :     0.000361
      f-1     :     0.000737
      f+2     :     0.000130
      f-2     :     0.000575
      f+3     :     0.001020
      f-3     :     0.001500
  8 H s       :     0.674291  s :     0.674291
      pz      :     0.044118  p :     0.150075
      px      :     0.058599
      py      :     0.047358
  9 H s       :     0.840595  s :     0.840595
      pz      :     0.031819  p :     0.061160
      px      :     0.016981
      py      :     0.012360
 10 H s       :     0.844646  s :     0.844646
      pz      :     0.027990  p :     0.061070
      px      :     0.022491
      py      :     0.010589
 11 H s       :     0.831898  s :     0.831898
      pz      :     0.015313  p :     0.062310
      px      :     0.020885
      py      :     0.026112


                      *****************************
                      * MAYER POPULATION ANALYSIS *
                      *****************************

  NA   - Mulliken gross atomic population
  ZA   - Total nuclear charge
  QA   - Mulliken gross atomic charge
  VA   - Mayer's total valence
  BVA  - Mayer's bonded valence
  FA   - Mayer's free valence

  ATOM       NA         ZA         QA         VA         BVA        FA
  0 C      6.1936     6.0000    -0.1936     3.9220     3.9220     0.0000
  1 O      8.4640     8.0000    -0.4640     1.9013     1.9013    -0.0000
  2 H      0.6992     1.0000     0.3008     0.9270     0.9270    -0.0000
  3 H      0.8864     1.0000     0.1136     0.9511     0.9511    -0.0000
  4 H      0.8691     1.0000     0.1309     0.9658     0.9658     0.0000
  5 H      0.8863     1.0000     0.1137     0.9572     0.9572    -0.0000
  6 C      6.1823     6.0000    -0.1823     3.9323     3.9323    -0.0000
  7 O      8.4607     8.0000    -0.4607     1.8854     1.8854     0.0000
  8 H      0.6929     1.0000     0.3071     0.9157     0.9157    -0.0000
  9 H      0.8844     1.0000     0.1156     0.9553     0.9553    -0.0000
 10 H      0.9056     1.0000     0.0944     0.9709     0.9709     0.0000
 11 H      0.8754     1.0000     0.1246     0.9590     0.9590    -0.0000

  Mayer bond orders larger than 0.1
B(  0-C ,  1-O ) :   0.9894 B(  0-C ,  3-H ) :   0.9649 B(  0-C ,  4-H ) :   0.9729 
B(  0-C ,  5-H ) :   0.9745 B(  1-O ,  2-H ) :   0.9121 B(  6-C ,  7-O ) :   0.9948 
B(  6-C ,  9-H ) :   0.9773 B(  6-C , 10-H ) :   0.9762 B(  6-C , 11-H ) :   0.9695 
B(  7-O ,  8-H ) :   0.9046 

-------
TIMINGS
-------

Total SCF time: 0 days 0 hours 0 min 20 sec 

Total time                  ....      20.190 sec
Sum of individual times     ....      19.756 sec  ( 97.9%)

Fock matrix formation       ....      18.952 sec  ( 93.9%)
  XC integration            ....       9.340 sec  ( 49.3% of F)
    Basis function eval.    ....       0.061 sec  (  0.7% of XC)
    Density eval.           ....       0.105 sec  (  1.1% of XC)
    XC-Functional eval.     ....       0.117 sec  (  1.2% of XC)
    XC-Potential eval.      ....       0.072 sec  (  0.8% of XC)
Diagonalization             ....       0.197 sec  (  1.0%)
Density matrix formation    ....       0.005 sec  (  0.0%)
Population analysis         ....       0.030 sec  (  0.1%)
Initial guess               ....       0.105 sec  (  0.5%)
Orbital Transformation      ....       0.000 sec  (  0.0%)
Orbital Orthonormalization  ....       0.000 sec  (  0.0%)
DIIS solution               ....       0.123 sec  (  0.6%)
SOSCF solution              ....       0.043 sec  (  0.2%)
Grid generation             ....       0.300 sec  (  1.5%)


-------------------------------------------------------------------------------
                          DFT DISPERSION CORRECTION                            
                                                                               
                              DFTD3 V3.1  Rev 1                                
                              USING zero damping                               
-------------------------------------------------------------------------------
The omegaB97X-D3 functional is recognized. Fit by Chai et al.
Active option DFTDOPT                   ...         3   

molecular C6(AA) [au] = 834.973278 


            DFT-D V3
 parameters
 s6 scaling factor         :     1.0000 
 rs6 scaling factor        :     1.2810 
 s8 scaling factor         :     1.0000 
 rs8 scaling factor        :     1.0940 
 Damping factor alpha6     :    14.0000 
 Damping factor alpha8     :    16.0000 
 ad hoc parameters k1-k3   :    16.0000     1.3333    -4.0000 

 Edisp/kcal,au: -1.295843007642  -0.002065057060 
 E6   /kcal   :  -0.628874647 
 E8   /kcal   :  -0.666968361 
 % E8         :  51.469842959 

-------------------------   ----------------
Dispersion correction           -0.002065057
-------------------------   ----------------


-------------------------   --------------------
FINAL SINGLE POINT ENERGY      -231.467693468087
-------------------------   --------------------


                            ***************************************
                            *     ORCA property calculations      *
                            ***************************************

                                    ---------------------
                                    Active property flags
                                    ---------------------
   (+) Dipole Moment


------------------------------------------------------------------------------
                       ORCA ELECTRIC PROPERTIES CALCULATION
------------------------------------------------------------------------------

Dipole Moment Calculation                       ... on
Quadrupole Moment Calculation                   ... off
Polarizability Calculation                      ... off
GBWName                                         ... 7-15_DFT_AB.gbw
Electron density file                           ... 7-15_DFT_AB.scfp.tmp
The origin for moment calculation is the CENTER OF MASS  = (-5.597787, -8.056882  7.249443)

-------------
DIPOLE MOMENT
-------------
                                X             Y             Z
Electronic contribution:     -0.87346      -2.14023       1.86649
Nuclear contribution   :      0.99806       2.29644      -2.36079
                        -----------------------------------------
Total Dipole Moment    :      0.12460       0.15621      -0.49429
                        -----------------------------------------
Magnitude (a.u.)       :      0.53315
Magnitude (Debye)      :      1.35516



--------------------
Rotational spectrum 
--------------------
 
Rotational constants in cm-1:     0.424278     0.063945     0.059779 
Rotational constants in MHz : 12719.527181  1917.009109  1792.127387 

 Dipole components along the rotational axes: 
x,y,z [a.u.] :    -0.129139    -0.439653     0.272539 
x,y,z [Debye]:    -0.328245    -1.117509     0.692739 

 
------------------------------------------------------------------------------
                      ORCA CHELPG CHARGES GENERATION
------------------------------------------------------------------------------

GBW file                           ... 7-15_DFT_AB.gbw

Reading the GBW file               ... done

Grid spacing                       ...     0.300000
Point Cut-Off                      ...     2.800000
Van-der-Waals Radii                ...        COSMO
Total charge                       ...            0


Number of points X direction       ...           36
Number of points Y direction       ...           27
Number of points Z direction       ...           26
Maximum number of possible points  ...        25272
Final number of points             ...         9463


CHELPG Charges            
--------------------------------
  0   C   :       0.072698
  1   O   :      -0.612449
  2   H   :       0.397672
  3   H   :       0.014447
  4   H   :       0.090009
  5   H   :       0.027739
  6   C   :       0.221031
  7   O   :      -0.621515
  8   H   :       0.389913
  9   H   :      -0.004870
 10   H   :      -0.023844
 11   H   :       0.049170
--------------------------------
Total charge:    -0.000000
--------------------------------

CHELPG charges calculated...

Timings for individual parts in CHELPG calculation:
Grid generation                 ...        0.001 sec (=   0.000 min)
Potential calculation           ...        2.042 sec (=   0.034 min)
Fit to the potential            ...        0.003 sec (=   0.000 min)
------------------------------------------------------------------------------


Timings for individual modules:

Sum of individual times         ...       28.133 sec (=   0.469 min)
GTO integral calculation        ...        3.828 sec (=   0.064 min)  13.6 %
SCF iterations                  ...       22.229 sec (=   0.370 min)  79.0 %
CHELPG charge generation        ...        2.076 sec (=   0.035 min)   7.4 %


                 $$$$$$$$$$$$$$$$  JOB NUMBER  2 $$$$$$$$$$$$$$


                       ****************************
                       * Single Point Calculation *
                       ****************************

---------------------------------
CARTESIAN COORDINATES (ANGSTROEM)
---------------------------------
  C     -1.043704   -4.234054    3.067058
  O     -0.967894   -4.898226    4.364749
  H     -1.811567   -5.220936    4.592340
  H     -1.580061   -3.307889    3.073810
  H     -0.006759   -3.989458    2.723288
  H     -1.542091   -4.895781    2.312860
  C     -4.531715   -3.327488    3.855180
  O     -5.285925   -4.508734    4.030222
  H     -4.623814   -5.225967    3.998889
  H     -4.056107   -3.085744    4.805620
  H     -3.844368   -3.437728    3.013197
  H     -5.163979   -2.483007    3.642173

----------------------------
CARTESIAN COORDINATES (A.U.)
----------------------------
  NO LB      ZA    FRAG     MASS         X           Y           Z
   0 C     6.0000    0    12.011   -1.972315   -8.001202    5.795900
   1 O     8.0000    0    15.999   -1.829055   -9.256306    8.248180
   2 H     1.0000    0     1.008   -3.423366   -9.866139    8.678265
   3 H     1.0000    0     1.008   -2.985883   -6.251004    5.808659
   4 H     1.0000    0     1.008   -0.012773   -7.538983    5.146269
   5 H     1.0000    0     1.008   -2.914130   -9.251685    4.370672
   6 C     0.0000    0     0.000   -8.563700   -6.288041    7.285234
   7 O     0.0000    0     0.000   -9.988951   -8.520272    7.616016
   8 H     0.0000    0     0.000   -8.737742   -9.875646    7.556805
   9 H     0.0000    0     0.000   -7.664931   -5.831211    9.081306
  10 H     0.0000    0     0.000   -7.264803   -6.496364    5.694117
  11 H     0.0000    0     0.000   -9.758506   -4.692203    6.882710

--------------------------------
INTERNAL COORDINATES (ANGSTROEM)
--------------------------------
 C      0   0   0     0.000000000000     0.00000000     0.00000000
 O      1   0   0     1.459751188787     0.00000000     0.00000000
 H      2   1   0     0.931516794433   109.13450054     0.00000000
 H      1   2   3     1.070283153272   114.46523612    70.19336839
 H      1   2   3     1.119490933032   108.92266156   188.73210289
 H      1   2   3     1.120306586387   110.66016901   309.20026894
 C      4   1   2     3.053389024251   118.71795477   298.36211700
 O      7   4   1     1.412379034955   123.59307945   350.83504411
 H      8   7   4     0.976624753679   104.37166867     9.35057470
 H      7   4   1     1.089944642998    78.45745519    95.00073892
 H      7   4   1     1.092489875604    36.41191766   272.28809732
 H      7   4   1     1.076233202938   120.81181870   195.43587576

---------------------------
INTERNAL COORDINATES (A.U.)
---------------------------
 C      0   0   0     0.000000000000     0.00000000     0.00000000
 O      1   0   0     2.758529970473     0.00000000     0.00000000
 H      2   1   0     1.760311630626   109.13450054     0.00000000
 H      1   2   3     2.022542045434   114.46523612    70.19336839
 H      1   2   3     2.115531272839   108.92266156   188.73210289
 H      1   2   3     2.117072634300   110.66016901   309.20026894
 C      4   1   2     5.770069036156   118.71795477   298.36211700
 O      7   4   1     2.669009573357   123.59307945   350.83504411
 H      8   7   4     1.845553320062   104.37166867     9.35057470
 H      7   4   1     2.059696876401    78.45745519    95.00073892
 H      7   4   1     2.064506668974    36.41191766   272.28809732
 H      7   4   1     2.033786009786   120.81181870   195.43587576

---------------------
BASIS SET INFORMATION
---------------------
There are 3 groups of distinct atoms

 Group   1 Type C   : 11s6p2d1f contracted to 5s3p2d1f pattern {62111/411/11/1}
 Group   2 Type O   : 11s6p2d1f contracted to 5s3p2d1f pattern {62111/411/11/1}
 Group   3 Type H   : 5s1p contracted to 3s1p pattern {311/1}

Atom   0C    basis set group =>   1
Atom   1O    basis set group =>   2
Atom   2H    basis set group =>   3
Atom   3H    basis set group =>   3
Atom   4H    basis set group =>   3
Atom   5H    basis set group =>   3
Atom   6C    basis set group =>   1
Atom   7O    basis set group =>   2
Atom   8H    basis set group =>   3
Atom   9H    basis set group =>   3
Atom  10H    basis set group =>   3
Atom  11H    basis set group =>   3


           ************************************************************
           *        Program running with 8 parallel MPI-processes     *
           *              working on a common directory               *
           ************************************************************
------------------------------------------------------------------------------
                           ORCA GTO INTEGRAL CALCULATION
------------------------------------------------------------------------------

                         BASIS SET STATISTICS AND STARTUP INFO

 # of primitive gaussian shells          ...  128
 # of primitive gaussian functions       ...  248
 # of contracted shells                  ...   76
 # of contracted basis functions         ...  172
 Highest angular momentum                ...    3
 Maximum contraction depth               ...    6
 Integral package used                   ... LIBINT
 Integral threshhold            Thresh   ...  2.500e-11
 Primitive cut-off              TCut     ...  2.500e-12


------------------------------ INTEGRAL EVALUATION ----------------------------


 * One electron integrals 
 Pre-screening matrix                    ... done
 Shell pair data                         ... done (   0.001 sec)



           ************************************************************
           *        Program running with 8 parallel MPI-processes     *
           *              working on a common directory               *
           ************************************************************
-------------------------------------------------------------------------------
                                 ORCA SCF
-------------------------------------------------------------------------------

------------
SCF SETTINGS
------------
Hamiltonian:
 Density Functional     Method          .... DFT(GTOs)
 Exchange Functional    Exchange        .... WB97X-D3
 Correlation Functional Correlation     .... WB97X-D3
 Gradients option       PostSCFGGA      .... off
 Hybrid DFT is turned on
   Fraction HF Exchange ScalHFX         ....  0.195728
   Scaling of DF-GGA-X  ScalDFX         ....  0.000000
   Scaling of DF-GGA-C  ScalDFC         ....  1.000000
   Scaling of DF-LDA-C  ScalLDAC        ....  1.000000
   Perturbative correction              ....  0.000000
   Density functional embedding theory  .... OFF
 Long-range corrected/Screened/Range-Separated Hybrid DFT is turned on
   Amount of maximum screened exact exchange              ....  0.804272
   Range separation parameter mu (erf(mu*r12)/r12)        ....  0.250000


General Settings:
 Integral files         IntName         .... 7-15_DFT_A
 Hartree-Fock type      HFTyp           .... RHF
 Total Charge           Charge          ....    0
 Multiplicity           Mult            ....    1
 Number of Electrons    NEL             ....   18
 Basis Dimension        Dim             ....  172
 Nuclear Repulsion      ENuc            ....     39.6871929016 Eh

Convergence Acceleration:
 DIIS                   CNVDIIS         .... on
   Start iteration      DIISMaxIt       ....    12
   Startup error        DIISStart       ....  0.200000
   # of expansion vecs  DIISMaxEq       ....     5
   Bias factor          DIISBfac        ....   1.050
   Max. coefficient     DIISMaxC        ....  10.000
 Newton-Raphson         CNVNR           .... off
 SOSCF                  CNVSOSCF        .... on
   Start iteration      SOSCFMaxIt      ....   150
   Startup grad/error   SOSCFStart      ....  0.003300
 Level Shifting         CNVShift        .... on
   Level shift para.    LevelShift      ....    0.2500
   Turn off err/grad.   ShiftErr        ....    0.0010
 Zerner damping         CNVZerner       .... off
 Static damping         CNVDamp         .... on
   Fraction old density DampFac         ....    0.7000
   Max. Damping (<1)    DampMax         ....    0.9800
   Min. Damping (>=0)   DampMin         ....    0.0000
   Turn off err/grad.   DampErr         ....    0.1000
 Fernandez-Rico         CNVRico         .... off

SCF Procedure:
 Maximum # iterations   MaxIter         ....  1000
 SCF integral mode      SCFMode         .... Direct
   Integral package                     .... LIBINT
 Reset frequency        DirectResetFreq ....    20
 Integral Threshold     Thresh          ....  2.500e-11 Eh
 Primitive CutOff       TCut            ....  2.500e-12 Eh

Convergence Tolerance:
 Convergence Check Mode ConvCheckMode   .... Total+1el-Energy
 Convergence forced     ConvForced      .... 0
 Energy Change          TolE            ....  1.000e-08 Eh
 1-El. energy change                    ....  1.000e-05 Eh
 Orbital Gradient       TolG            ....  1.000e-05
 Orbital Rotation angle TolX            ....  1.000e-05
 DIIS Error             TolErr          ....  5.000e-07


Diagonalization of the overlap matrix:
Smallest eigenvalue                        ... 1.419e-03
Time for diagonalization                   ...    0.004 sec
Threshold for overlap eigenvalues          ... 1.000e-08
Number of eigenvalues below threshold      ... 0
Time for construction of square roots      ...    0.005 sec
Total time needed                          ...    0.009 sec

-------------------
DFT GRID GENERATION
-------------------

General Integration Accuracy     IntAcc      ...  4.340
Radial Grid Type                 RadialGrid  ... Gauss-Chebyshev
Angular Grid (max. acc.)         AngularGrid ... Lebedev-110
Angular grid pruning method      GridPruning ... 3 (G Style)
Weight generation scheme         WeightScheme... Becke
Basis function cutoff            BFCut       ...    1.0000e-11
Integration weight cutoff        WCut        ...    1.0000e-14
Grids for H and He will be reduced by one unit

# of grid points (after initial pruning)     ...  13096 (   0.0 sec)
# of grid points (after weights+screening)   ...  12435 (   0.0 sec)
nearest neighbour list constructed           ...    0.0 sec
Grid point re-assignment to atoms done       ...    0.0 sec
Grid point division into batches done        ...    0.0 sec
Reduced shell lists constructed in    0.0 sec

Total number of grid points                  ...    12435
Total number of batches                      ...      199
Average number of points per batch           ...       62
Average number of grid points per atom       ...     1036
Average number of shells per batch           ...    50.73 (66.75%)
Average number of basis functions per batch  ...   111.27 (64.69%)
Average number of large shells per batch     ...    41.35 (81.50%)
Average number of large basis fcns per batch ...    91.27 (82.03%)
Maximum spatial batch extension              ...  14.59, 22.02, 15.25 au
Average spatial batch extension              ...   0.36,  0.39,  0.38 au

Time for grid setup =    0.042 sec

------------------------------
INITIAL GUESS: MODEL POTENTIAL
------------------------------
Loading Hartree-Fock densities                     ... done
Calculating cut-offs                               ... done
Setting up the integral package                    ... done
Initializing the effective Hamiltonian             ... done
Starting the Coulomb interaction                   ... done (   0.0 sec)
Reading the grid                                   ... done
Mapping shells                                     ... done
Starting the XC term evaluation                    ... done (   0.0 sec)
  promolecular density results
     # of electrons  =     18.001391474
     EX              =    -14.417298603
     EC              =     -0.572697135
     EX+EC           =    -14.989995737
Transforming the Hamiltonian                       ... done (   0.0 sec)
Diagonalizing the Hamiltonian                      ... done (   0.0 sec)
Back transforming the eigenvectors                 ... done (   0.0 sec)
Now organizing SCF variables                       ... done
                      ------------------
                      INITIAL GUESS DONE (   0.2 sec)
                      ------------------
--------------
SCF ITERATIONS
--------------
ITER       Energy         Delta-E        Max-DP      RMS-DP      [F,P]     Damp
               ***  Starting incremental Fock matrix formation  ***
  0   -115.6503780037   0.000000000000 0.03625002  0.00073746  0.2561481 0.7000
  1   -115.6860463700  -0.035668366271 0.02166744  0.00052212  0.1281009 0.7000
                               ***Turning on DIIS***
  2   -115.7023567170  -0.016310347003 0.03120245  0.00093720  0.0500060 0.0000
  3   -115.7289805582  -0.026623841186 0.01733981  0.00034881  0.0608742 0.0000
  4   -115.7333047810  -0.004324222859 0.00405919  0.00006905  0.0059115 0.0000
                      *** Initiating the SOSCF procedure ***
                           *** Shutting down DIIS ***
                      *** Re-Reading the Fockian *** 
                      *** Removing any level shift *** 
ITER      Energy       Delta-E        Grad      Rot      Max-DP    RMS-DP
  5   -115.73339464  -0.0000898602  0.000432  0.000432  0.000662  0.000023
               *** Restarting incremental Fock matrix formation ***
  6   -115.73340249  -0.0000078537  0.000129  0.000193  0.000480  0.000014
  7   -115.73340333  -0.0000008335  0.000041  0.000102  0.000221  0.000006
  8   -115.73340340  -0.0000000734  0.000017  0.000017  0.000036  0.000001
  9   -115.73340341  -0.0000000038  0.000012  0.000008  0.000016  0.000001
                  ***Gradient check signals convergence***
              ***Rediagonalizing the Fockian in SOSCF/NRSCF***

               *****************************************************
               *                     SUCCESS                       *
               *           SCF CONVERGED AFTER  10 CYCLES          *
               *****************************************************

Setting up the final grid:

General Integration Accuracy     IntAcc      ...  4.670
Radial Grid Type                 RadialGrid  ... Gauss-Chebyshev
Angular Grid (max. acc.)         AngularGrid ... Lebedev-302
Angular grid pruning method      GridPruning ... 3 (G Style)
Weight generation scheme         WeightScheme... Becke
Basis function cutoff            BFCut       ...    1.0000e-11
Integration weight cutoff        WCut        ...    1.0000e-14
Grids for H and He will be reduced by one unit

# of grid points (after initial pruning)     ...  52000 (   0.0 sec)
# of grid points (after weights+screening)   ...  48860 (   0.0 sec)
nearest neighbour list constructed           ...    0.0 sec
Grid point re-assignment to atoms done       ...    0.0 sec
Grid point division into batches done        ...    0.2 sec
Reduced shell lists constructed in    0.2 sec

Total number of grid points                  ...    48860
Total number of batches                      ...      767
Average number of points per batch           ...       63
Average number of grid points per atom       ...     4072
Average number of shells per batch           ...    48.57 (63.90%)
Average number of basis functions per batch  ...   105.27 (61.20%)
Average number of large shells per batch     ...    39.63 (81.60%)
Average number of large basis fcns per batch ...    87.59 (83.20%)
Maximum spatial batch extension              ...  13.99, 14.91, 15.59 au
Average spatial batch extension              ...   0.24,  0.27,  0.26 au

Final grid set up in    0.3 sec
Final integration                            ... done (   0.1 sec)
Change in XC energy                          ...    -0.000007274
Integrated number of electrons               ...    17.999837145
Previous integrated no of electrons          ...    17.999973048

----------------
TOTAL SCF ENERGY
----------------

Total Energy       :         -115.73341068 Eh           -3149.26621 eV

Components:
Nuclear Repulsion  :           39.68719290 Eh            1079.94342 eV
Electronic Energy  :         -155.42060358 Eh           -4229.20963 eV
One Electron Energy:         -235.80972024 Eh           -6416.70871 eV
Two Electron Energy:           80.38911666 Eh            2187.49907 eV

Virial components:
Potential Energy   :         -230.90732846 Eh           -6283.30784 eV
Kinetic Energy     :          115.17391778 Eh            3134.04163 eV
Virial Ratio       :            2.00485781


DFT components:
N(Alpha)           :        8.999918572720 electrons
N(Beta)            :        8.999918572720 electrons
N(Total)           :       17.999837145440 electrons
E(XC)              :      -10.638148057176 Eh       
DFET-embed. en.    :        0.000000000000 Eh       

---------------
SCF CONVERGENCE
---------------

  Last Energy change         ...   -2.9338e-09  Tolerance :   1.0000e-08
  Last MAX-Density change    ...    2.4549e-06  Tolerance :   1.0000e-07
  Last RMS-Density change    ...    6.8880e-08  Tolerance :   5.0000e-09
  Last Orbital Gradient      ...    1.5897e-06  Tolerance :   1.0000e-05
  Last Orbital Rotation      ...    1.5289e-06  Tolerance :   1.0000e-05

             **** THE GBW FILE WAS UPDATED (7-15_DFT_A.gbw) ****
             **** DENSITY FILE WAS UPDATED (7-15_DFT_A.scfp.tmp) ****
             **** ENERGY FILE WAS UPDATED (7-15_DFT_A.en.tmp) ****
----------------
ORBITAL ENERGIES
----------------

  NO   OCC          E(Eh)            E(eV) 
   0   2.0000     -19.228822      -523.2428 
   1   2.0000     -10.321118      -280.8519 
   2   2.0000      -1.128656       -30.7123 
   3   2.0000      -0.798862       -21.7381 
   4   2.0000      -0.607634       -16.5346 
   5   2.0000      -0.536169       -14.5899 
   6   2.0000      -0.520125       -14.1533 
   7   2.0000      -0.437075       -11.8934 
   8   2.0000      -0.377365       -10.2686 
   9   0.0000       0.073275         1.9939 
  10   0.0000       0.132244         3.5986 
  11   0.0000       0.148207         4.0329 
  12   0.0000       0.164176         4.4675 
  13   0.0000       0.194829         5.3016 
  14   0.0000       0.200734         5.4622 
  15   0.0000       0.214995         5.8503 
  16   0.0000       0.232537         6.3276 
  17   0.0000       0.245921         6.6919 
  18   0.0000       0.277934         7.5630 
  19   0.0000       0.307758         8.3745 
  20   0.0000       0.327935         8.9236 
  21   0.0000       0.337802         9.1921 
  22   0.0000       0.358030         9.7425 
  23   0.0000       0.396102        10.7785 
  24   0.0000       0.420937        11.4543 
  25   0.0000       0.449851        12.2411 
  26   0.0000       0.470581        12.8052 
  27   0.0000       0.491662        13.3788 
  28   0.0000       0.511399        13.9159 
  29   0.0000       0.535994        14.5851 
  30   0.0000       0.568807        15.4780 
  31   0.0000       0.581430        15.8215 
  32   0.0000       0.595782        16.2121 
  33   0.0000       0.606000        16.4901 
  34   0.0000       0.630718        17.1627 
  35   0.0000       0.653322        17.7778 
  36   0.0000       0.692428        18.8419 
  37   0.0000       0.742103        20.1936 
  38   0.0000       0.767244        20.8778 
  39   0.0000       0.784509        21.3476 
  40   0.0000       0.833399        22.6779 
  41   0.0000       0.866416        23.5764 
  42   0.0000       0.892207        24.2782 
  43   0.0000       0.898579        24.4516 
  44   0.0000       0.994250        27.0549 
  45   0.0000       1.055841        28.7309 
  46   0.0000       1.062652        28.9162 
  47   0.0000       1.114517        30.3275 
  48   0.0000       1.148042        31.2398 
  49   0.0000       1.177415        32.0391 
  50   0.0000       1.193038        32.4642 
  51   0.0000       1.210061        32.9274 
  52   0.0000       1.226858        33.3845 
  53   0.0000       1.361087        37.0371 
  54   0.0000       1.387854        37.7654 
  55   0.0000       1.403608        38.1941 
  56   0.0000       1.469931        39.9989 
  57   0.0000       1.510193        41.0945 
  58   0.0000       1.520318        41.3700 
  59   0.0000       1.560637        42.4671 
  60   0.0000       1.594649        43.3926 
  61   0.0000       1.632793        44.4306 
  62   0.0000       1.635070        44.4925 
  63   0.0000       1.678880        45.6847 
  64   0.0000       1.688009        45.9330 
  65   0.0000       1.793159        48.7943 
  66   0.0000       1.804671        49.1076 
  67   0.0000       1.920556        52.2610 
  68   0.0000       1.927063        52.4380 
  69   0.0000       1.969056        53.5807 
  70   0.0000       2.017017        54.8858 
  71   0.0000       2.056913        55.9714 
  72   0.0000       2.070115        56.3307 
  73   0.0000       2.098578        57.1052 
  74   0.0000       2.118634        57.6510 
  75   0.0000       2.176744        59.2322 
  76   0.0000       2.218913        60.3797 
  77   0.0000       2.232975        60.7623 
  78   0.0000       2.271963        61.8232 
  79   0.0000       2.303968        62.6942 
  80   0.0000       2.340980        63.7013 
  81   0.0000       2.363577        64.3162 
  82   0.0000       2.397446        65.2378 
  83   0.0000       2.464035        67.0498 
  84   0.0000       2.501821        68.0780 
  85   0.0000       2.528255        68.7973 
  86   0.0000       2.577662        70.1417 
  87   0.0000       2.609560        71.0097 
  88   0.0000       2.626920        71.4821 
  89   0.0000       2.641845        71.8883 
  90   0.0000       2.684477        73.0483 
  91   0.0000       2.729573        74.2755 
  92   0.0000       2.807401        76.3933 
  93   0.0000       2.858434        77.7819 
  94   0.0000       2.871191        78.1291 
  95   0.0000       2.887369        78.5693 
  96   0.0000       2.906576        79.0920 
  97   0.0000       3.015605        82.0588 
  98   0.0000       3.053604        83.0928 
  99   0.0000       3.093080        84.1670 
 100   0.0000       3.119191        84.8775 
 101   0.0000       3.147453        85.6466 
 102   0.0000       3.174076        86.3710 
 103   0.0000       3.221826        87.6703 
 104   0.0000       3.235484        88.0420 
 105   0.0000       3.317588        90.2762 
 106   0.0000       3.334797        90.7444 
 107   0.0000       3.372352        91.7664 
 108   0.0000       3.425935        93.2244 
 109   0.0000       3.448371        93.8350 
 110   0.0000       3.479029        94.6692 
 111   0.0000       3.554452        96.7216 
 112   0.0000       3.636795        98.9622 
 113   0.0000       3.637706        98.9870 
 114   0.0000       3.667072        99.7861 
 115   0.0000       3.695673       100.5644 
 116   0.0000       3.729929       101.4965 
 117   0.0000       4.043818       110.0379 
 118   0.0000       4.079594       111.0114 
 119   0.0000       4.174784       113.6016 
 120   0.0000       4.211976       114.6137 
 121   0.0000       4.257614       115.8556 
 122   0.0000       4.281983       116.5187 
 123   0.0000       4.301410       117.0473 
 124   0.0000       4.313852       117.3859 
 125   0.0000       4.432587       120.6168 
 126   0.0000       4.518605       122.9575 
 127   0.0000       4.546890       123.7272 
 128   0.0000       4.565923       124.2451 
 129   0.0000       4.592722       124.9743 
 130   0.0000       4.616092       125.6102 
 131   0.0000       5.014438       136.4498 
 132   0.0000       5.054062       137.5280 
 133   0.0000       5.144604       139.9918 
 134   0.0000       5.294422       144.0685 
 135   0.0000       5.324650       144.8911 
 136   0.0000       5.404271       147.0577 
 137   0.0000       5.414795       147.3441 
 138   0.0000       5.567742       151.5060 
 139   0.0000       5.746667       156.3748 
 140   0.0000       5.796114       157.7203 
 141   0.0000       5.863511       159.5543 
 142   0.0000       5.907046       160.7389 
 143   0.0000       5.928730       161.3289 
 144   0.0000       6.099186       165.9673 
 145   0.0000       6.440807       175.2633 
 146   0.0000       6.523440       177.5118 
 147   0.0000       6.607602       179.8020 
 148   0.0000       6.729114       183.1085 
 149   0.0000       6.748052       183.6238 
 150   0.0000       6.769556       184.2090 
 151   0.0000       6.807152       185.2320 
 152   0.0000       7.046303       191.7397 
 153   0.0000       7.069120       192.3605 
 154   0.0000       7.226185       196.6345 
 155   0.0000       7.243214       197.0979 
 156   0.0000       7.427595       202.1151 
 157   0.0000       8.012685       218.0363 
 158   0.0000       8.868317       241.3192 
 159   0.0000       9.335748       254.0386 
 160   0.0000       9.521856       259.1029 
 161   0.0000       9.546294       259.7679 
 162   0.0000       9.796263       266.5699 
 163   0.0000       9.892283       269.1827 
 164   0.0000       9.924120       270.0490 
 165   0.0000      10.091142       274.5939 
 166   0.0000      11.188512       304.4549 
[...]
  82   0.0000       2.406045        65.4718 
  83   0.0000       2.423542        65.9479 
  84   0.0000       2.483152        67.5700 
  85   0.0000       2.550415        69.4003 
  86   0.0000       2.556581        69.5681 
  87   0.0000       2.587943        70.4215 
  88   0.0000       2.610317        71.0303 
  89   0.0000       2.628687        71.5302 
  90   0.0000       2.677264        72.8520 
  91   0.0000       2.706957        73.6600 
  92   0.0000       2.832639        77.0800 
  93   0.0000       2.842700        77.3538 
  94   0.0000       2.860413        77.8358 
  95   0.0000       2.896891        78.8284 
  96   0.0000       2.936489        79.9059 
  97   0.0000       2.993183        81.4486 
  98   0.0000       3.009617        81.8958 
  99   0.0000       3.102623        84.4267 
 100   0.0000       3.109698        84.6192 
 101   0.0000       3.163460        86.0821 
 102   0.0000       3.180552        86.5472 
 103   0.0000       3.202713        87.1503 
 104   0.0000       3.295888        89.6857 
 105   0.0000       3.316521        90.2471 
 106   0.0000       3.398987        92.4911 
 107   0.0000       3.413287        92.8803 
 108   0.0000       3.430762        93.3558 
 109   0.0000       3.451857        93.9298 
 110   0.0000       3.504267        95.3560 
 111   0.0000       3.560350        96.8821 
 112   0.0000       3.633542        98.8737 
 113   0.0000       3.642791        99.1254 
 114   0.0000       3.661643        99.6384 
 115   0.0000       3.680369       100.1479 
 116   0.0000       3.725114       101.3655 
 117   0.0000       4.025887       109.5499 
 118   0.0000       4.065455       110.6267 
 119   0.0000       4.135241       112.5256 
 120   0.0000       4.197965       114.2324 
 121   0.0000       4.253319       115.7387 
 122   0.0000       4.259582       115.9091 
 123   0.0000       4.291984       116.7908 
 124   0.0000       4.337093       118.0183 
 125   0.0000       4.473908       121.7412 
 126   0.0000       4.517497       122.9273 
 127   0.0000       4.557101       124.0050 
 128   0.0000       4.560829       124.1065 
 129   0.0000       4.567163       124.2788 
 130   0.0000       4.614487       125.5666 
 131   0.0000       5.013209       136.4163 
 132   0.0000       5.055243       137.5602 
 133   0.0000       5.146736       140.0498 
 134   0.0000       5.360642       145.8705 
 135   0.0000       5.386132       146.5641 
 136   0.0000       5.464268       148.6903 
 137   0.0000       5.503956       149.7702 
 138   0.0000       5.531580       150.5219 
 139   0.0000       5.774746       157.1388 
 140   0.0000       5.779352       157.2642 
 141   0.0000       5.823631       158.4691 
 142   0.0000       5.833125       158.7274 
 143   0.0000       6.005249       163.4111 
 144   0.0000       6.070102       165.1759 
 145   0.0000       6.306147       171.5990 
 146   0.0000       6.533295       177.7800 
 147   0.0000       6.562370       178.5712 
 148   0.0000       6.654810       181.0866 
 149   0.0000       6.763583       184.0464 
 150   0.0000       6.819077       185.5565 
 151   0.0000       6.861099       186.7000 
 152   0.0000       7.023928       191.1308 
 153   0.0000       7.043700       191.6688 
 154   0.0000       7.127350       193.9451 
 155   0.0000       7.197620       195.8572 
 156   0.0000       7.326766       199.3714 
 157   0.0000       8.219227       223.6565 
 158   0.0000       8.857062       241.0129 
 159   0.0000       9.345451       254.3027 
 160   0.0000       9.537586       259.5309 
 161   0.0000       9.578617       260.6474 
 162   0.0000       9.747406       265.2404 
 163   0.0000       9.846322       267.9320 
 164   0.0000       9.900554       269.4078 
 165   0.0000       9.995039       271.9788 
 166   0.0000      11.035236       300.2840 
 167   0.0000      19.104503       519.8600 
 168   0.0000      22.453737       610.9972 
 169   0.0000      43.713863      1189.5147 
 170   0.0000      65.775170      1789.8334 
 171   0.0000     126.429453      3440.3203 

                    ********************************
                    * MULLIKEN POPULATION ANALYSIS *
                    ********************************

-----------------------
MULLIKEN ATOMIC CHARGES
-----------------------
   0 C :    0.002678
   1 O :    0.000133
   2 H :   -0.000305
   3 H :   -0.004646
   4 H :   -0.000026
   5 H :   -0.000301
   6 C :   -0.165748
   7 O :   -0.472277
   8 H :    0.315011
   9 H :    0.100845
  10 H :    0.105467
  11 H :    0.119168
Sum of atomic charges:   -0.0000000

--------------------------------
MULLIKEN REDUCED ORBITAL CHARGES
--------------------------------
  0 C s       :    -0.001806  s :    -0.001806
      pz      :     0.000403  p :    -0.000886
      px      :    -0.000683
      py      :    -0.000605
      dz2     :     0.000020  d :     0.000014
      dxz     :    -0.000014
      dyz     :    -0.000004
      dx2y2   :    -0.000014
      dxy     :     0.000025
      f0      :    -0.000000  f :     0.000000
      f+1     :     0.000001
      f-1     :     0.000000
      f+2     :     0.000000
      f-2     :     0.000000
      f+3     :    -0.000001
      f-3     :    -0.000000
  1 O s       :     0.000010  s :     0.000010
      pz      :     0.000027  p :    -0.000142
      px      :    -0.000053
      py      :    -0.000116
      dz2     :     0.000001  d :    -0.000001
      dxz     :    -0.000000
      dyz     :     0.000000
      dx2y2   :     0.000000
      dxy     :    -0.000001
      f0      :    -0.000000  f :    -0.000000
      f+1     :    -0.000000
      f-1     :     0.000000
      f+2     :    -0.000000
      f-2     :    -0.000000
      f+3     :    -0.000000
      f-3     :    -0.000000
  2 H s       :     0.000310  s :     0.000310
      pz      :    -0.000000  p :    -0.000005
      px      :    -0.000000
      py      :    -0.000004
  3 H s       :     0.004619  s :     0.004619
      pz      :    -0.000001  p :     0.000026
      px      :     0.000028
      py      :    -0.000001
  4 H s       :     0.000026  s :     0.000026
      pz      :    -0.000000  p :     0.000000
      px      :     0.000000
      py      :     0.000000
  5 H s       :     0.000303  s :     0.000303
      pz      :    -0.000000  p :    -0.000001
      px      :    -0.000001
      py      :     0.000000
  6 C s       :     3.227069  s :     3.227069
      pz      :     1.037467  p :     2.835630
      px      :     0.965997
      py      :     0.832165
      dz2     :     0.005697  d :     0.095513
      dxz     :     0.016493
      dyz     :     0.028091
      dx2y2   :     0.022117
      dxy     :     0.023116
      f0      :     0.001030  f :     0.007536
      f+1     :     0.001133
      f-1     :     0.000549
      f+2     :     0.000229
      f-2     :     0.001495
      f+3     :     0.001199
      f-3     :     0.001901
  7 O s       :     3.802580  s :     3.802580
      pz      :     1.900836  p :     4.636926
      px      :     1.511225
      py      :     1.224864
      dz2     :     0.004720  d :     0.031159
      dxz     :     0.003323
      dyz     :     0.002790
      dx2y2   :     0.004029
      dxy     :     0.016297
      f0      :     0.000203  f :     0.001611
      f+1     :     0.000260
      f-1     :     0.000414
      f+2     :     0.000033
      f-2     :     0.000140
      f+3     :     0.000313
      f-3     :     0.000247
  8 H s       :     0.639560  s :     0.639560
      pz      :     0.016680  p :     0.045429
      px      :     0.013963
      py      :     0.014786
  9 H s       :     0.879163  s :     0.879163
      pz      :     0.010670  p :     0.019992
      px      :     0.005349
      py      :     0.003972
 10 H s       :     0.875238  s :     0.875238
      pz      :     0.009168  p :     0.019295
      px      :     0.007030
      py      :     0.003097
 11 H s       :     0.860314  s :     0.860314
      pz      :     0.004968  p :     0.020517
      px      :     0.006441
      py      :     0.009108


                     *******************************
                     * LOEWDIN POPULATION ANALYSIS *
                     *******************************

----------------------
LOEWDIN ATOMIC CHARGES
----------------------
   0 C :   -0.007729
   1 O :   -0.000134
   2 H :   -0.001202
   3 H :   -0.006298
   4 H :   -0.000030
   5 H :   -0.000740
   6 C :   -0.381468
   7 O :   -0.084635
   8 H :    0.179846
   9 H :    0.096801
  10 H :    0.101717
  11 H :    0.103873

-------------------------------
LOEWDIN REDUCED ORBITAL CHARGES
-------------------------------
  0 C s       :     0.000837  s :     0.000837
      pz      :     0.000407  p :     0.006589
      px      :     0.005664
      py      :     0.000518
      dz2     :     0.000065  d :     0.000301
      dxz     :     0.000013
      dyz     :     0.000002
      dx2y2   :     0.000153
      dxy     :     0.000068
      f0      :     0.000000  f :     0.000004
      f+1     :     0.000001
      f-1     :     0.000001
      f+2     :     0.000000
      f-2     :     0.000000
      f+3     :     0.000001
      f-3     :     0.000001
  1 O s       :     0.000022  s :     0.000022
      pz      :     0.000016  p :     0.000110
      px      :     0.000065
      py      :     0.000029
      dz2     :     0.000000  d :     0.000002
      dxz     :     0.000000
      dyz     :     0.000001
      dx2y2   :     0.000000
      dxy     :     0.000001
      f0      :     0.000000  f :     0.000000
      f+1     :     0.000000
      f-1     :     0.000000
      f+2     :     0.000000
      f-2     :     0.000000
      f+3     :     0.000000
      f-3     :     0.000000
  2 H s       :     0.001192  s :     0.001192
      pz      :     0.000000  p :     0.000010
      px      :     0.000007
      py      :     0.000002
  3 H s       :     0.006203  s :     0.006203
      pz      :     0.000003  p :     0.000095
      px      :     0.000091
      py      :     0.000001
  4 H s       :     0.000028  s :     0.000028
      pz      :     0.000000  p :     0.000002
      px      :     0.000002
      py      :     0.000000
  5 H s       :     0.000740  s :     0.000740
      pz      :     0.000000  p :     0.000001
      px      :     0.000000
      py      :     0.000000
  6 C s       :     2.859067  s :     2.859067
      pz      :     1.091305  p :     3.051851
      px      :     1.038390
      py      :     0.922156
      dz2     :     0.047798  d :     0.412820
      dxz     :     0.089300
      dyz     :     0.083707
      dx2y2   :     0.073598
      dxy     :     0.118418
      f0      :     0.007489  f :     0.057730
      f+1     :     0.004806
      f-1     :     0.007859
      f+2     :     0.005235
      f-2     :     0.008126
      f+3     :     0.011275
      f-3     :     0.012941
  7 O s       :     3.380639  s :     3.380639
      pz      :     1.797986  p :     4.627848
      px      :     1.551116
      py      :     1.278747
      dz2     :     0.008832  d :     0.071443
      dxz     :     0.005066
      dyz     :     0.010071
      dx2y2   :     0.013116
      dxy     :     0.034359
      f0      :     0.000400  f :     0.004705
      f+1     :     0.000358
      f-1     :     0.000734
      f+2     :     0.000130
      f-2     :     0.000573
      f+3     :     0.001020
      f-3     :     0.001490
  8 H s       :     0.670049  s :     0.670049
      pz      :     0.043963  p :     0.150105
      px      :     0.058661
      py      :     0.047481
  9 H s       :     0.842309  s :     0.842309
      pz      :     0.031639  p :     0.060890
      px      :     0.016981
      py      :     0.012270
 10 H s       :     0.837666  s :     0.837666
      pz      :     0.027888  p :     0.060617
      px      :     0.022209
      py      :     0.010520
 11 H s       :     0.834000  s :     0.834000
      pz      :     0.015351  p :     0.062127
      px      :     0.020818
      py      :     0.025958


                      *****************************
                      * MAYER POPULATION ANALYSIS *
                      *****************************

  NA   - Mulliken gross atomic population
  ZA   - Total nuclear charge
  QA   - Mulliken gross atomic charge
  VA   - Mayer's total valence
  BVA  - Mayer's bonded valence
  FA   - Mayer's free valence

  ATOM       NA         ZA         QA         VA         BVA        FA
  0 C     -0.0027     0.0000     0.0027    -0.0054    -0.0054    -0.0000
  1 O     -0.0001     0.0000     0.0001    -0.0003    -0.0003     0.0000
  2 H      0.0003     0.0000    -0.0003     0.0006     0.0006    -0.0000
  3 H      0.0046     0.0000    -0.0046     0.0093     0.0093     0.0000
  4 H      0.0000     0.0000    -0.0000     0.0001     0.0001     0.0000
  5 H      0.0003     0.0000    -0.0003     0.0006     0.0006     0.0000
  6 C      6.1657     6.0000    -0.1657     3.9401     3.9401    -0.0000
  7 O      8.4723     8.0000    -0.4723     1.8860     1.8860    -0.0000
  8 H      0.6850     1.0000     0.3150     0.9112     0.9112    -0.0000
  9 H      0.8992     1.0000     0.1008     0.9589     0.9589    -0.0000
 10 H      0.8945     1.0000     0.1055     0.9655     0.9655     0.0000
 11 H      0.8808     1.0000     0.1192     0.9569     0.9569    -0.0000

  Mayer bond orders larger than 0.1
B(  6-C ,  7-O ) :   0.9981 B(  6-C ,  9-H ) :   0.9807 B(  6-C , 10-H ) :   0.9818 
B(  6-C , 11-H ) :   0.9706 B(  7-O ,  8-H ) :   0.9011 

-------
TIMINGS
-------

Total SCF time: 0 days 0 hours 0 min 9 sec 

Total time                  ....       9.963 sec
Sum of individual times     ....       9.690 sec  ( 97.3%)

Fock matrix formation       ....       9.149 sec  ( 91.8%)
  XC integration            ....       1.743 sec  ( 19.0% of F)
    Basis function eval.    ....       0.064 sec  (  3.7% of XC)
    Density eval.           ....       0.058 sec  (  3.3% of XC)
    XC-Functional eval.     ....       0.084 sec  (  4.8% of XC)
    XC-Potential eval.      ....       0.072 sec  (  4.1% of XC)
Diagonalization             ....       0.061 sec  (  0.6%)
Density matrix formation    ....       0.005 sec  (  0.1%)
Population analysis         ....       0.017 sec  (  0.2%)
Initial guess               ....       0.100 sec  (  1.0%)
Orbital Transformation      ....       0.000 sec  (  0.0%)
Orbital Orthonormalization  ....       0.000 sec  (  0.0%)
DIIS solution               ....       0.034 sec  (  0.3%)
SOSCF solution              ....       0.027 sec  (  0.3%)
Grid generation             ....       0.297 sec  (  3.0%)


-------------------------------------------------------------------------------
                          DFT DISPERSION CORRECTION                            
                                                                               
                              DFTD3 V3.1  Rev 1                                
                              USING zero damping                               
-------------------------------------------------------------------------------
The omegaB97X-D3 functional is recognized. Fit by Chai et al.
Active option DFTDOPT                   ...         3   

molecular C6(AA) [au] = 208.682228 


            DFT-D V3
 parameters
 s6 scaling factor         :     1.0000 
 rs6 scaling factor        :     1.2810 
 s8 scaling factor         :     1.0000 
 rs8 scaling factor        :     1.0940 
 Damping factor alpha6     :    14.0000 
 Damping factor alpha8     :    16.0000 
 ad hoc parameters k1-k3   :    16.0000     1.3333    -4.0000 

 Edisp/kcal,au: -0.138743364856  -0.000221101602 
 E6   /kcal   :  -0.027628017 
 E8   /kcal   :  -0.111115348 
 % E8         :  80.086963416 

-------------------------   ----------------
Dispersion correction           -0.000221102
-------------------------   ----------------


-------------------------   --------------------
FINAL SINGLE POINT ENERGY      -115.734638585687
-------------------------   --------------------


                            ***************************************
                            *     ORCA property calculations      *
                            ***************************************

                                    ---------------------
                                    Active property flags
                                    ---------------------
   (+) Dipole Moment


------------------------------------------------------------------------------
                       ORCA ELECTRIC PROPERTIES CALCULATION
------------------------------------------------------------------------------

Dipole Moment Calculation                       ... on
Quadrupole Moment Calculation                   ... off
Polarizability Calculation                      ... off
GBWName                                         ... 7-15_DFT_B.gbw
Electron density file                           ... 7-15_DFT_B.scfp.tmp
The origin for moment calculation is the CENTER OF MASS  = (-9.249273, -7.457465  7.452726)

-------------
DIPOLE MOMENT
-------------
                                X             Y             Z
Electronic contribution:     -1.08091      -1.41435       0.19723
Nuclear contribution   :      1.76713       1.44852      -0.29460
                        -----------------------------------------
Total Dipole Moment    :      0.68622       0.03416      -0.09737
                        -----------------------------------------
Magnitude (a.u.)       :      0.69394
Magnitude (Debye)      :      1.76385



--------------------
Rotational spectrum 
--------------------
 
Rotational constants in cm-1:     4.250123     0.838790     0.812493 
Rotational constants in MHz : 127415.491783 25146.292106 24357.922226 

 Dipole components along the rotational axes: 
x,y,z [a.u.] :    -0.371358     0.581457    -0.074490 
x,y,z [Debye]:    -0.943918     1.477947    -0.189338 

 
------------------------------------------------------------------------------
                      ORCA CHELPG CHARGES GENERATION
------------------------------------------------------------------------------

GBW file                           ... 7-15_DFT_B.gbw

Reading the GBW file               ... done

Grid spacing                       ...     0.300000
Point Cut-Off                      ...     2.800000
Van-der-Waals Radii                ...        COSMO
Total charge                       ...            0


Number of points X direction       ...           36
Number of points Y direction       ...           27
Number of points Z direction       ...           26
Maximum number of possible points  ...        25272
Final number of points             ...         5893


CHELPG Charges            
--------------------------------
  0   C   :       0.001887
  1   O   :      -0.015988
  2   H   :       0.005846
  3   H   :      -0.002840
  4   H   :      -0.007622
  5   H   :       0.007954
  6   C   :       0.071827
  7   O   :      -0.581015
  8   H   :       0.389605
  9   H   :       0.028348
 10   H   :       0.017202
 11   H   :       0.084797
--------------------------------
Total charge:     0.000000
--------------------------------

CHELPG charges calculated...

Timings for individual parts in CHELPG calculation:
Grid generation                 ...        0.001 sec (=   0.000 min)
Potential calculation           ...        1.203 sec (=   0.020 min)
Fit to the potential            ...        0.002 sec (=   0.000 min)
------------------------------------------------------------------------------


Timings for individual modules:

Sum of individual times         ...       12.141 sec (=   0.202 min)
GTO integral calculation        ...        0.642 sec (=   0.011 min)   5.3 %
SCF iterations                  ...       10.266 sec (=   0.171 min)  84.6 %
CHELPG charge generation        ...        1.233 sec (=   0.021 min)  10.2 %



                             ****ORCA TERMINATED NORMALLY****
TOTAL RUN TIME: 0 days 0 hours 1 minutes 5 seconds 183 msec
