
                                 *****************
                                 * O   R   C   A *
                                 *****************

           --- An Ab Initio, DFT and Semiempirical electronic structure package ---

                  #######################################################
                  #                        -***-                        #
                  #          Department of theory and spectroscopy      #
                  #               Directorship: Frank Neese             #
                  #        Max Planck Institute fuer Kohlenforschung    #
                  #                Kaiser Wilhelm Platz 1               #
                  #                 D-45470 Muelheim/Ruhr               #
                  #                      Germany                        #
                  #                                                     #
                  #                  All rights reserved                #
                  #                        -***-                        #
                  #######################################################


                         Program Version 4.1.2  - RELEASE  -


 With contributions from (in alphabetic order):
   Daniel Aravena         : Magnetic Properties
   Michael Atanasov       : Ab Initio Ligand Field Theory
   Alexander A. Auer      : GIAO ZORA
   Ute Becker             : Parallelization
   Giovanni Bistoni       : ED, Open-shell LED
   Martin Brehm           : Molecular dynamics
   Dmytro Bykov           : SCF Hessian
   Vijay G. Chilkuri      : MRCI spin determinant printing
   Dipayan Datta          : RHF DLPNO-CCSD density
   Achintya Kumar Dutta   : EOM-CC, STEOM-CC
   Dmitry Ganyushin       : Spin-Orbit,Spin-Spin,Magnetic field MRCI
   Miquel Garcia          : C-PCM Hessian
   Yang Guo               : DLPNO-NEVPT2, CIM, IAO-localization
   Andreas Hansen         : Spin unrestricted coupled pair/coupled cluster methods
   Benjamin Helmich-Paris : CASSCF linear response (MC-RPA)
   Lee Huntington         : MR-EOM, pCC
   Robert Izsak           : Overlap fitted RIJCOSX, COSX-SCS-MP3, EOM
   Christian Kollmar      : KDIIS, OOCD, Brueckner-CCSD(T), CCSD density
   Simone Kossmann        : Meta GGA functionals, TD-DFT gradient, OOMP2, MP2 Hessian
   Martin Krupicka        : AUTO-CI
   Lucas Lang             : DCDCAS
   Dagmar Lenk            : GEPOL surface, SMD
   Dimitrios Liakos       : Extrapolation schemes; parallel MDCI
   Dimitrios Manganas     : ROCIS; embedding schemes
   Dimitrios Pantazis     : SARC Basis sets
   Taras Petrenko         : DFT Hessian,TD-DFT gradient, ASA, ECA, R-Raman, ABS, FL, XAS/XES, NRVS
   Peter Pinski           : DLPNO-MP2, DLPNO-MP2 Gradient
   Christoph Reimann      : Effective Core Potentials
   Marius Retegan         : Local ZFS, SOC
   Christoph Riplinger    : Optimizer, TS searches, QM/MM, DLPNO-CCSD(T), (RO)-DLPNO pert. Triples
   Tobias Risthaus        : Range-separated hybrids, TD-DFT gradient, RPA, STAB
   Michael Roemelt        : Restricted open shell CIS
   Masaaki Saitow         : Open-shell DLPNO
   Barbara Sandhoefer     : DKH picture change effects
   Avijit Sen             : IP-ROCIS
   Kantharuban Sivalingam : CASSCF convergence, NEVPT2, FIC-MRCI
   Bernardo de Souza      : ESD, SOC TD-DFT
   Georgi Stoychev        : AutoAux, RI-MP2 NMR
   Willem Van den Heuvel  : Paramagnetic NMR
   Boris Wezisla          : Elementary symmetry handling
   Frank Wennmohs         : Technical directorship


 We gratefully acknowledge several colleagues who have allowed us to
 interface, adapt or use parts of their codes:
   Stefan Grimme, W. Hujo, H. Kruse,             : VdW corrections, initial TS optimization,
                  C. Bannwarth                     DFT functionals, gCP, sTDA/sTD-DF
   Ed Valeev                                     : LibInt (2-el integral package), F12 methods
   Garnet Chan, S. Sharma, J. Yang, R. Olivares  : DMRG
   Ulf Ekstrom                                   : XCFun DFT Library
   Mihaly Kallay                                 : mrcc  (arbitrary order and MRCC methods)
   Andreas Klamt, Michael Diedenhofen            : otool_cosmo (COSMO solvation model)
   Jiri Pittner, Ondrej Demel                    : Mk-CCSD
   Frank Weinhold                                : gennbo (NPA and NBO analysis)
   Christopher J. Cramer and Donald G. Truhlar   : smd solvation model
   Lars Goerigk                                  : TD-DFT with DH, B97 family of functionals
   V. Asgeirsson, H. Jonsson                     : NEB implementation
   FAccTs GmbH                                   : IRC, NEB, NEB-TS, Multilevel


 Your calculation uses the libint2 library for the computation of 2-el integrals
 For citations please refer to: http://libint.valeyev.net

 This ORCA versions uses:
   CBLAS   interface :  Fast vector & matrix operations
   LAPACKE interface :  Fast linear algebra routines
   SCALAPACK package :  Parallel linear algebra routines


Your calculation utilizes the atom-pairwise dispersion correction
with the zero-damping scheme (D30)
Cite in your paper:
S.Grimme, J.Antony, S.Ehrlich and H.Krieg, J.Chem.Phys., 132, (2010), 154104 
   

XCFun DFT library Copyright 2009-2010 Ulf Ekstrom and contributors.
See http://admol.org/xcfun for more information. This is free soft-
ware; see the source code for copying conditions. There is ABSOLUTELY
NO WARRANTY; not even for MERCHANTABILITY or FITNESS FOR A PARTICULAR
PURPOSE. For details see the documentation. Scientific users of this 
library should cite U. Ekstrom, L. Visscher, R. Bast, A. J. Thorvald-
sen and K. Ruud; J.Chem.Theor.Comp. 2010, DOI: 10.1021/ct100117s
XCFun Version 0.99 
----- Orbital basis set information -----
Your calculation utilizes the basis: def2-TZVP
   F. Weigend and R. Ahlrichs, Phys. Chem. Chem. Phys. 7, 3297 (2005).

================================================================================
                                        WARNINGS
                       Please study these warnings very carefully!
================================================================================


INFO   : the flag for use of LIBINT has been found!

================================================================================
                                       INPUT FILE
================================================================================
NAME = 188.in
|  1> #Run DFT-D3 single point of the dimer
|  2> ! wB97X-D3 def2-TZVP TIGHTSCF  CHELPG PAL8
|  3> 
|  4> %base "188_charges"
|  5> 
|  6> %scf
|  7> MaxIter 1000
|  8> end
|  9> %output
| 10>   Print[ P_Mayer ] 1
| 11>   Print[ P_NatPop ] 1
| 12>   Print[ P_Hirshfeld ] 1
| 13>   Print[ P_Mulliken ] 1
| 14>   Print [ P_Loewdin ] 1
| 15> end
| 16> 
| 17> * xyz 0 1
| 18>   C                      -9.180252            12.200435            -5.215382           
| 19>   O                      -9.204684            11.712781            -6.540541           
| 20>   H                      -9.935506            11.114427            -6.537218           
| 21>   H                      -8.642337            13.118669            -5.191544           
| 22>   H                      -10.198021           12.486722            -4.775463           
| 23>   H                      -8.639112            11.564816            -4.516923           
| 24> *
| 25> 
| 26>                          ****END OF INPUT****
================================================================================

                       ****************************
                       * Single Point Calculation *
                       ****************************

---------------------------------
CARTESIAN COORDINATES (ANGSTROEM)
---------------------------------
  C     -9.180252   12.200435   -5.215382
  O     -9.204684   11.712781   -6.540541
  H     -9.935506   11.114427   -6.537218
  H     -8.642337   13.118669   -5.191544
  H    -10.198021   12.486722   -4.775463
  H     -8.639112   11.564816   -4.516923

----------------------------
CARTESIAN COORDINATES (A.U.)
----------------------------
  NO LB      ZA    FRAG     MASS         X           Y           Z
   0 C     6.0000    0    12.011  -17.348162   23.055481   -9.855644
   1 O     8.0000    0    15.999  -17.394332   22.133948  -12.359831
   2 H     1.0000    0     1.008  -18.775385   21.003223  -12.353552
   3 H     1.0000    0     1.008  -16.331650   24.790692   -9.810596
   4 H     1.0000    0     1.008  -19.271467   23.596485   -9.024317
   5 H     1.0000    0     1.008  -16.325556   21.854335   -8.535747

--------------------------------
INTERNAL COORDINATES (ANGSTROEM)
--------------------------------
 C      0   0   0     0.000000000000     0.00000000     0.00000000
 O      1   0   0     1.412249879314     0.00000000     0.00000000
 H      2   1   0     0.944531284463   103.22829038     0.00000000
 H      1   2   3     1.064459710945   109.12463900   200.33408616
 H      1   2   3     1.145138729714   115.55785056   315.77942682
 H      1   2   3     1.088434190680   114.14764937    84.75954339

---------------------------
INTERNAL COORDINATES (A.U.)
---------------------------
 C      0   0   0     0.000000000000     0.00000000     0.00000000
 O      1   0   0     2.668765504566     0.00000000     0.00000000
 H      2   1   0     1.784905452556   103.22829038     0.00000000
 H      1   2   3     2.011537334279   109.12463900   200.33408616
 H      1   2   3     2.163998584506   115.55785056   315.77942682
 H      1   2   3     2.056842535182   114.14764937    84.75954339

---------------------
BASIS SET INFORMATION
---------------------
There are 3 groups of distinct atoms

 Group   1 Type C   : 11s6p2d1f contracted to 5s3p2d1f pattern {62111/411/11/1}
 Group   2 Type O   : 11s6p2d1f contracted to 5s3p2d1f pattern {62111/411/11/1}
 Group   3 Type H   : 5s1p contracted to 3s1p pattern {311/1}

Atom   0C    basis set group =>   1
Atom   1O    basis set group =>   2
Atom   2H    basis set group =>   3
Atom   3H    basis set group =>   3
Atom   4H    basis set group =>   3
Atom   5H    basis set group =>   3


           ************************************************************
           *        Program running with 8 parallel MPI-processes     *
           *              working on a common directory               *
           ************************************************************
------------------------------------------------------------------------------
                           ORCA GTO INTEGRAL CALCULATION
------------------------------------------------------------------------------

                         BASIS SET STATISTICS AND STARTUP INFO

 # of primitive gaussian shells          ...   64
 # of primitive gaussian functions       ...  124
 # of contracted shells                  ...   38
 # of contracted basis functions         ...   86
 Highest angular momentum                ...    3
 Maximum contraction depth               ...    6
 Integral package used                   ... LIBINT
 Integral threshhold            Thresh   ...  2.500e-11
 Primitive cut-off              TCut     ...  2.500e-12


------------------------------ INTEGRAL EVALUATION ----------------------------


 * One electron integrals 
 Pre-screening matrix                    ... done
 Shell pair data                         ... done (   0.000 sec)



           ************************************************************
           *        Program running with 8 parallel MPI-processes     *
           *              working on a common directory               *
           ************************************************************
-------------------------------------------------------------------------------
                                 ORCA SCF
-------------------------------------------------------------------------------

------------
SCF SETTINGS
------------
Hamiltonian:
 Density Functional     Method          .... DFT(GTOs)
 Exchange Functional    Exchange        .... WB97X-D3
 Correlation Functional Correlation     .... WB97X-D3
 Gradients option       PostSCFGGA      .... off
 Hybrid DFT is turned on
   Fraction HF Exchange ScalHFX         ....  0.195728
   Scaling of DF-GGA-X  ScalDFX         ....  0.000000
   Scaling of DF-GGA-C  ScalDFC         ....  1.000000
   Scaling of DF-LDA-C  ScalLDAC        ....  1.000000
   Perturbative correction              ....  0.000000
   Density functional embedding theory  .... OFF
 Long-range corrected/Screened/Range-Separated Hybrid DFT is turned on
   Amount of maximum screened exact exchange              ....  0.804272
   Range separation parameter mu (erf(mu*r12)/r12)        ....  0.250000


General Settings:
 Integral files         IntName         .... 188_charges
 Hartree-Fock type      HFTyp           .... RHF
 Total Charge           Charge          ....    0
 Multiplicity           Mult            ....    1
 Number of Electrons    NEL             ....   18
 Basis Dimension        Dim             ....   86
 Nuclear Repulsion      ENuc            ....     40.4408705276 Eh

Convergence Acceleration:
 DIIS                   CNVDIIS         .... on
   Start iteration      DIISMaxIt       ....    12
   Startup error        DIISStart       ....  0.200000
   # of expansion vecs  DIISMaxEq       ....     5
   Bias factor          DIISBfac        ....   1.050
   Max. coefficient     DIISMaxC        ....  10.000
 Newton-Raphson         CNVNR           .... off
 SOSCF                  CNVSOSCF        .... on
   Start iteration      SOSCFMaxIt      ....   150
   Startup grad/error   SOSCFStart      ....  0.003300
 Level Shifting         CNVShift        .... on
   Level shift para.    LevelShift      ....    0.2500
   Turn off err/grad.   ShiftErr        ....    0.0010
 Zerner damping         CNVZerner       .... off
 Static damping         CNVDamp         .... on
   Fraction old density DampFac         ....    0.7000
   Max. Damping (<1)    DampMax         ....    0.9800
   Min. Damping (>=0)   DampMin         ....    0.0000
   Turn off err/grad.   DampErr         ....    0.1000
 Fernandez-Rico         CNVRico         .... off

SCF Procedure:
 Maximum # iterations   MaxIter         ....  1000
 SCF integral mode      SCFMode         .... Direct
   Integral package                     .... LIBINT
 Reset frequency        DirectResetFreq ....    20
 Integral Threshold     Thresh          ....  2.500e-11 Eh
 Primitive CutOff       TCut            ....  2.500e-12 Eh

Convergence Tolerance:
 Convergence Check Mode ConvCheckMode   .... Total+1el-Energy
 Convergence forced     ConvForced      .... 0
 Energy Change          TolE            ....  1.000e-08 Eh
 1-El. energy change                    ....  1.000e-05 Eh
 Orbital Gradient       TolG            ....  1.000e-05
 Orbital Rotation angle TolX            ....  1.000e-05
 DIIS Error             TolErr          ....  5.000e-07


Diagonalization of the overlap matrix:
Smallest eigenvalue                        ... 1.647e-03
Time for diagonalization                   ...    0.009 sec
Threshold for overlap eigenvalues          ... 1.000e-08
Number of eigenvalues below threshold      ... 0
Time for construction of square roots      ...    0.094 sec
Total time needed                          ...    0.109 sec

-------------------
DFT GRID GENERATION
-------------------

General Integration Accuracy     IntAcc      ...  4.340
Radial Grid Type                 RadialGrid  ... Gauss-Chebyshev
Angular Grid (max. acc.)         AngularGrid ... Lebedev-110
Angular grid pruning method      GridPruning ... 3 (G Style)
Weight generation scheme         WeightScheme... Becke
Basis function cutoff            BFCut       ...    1.0000e-11
Integration weight cutoff        WCut        ...    1.0000e-14
Grids for H and He will be reduced by one unit

# of grid points (after initial pruning)     ...   6548 (   0.0 sec)
# of grid points (after weights+screening)   ...   6361 (   0.3 sec)
nearest neighbour list constructed           ...    0.0 sec
Grid point re-assignment to atoms done       ...    0.0 sec
Grid point division into batches done        ...    0.0 sec
Reduced shell lists constructed in    0.0 sec

Total number of grid points                  ...     6361
Total number of batches                      ...      103
Average number of points per batch           ...       61
Average number of grid points per atom       ...     1060
Average number of shells per batch           ...    31.14 (81.95%)
Average number of basis functions per batch  ...    71.14 (82.72%)
Average number of large shells per batch     ...    30.29 (97.25%)
Average number of large basis fcns per batch ...    69.14 (97.19%)
Maximum spatial batch extension              ...  17.60, 19.56, 14.03 au
Average spatial batch extension              ...   0.48,  0.51,  0.39 au

Time for grid setup =    1.187 sec

------------------------------
INITIAL GUESS: MODEL POTENTIAL
------------------------------
Loading Hartree-Fock densities                     ... done
Calculating cut-offs                               ... done
Setting up the integral package                    ... done
Initializing the effective Hamiltonian             ... done
Starting the Coulomb interaction                   ... done (   0.0 sec)
Reading the grid                                   ... done
Mapping shells                                     ... done
Starting the XC term evaluation                    ... done (   0.0 sec)
  promolecular density results
     # of electrons  =     17.998851600
     EX              =    -14.432213951
     EC              =     -0.575524279
     EX+EC           =    -15.007738229
Transforming the Hamiltonian                       ... done (   0.0 sec)
Diagonalizing the Hamiltonian                      ... done (   0.8 sec)
Back transforming the eigenvectors                 ... done (   0.0 sec)
Now organizing SCF variables                       ... done
                      ------------------
                      INITIAL GUESS DONE (   2.4 sec)
                      ------------------
--------------
SCF ITERATIONS
--------------
ITER       Energy         Delta-E        Max-DP      RMS-DP      [F,P]     Damp
               ***  Starting incremental Fock matrix formation  ***
  0   -115.6473480354   0.000000000000 0.03637274  0.00146139  0.2471074 0.7000
  1   -115.6836487522  -0.036300716791 0.02163414  0.00103564  0.1236183 0.7000
                               ***Turning on DIIS***
  2   -115.7004407525  -0.016792000308 0.03088613  0.00188110  0.0480162 0.0000
  3   -115.7277599804  -0.027319227949 0.01708729  0.00068040  0.0598276 0.0000
  4   -115.7321831143  -0.004423133874 0.00400412  0.00013388  0.0060674 0.0000
                      *** Initiating the SOSCF procedure ***
                           *** Shutting down DIIS ***
                      *** Re-Reading the Fockian *** 
                      *** Removing any level shift *** 
ITER      Energy       Delta-E        Grad      Rot      Max-DP    RMS-DP
  5   -115.73227602  -0.0000929078  0.000422  0.000422  0.000649  0.000046
               *** Restarting incremental Fock matrix formation ***
  6   -115.73228434  -0.0000083194  0.000190  0.000205  0.000530  0.000028
  7   -115.73228516  -0.0000008224  0.000048  0.000122  0.000253  0.000013
  8   -115.73228523  -0.0000000658  0.000028  0.000020  0.000038  0.000002
  9   -115.73228524  -0.0000000137  0.000010  0.000009  0.000019  0.000001
 10   -115.73228524  -0.0000000015  0.000004  0.000003  0.000005  0.000000
                  ***Gradient check signals convergence***
              ***Rediagonalizing the Fockian in SOSCF/NRSCF***

               *****************************************************
               *                     SUCCESS                       *
               *           SCF CONVERGED AFTER  11 CYCLES          *
               *****************************************************

Setting up the final grid:

General Integration Accuracy     IntAcc      ...  4.670
Radial Grid Type                 RadialGrid  ... Gauss-Chebyshev
Angular Grid (max. acc.)         AngularGrid ... Lebedev-302
Angular grid pruning method      GridPruning ... 3 (G Style)
Weight generation scheme         WeightScheme... Becke
Basis function cutoff            BFCut       ...    1.0000e-11
Integration weight cutoff        WCut        ...    1.0000e-14
Grids for H and He will be reduced by one unit

# of grid points (after initial pruning)     ...  26000 (   0.0 sec)
# of grid points (after weights+screening)   ...  25205 (   0.0 sec)
nearest neighbour list constructed           ...    0.0 sec
Grid point re-assignment to atoms done       ...    0.0 sec
Grid point division into batches done        ...    0.1 sec
Reduced shell lists constructed in    0.1 sec

Total number of grid points                  ...    25205
Total number of batches                      ...      397
Average number of points per batch           ...       63
Average number of grid points per atom       ...     4201
Average number of shells per batch           ...    31.24 (82.20%)
Average number of basis functions per batch  ...    71.63 (83.29%)
Average number of large shells per batch     ...    29.90 (95.73%)
Average number of large basis fcns per batch ...    68.92 (96.22%)
Maximum spatial batch extension              ...  14.83, 16.88, 14.18 au
Average spatial batch extension              ...   0.32,  0.32,  0.30 au

Final grid set up in    0.5 sec
Final integration                            ... done (   0.4 sec)
Change in XC energy                          ...    -0.000203835
Integrated number of electrons               ...    18.000013071
Previous integrated no of electrons          ...    17.998569494

----------------
TOTAL SCF ENERGY
----------------

Total Energy       :         -115.73248908 Eh           -3149.24113 eV

Components:
Nuclear Repulsion  :           40.44087053 Eh            1100.45203 eV
Electronic Energy  :         -156.17335961 Eh           -4249.69317 eV
One Electron Energy:         -237.24439232 Eh           -6455.74812 eV
Two Electron Energy:           81.07103271 Eh            2206.05495 eV

Virial components:
Potential Energy   :         -230.99774283 Eh           -6285.76814 eV
Kinetic Energy     :          115.26525375 Eh            3136.52701 eV
Virial Ratio       :            2.00405357


DFT components:
N(Alpha)           :        9.000006535343 electrons
N(Beta)            :        9.000006535343 electrons
N(Total)           :       18.000013070685 electrons
E(XC)              :      -10.655955957772 Eh       
DFET-embed. en.    :        0.000000000000 Eh       

---------------
SCF CONVERGENCE
---------------

  Last Energy change         ...   -2.7616e-10  Tolerance :   1.0000e-08
  Last MAX-Density change    ...    2.1049e-06  Tolerance :   1.0000e-07
  Last RMS-Density change    ...    1.1180e-07  Tolerance :   5.0000e-09
  Last Orbital Gradient      ...    1.1450e-06  Tolerance :   1.0000e-05
  Last Orbital Rotation      ...    1.1621e-06  Tolerance :   1.0000e-05

             **** THE GBW FILE WAS UPDATED (188_charges.gbw) ****
             **** DENSITY FILE WAS UPDATED (188_charges.scfp.tmp) ****
             **** ENERGY FILE WAS UPDATED (188_charges.en.tmp) ****
----------------
ORBITAL ENERGIES
----------------

  NO   OCC          E(Eh)            E(eV) 
   0   2.0000     -19.233935      -523.3820 
   1   2.0000     -10.314254      -280.6651 
   2   2.0000      -1.144710       -31.1491 
   3   2.0000      -0.796622       -21.6772 
   4   2.0000      -0.610829       -16.6215 
   5   2.0000      -0.541872       -14.7451 
   6   2.0000      -0.528335       -14.3767 
   7   2.0000      -0.437044       -11.8926 
   8   2.0000      -0.377972       -10.2851 
   9   0.0000       0.117319         3.1924 
  10   0.0000       0.152918         4.1611 
  11   0.0000       0.197347         5.3701 
  12   0.0000       0.210658         5.7323 
  13   0.0000       0.227731         6.1969 
  14   0.0000       0.304825         8.2947 
  15   0.0000       0.320017         8.7081 
  16   0.0000       0.397692        10.8218 
  17   0.0000       0.453705        12.3459 
  18   0.0000       0.489853        13.3296 
  19   0.0000       0.531681        14.4678 
  20   0.0000       0.541522        14.7356 
  21   0.0000       0.554726        15.0949 
  22   0.0000       0.602439        16.3932 
  23   0.0000       0.620413        16.8823 
  24   0.0000       0.679871        18.5002 
  25   0.0000       0.750754        20.4291 
  26   0.0000       0.808279        21.9944 
  27   0.0000       0.860569        23.4173 
  28   0.0000       0.981985        26.7212 
  29   0.0000       1.043372        28.3916 
  30   0.0000       1.105365        30.0785 
  31   0.0000       1.370926        37.3048 
  32   0.0000       1.508156        41.0390 
  33   0.0000       1.551012        42.2052 
  34   0.0000       1.584059        43.1044 
  35   0.0000       1.628983        44.3269 
  36   0.0000       1.634251        44.4702 
  37   0.0000       1.670902        45.4676 
  38   0.0000       1.684035        45.8249 
  39   0.0000       1.804609        49.1059 
  40   0.0000       1.948234        53.0141 
  41   0.0000       2.021420        55.0056 
  42   0.0000       2.061116        56.0858 
  43   0.0000       2.091997        56.9261 
  44   0.0000       2.127411        57.8898 
  45   0.0000       2.247503        61.1577 
  46   0.0000       2.291356        62.3510 
  47   0.0000       2.357221        64.1433 
  48   0.0000       2.405895        65.4677 
  49   0.0000       2.435029        66.2605 
  50   0.0000       2.537043        69.0365 
  51   0.0000       2.566970        69.8508 
  52   0.0000       2.670493        72.6678 
  53   0.0000       2.701117        73.5011 
  54   0.0000       2.824944        76.8706 
  55   0.0000       2.887112        78.5623 
  56   0.0000       2.911381        79.2227 
  57   0.0000       2.962666        80.6182 
  58   0.0000       3.093866        84.1884 
  59   0.0000       3.180477        86.5452 
  60   0.0000       3.250534        88.4515 
  61   0.0000       3.347251        91.0833 
  62   0.0000       3.429727        93.3276 
  63   0.0000       3.514618        95.6376 
  64   0.0000       3.597248        97.8861 
  65   0.0000       3.635849        98.9365 
  66   0.0000       3.691423       100.4487 
  67   0.0000       4.028995       109.6345 
  68   0.0000       4.182162       113.8024 
  69   0.0000       4.338256       118.0499 
  70   0.0000       4.398008       119.6759 
  71   0.0000       4.542637       123.6114 
  72   0.0000       5.361477       145.8932 
  73   0.0000       5.462009       148.6288 
  74   0.0000       5.548722       150.9884 
  75   0.0000       5.775032       157.1466 
  76   0.0000       5.825511       158.5202 
  77   0.0000       6.023568       163.9096 
  78   0.0000       6.387504       173.8128 
  79   0.0000       6.527965       177.6350 
  80   0.0000       6.773713       184.3221 
  81   0.0000       6.792910       184.8445 
  82   0.0000       7.021715       191.0706 
  83   0.0000       7.215205       196.3357 
  84   0.0000      22.389003       609.2357 
  85   0.0000      43.638884      1187.4744 

                    ********************************
                    * MULLIKEN POPULATION ANALYSIS *
                    ********************************

-----------------------
MULLIKEN ATOMIC CHARGES
-----------------------
   0 C :   -0.172322
   1 O :   -0.459191
   2 H :    0.313825
   3 H :    0.119258
   4 H :    0.096314
   5 H :    0.102117
Sum of atomic charges:   -0.0000000

--------------------------------
MULLIKEN REDUCED ORBITAL CHARGES
--------------------------------
  0 C s       :     3.222793  s :     3.222793
      pz      :     0.738274  p :     2.845048
      px      :     1.067726
      py      :     1.039048
      dz2     :     0.024784  d :     0.096935
      dxz     :     0.030322
      dyz     :     0.023473
      dx2y2   :     0.008764
      dxy     :     0.009593
      f0      :     0.002467  f :     0.007546
      f+1     :     0.001472
      f-1     :     0.001825
      f+2     :     0.000526
      f-2     :     0.000885
      f+3     :     0.000359
      f-3     :     0.000012
  1 O s       :     3.801191  s :     3.801191
      pz      :     1.417636  p :     4.624808
      px      :     1.590204
      py      :     1.616968
      dz2     :     0.012582  d :     0.031553
      dxz     :     0.004578
      dyz     :     0.004925
      dx2y2   :     0.001834
      dxy     :     0.007634
      f0      :     0.000243  f :     0.001639
      f+1     :     0.000225
      f-1     :     0.000375
      f+2     :     0.000068
      f-2     :     0.000111
      f+3     :     0.000184
      f-3     :     0.000435
  2 H s       :     0.636752  s :     0.636752
      pz      :     0.012196  p :     0.049423
      px      :     0.018728
      py      :     0.018500
  3 H s       :     0.859530  s :     0.859530
      pz      :     0.003260  p :     0.021212
      px      :     0.007142
      py      :     0.010811
  4 H s       :     0.885675  s :     0.885675
      pz      :     0.003672  p :     0.018011
      px      :     0.009947
      py      :     0.004393
  5 H s       :     0.877482  s :     0.877482
      pz      :     0.006933  p :     0.020401
      px      :     0.006751
      py      :     0.006717


                     *******************************
                     * LOEWDIN POPULATION ANALYSIS *
                     *******************************

----------------------
LOEWDIN ATOMIC CHARGES
----------------------
   0 C :   -0.396434
   1 O :   -0.063034
   2 H :    0.162234
   3 H :    0.100699
   4 H :    0.103827
   5 H :    0.092708

-------------------------------
LOEWDIN REDUCED ORBITAL CHARGES
-------------------------------
  0 C s       :     2.861270  s :     2.861270
      pz      :     0.879115  p :     3.062355
      px      :     1.099826
      py      :     1.083414
      dz2     :     0.123863  d :     0.416839
      dxz     :     0.112076
      dyz     :     0.103612
      dx2y2   :     0.029830
      dxy     :     0.047458
      f0      :     0.016799  f :     0.055969
      f+1     :     0.010860
      f-1     :     0.012469
      f+2     :     0.005598
      f-2     :     0.006223
      f+3     :     0.002556
      f-3     :     0.001465
  1 O s       :     3.368336  s :     3.368336
      pz      :     1.487011  p :     4.618200
      px      :     1.560575
      py      :     1.570614
      dz2     :     0.027533  d :     0.071628
      dxz     :     0.012114
      dyz     :     0.014116
      dx2y2   :     0.002517
      dxy     :     0.015348
      f0      :     0.001098  f :     0.004870
      f+1     :     0.001142
      f-1     :     0.001112
      f+2     :     0.000264
      f-2     :     0.000272
      f+3     :     0.000199
      f-3     :     0.000781
  2 H s       :     0.673026  s :     0.673026
      pz      :     0.034773  p :     0.164740
      px      :     0.069950
      py      :     0.060017
  3 H s       :     0.834648  s :     0.834648
      pz      :     0.010137  p :     0.064653
      px      :     0.021595
      py      :     0.032921
  4 H s       :     0.843200  s :     0.843200
      pz      :     0.011183  p :     0.052973
      px      :     0.028871
      py      :     0.012919
  5 H s       :     0.845494  s :     0.845494
      pz      :     0.020361  p :     0.061798
      px      :     0.020274
      py      :     0.021163


                      *****************************
                      * MAYER POPULATION ANALYSIS *
                      *****************************

  NA   - Mulliken gross atomic population
  ZA   - Total nuclear charge
  QA   - Mulliken gross atomic charge
  VA   - Mayer's total valence
  BVA  - Mayer's bonded valence
  FA   - Mayer's free valence

  ATOM       NA         ZA         QA         VA         BVA        FA
  0 C      6.1723     6.0000    -0.1723     3.9432     3.9432    -0.0000
  1 O      8.4592     8.0000    -0.4592     1.9091     1.9091     0.0000
  2 H      0.6862     1.0000     0.3138     0.9134     0.9134    -0.0000
  3 H      0.8807     1.0000     0.1193     0.9553     0.9553     0.0000
  4 H      0.9037     1.0000     0.0963     0.9629     0.9629    -0.0000
  5 H      0.8979     1.0000     0.1021     0.9544     0.9544    -0.0000

  Mayer bond orders larger than 0.1
B(  0-C ,  1-O ) :   1.0107 B(  0-C ,  3-H ) :   0.9774 B(  0-C ,  4-H ) :   0.9760 
B(  0-C ,  5-H ) :   0.9718 B(  1-O ,  2-H ) :   0.9053 


------------------
HIRSHFELD ANALYSIS
------------------

Total integrated alpha density =      8.999284747
Total integrated beta density  =      8.999284747

  ATOM     CHARGE      SPIN    
   0 C    0.004985    0.000000
   1 O   -0.243786    0.000000
   2 H    0.156774    0.000000
   3 H    0.032236    0.000000
   4 H    0.027509    0.000000
   5 H    0.023712    0.000000

  TOTAL   0.001431    0.000000

-------
TIMINGS
-------

Total SCF time: 0 days 0 hours 0 min 28 sec 

Total time                  ....      28.350 sec
Sum of individual times     ....      24.785 sec  ( 87.4%)

Fock matrix formation       ....      17.966 sec  ( 63.4%)
  XC integration            ....       4.526 sec  ( 25.2% of F)
    Basis function eval.    ....       0.053 sec  (  1.2% of XC)
    Density eval.           ....       0.067 sec  (  1.5% of XC)
    XC-Functional eval.     ....       0.091 sec  (  2.0% of XC)
    XC-Potential eval.      ....       0.047 sec  (  1.0% of XC)
Diagonalization             ....       1.445 sec  (  5.1%)
Density matrix formation    ....       1.400 sec  (  4.9%)
Population analysis         ....       0.128 sec  (  0.5%)
Initial guess               ....       1.213 sec  (  4.3%)
Orbital Transformation      ....       0.000 sec  (  0.0%)
Orbital Orthonormalization  ....       0.000 sec  (  0.0%)
DIIS solution               ....       0.304 sec  (  1.1%)
SOSCF solution              ....       0.681 sec  (  2.4%)
Grid generation             ....       1.648 sec  (  5.8%)


-------------------------------------------------------------------------------
                          DFT DISPERSION CORRECTION                            
                                                                               
                              DFTD3 V3.1  Rev 1                                
                              USING zero damping                               
-------------------------------------------------------------------------------
The omegaB97X-D3 functional is recognized. Fit by Chai et al.
Active option DFTDOPT                   ...         3   

molecular C6(AA) [au] = 208.713923 


            DFT-D V3
 parameters
 s6 scaling factor         :     1.0000 
 rs6 scaling factor        :     1.2810 
 s8 scaling factor         :     1.0000 
 rs8 scaling factor        :     1.0940 
 Damping factor alpha6     :    14.0000 
 Damping factor alpha8     :    16.0000 
 ad hoc parameters k1-k3   :    16.0000     1.3333    -4.0000 

 Edisp/kcal,au: -0.157003714580  -0.000250201319 
 E6   /kcal   :  -0.028541910 
 E8   /kcal   :  -0.128461805 
 % E8         :  81.820869741 

-------------------------   ----------------
Dispersion correction           -0.000250201
-------------------------   ----------------


-------------------------   --------------------
FINAL SINGLE POINT ENERGY      -115.732739281907
-------------------------   --------------------


                            ***************************************
                            *     ORCA property calculations      *
                            ***************************************

                                    ---------------------
                                    Active property flags
                                    ---------------------
   (+) Dipole Moment


------------------------------------------------------------------------------
                       ORCA ELECTRIC PROPERTIES CALCULATION
------------------------------------------------------------------------------

Dipole Moment Calculation                       ... on
Quadrupole Moment Calculation                   ... off
Polarizability Calculation                      ... off
GBWName                                         ... 188_charges.gbw
Electron density file                           ... 188_charges.scfp.tmp
The origin for moment calculation is the CENTER OF MASS  = (-17.412471, 22.564606 -11.115507)

-------------
DIPOLE MOMENT
-------------
                                X             Y             Z
Electronic contribution:      0.09146      -0.65012      -1.84312
Nuclear contribution   :     -0.52322       0.48629       2.34241
                        -----------------------------------------
Total Dipole Moment    :     -0.43176      -0.16383       0.49928
                        -----------------------------------------
Magnitude (a.u.)       :      0.68010
Magnitude (Debye)      :      1.72868



--------------------
Rotational spectrum 
--------------------
 
Rotational constants in cm-1:     4.348329     0.826988     0.801164 
Rotational constants in MHz : 130359.620838 24792.478565 24018.305843 

 Dipole components along the rotational axes: 
x,y,z [a.u.] :     0.375887     0.558791     0.094869 
x,y,z [Debye]:     0.955430     1.420335     0.241138 

 
------------------------------------------------------------------------------
                      ORCA CHELPG CHARGES GENERATION
------------------------------------------------------------------------------

GBW file                           ... 188_charges.gbw

Reading the GBW file               ... done

Grid spacing                       ...     0.300000
Point Cut-Off                      ...     2.800000
Van-der-Waals Radii                ...        COSMO
Total charge                       ...            0


Number of points X direction       ...           23
Number of points Y direction       ...           25
Number of points Z direction       ...           25
Maximum number of possible points  ...        14375
Final number of points             ...         5827


CHELPG Charges            
--------------------------------
  0   C   :       0.090653
  1   O   :      -0.581153
  2   H   :       0.391769
  3   H   :       0.077992
  4   H   :       0.001899
  5   H   :       0.018839
--------------------------------
Total charge:     0.000000
--------------------------------

CHELPG charges calculated...

Timings for individual parts in CHELPG calculation:
Grid generation                 ...        0.001 sec (=   0.000 min)
Potential calculation           ...        0.635 sec (=   0.011 min)
Fit to the potential            ...        0.001 sec (=   0.000 min)
------------------------------------------------------------------------------


Timings for individual modules:

Sum of individual times         ...       39.575 sec (=   0.660 min)
GTO integral calculation        ...        5.125 sec (=   0.085 min)  13.0 %
SCF iterations                  ...       33.755 sec (=   0.563 min)  85.3 %
CHELPG charge generation        ...        0.695 sec (=   0.012 min)   1.8 %
                             ****ORCA TERMINATED NORMALLY****
TOTAL RUN TIME: 0 days 0 hours 0 minutes 41 seconds 510 msec
