
                                 *****************
                                 * O   R   C   A *
                                 *****************

           --- An Ab Initio, DFT and Semiempirical electronic structure package ---

                  #######################################################
                  #                        -***-                        #
                  #          Department of theory and spectroscopy      #
                  #               Directorship: Frank Neese             #
                  #        Max Planck Institute fuer Kohlenforschung    #
                  #                Kaiser Wilhelm Platz 1               #
                  #                 D-45470 Muelheim/Ruhr               #
                  #                      Germany                        #
                  #                                                     #
                  #                  All rights reserved                #
                  #                        -***-                        #
                  #######################################################


                         Program Version 4.1.2  - RELEASE  -


 With contributions from (in alphabetic order):
   Daniel Aravena         : Magnetic Properties
   Michael Atanasov       : Ab Initio Ligand Field Theory
   Alexander A. Auer      : GIAO ZORA
   Ute Becker             : Parallelization
   Giovanni Bistoni       : ED, Open-shell LED
   Martin Brehm           : Molecular dynamics
   Dmytro Bykov           : SCF Hessian
   Vijay G. Chilkuri      : MRCI spin determinant printing
   Dipayan Datta          : RHF DLPNO-CCSD density
   Achintya Kumar Dutta   : EOM-CC, STEOM-CC
   Dmitry Ganyushin       : Spin-Orbit,Spin-Spin,Magnetic field MRCI
   Miquel Garcia          : C-PCM Hessian
   Yang Guo               : DLPNO-NEVPT2, CIM, IAO-localization
   Andreas Hansen         : Spin unrestricted coupled pair/coupled cluster methods
   Benjamin Helmich-Paris : CASSCF linear response (MC-RPA)
   Lee Huntington         : MR-EOM, pCC
   Robert Izsak           : Overlap fitted RIJCOSX, COSX-SCS-MP3, EOM
   Christian Kollmar      : KDIIS, OOCD, Brueckner-CCSD(T), CCSD density
   Simone Kossmann        : Meta GGA functionals, TD-DFT gradient, OOMP2, MP2 Hessian
   Martin Krupicka        : AUTO-CI
   Lucas Lang             : DCDCAS
   Dagmar Lenk            : GEPOL surface, SMD
   Dimitrios Liakos       : Extrapolation schemes; parallel MDCI
   Dimitrios Manganas     : ROCIS; embedding schemes
   Dimitrios Pantazis     : SARC Basis sets
   Taras Petrenko         : DFT Hessian,TD-DFT gradient, ASA, ECA, R-Raman, ABS, FL, XAS/XES, NRVS
   Peter Pinski           : DLPNO-MP2, DLPNO-MP2 Gradient
   Christoph Reimann      : Effective Core Potentials
   Marius Retegan         : Local ZFS, SOC
   Christoph Riplinger    : Optimizer, TS searches, QM/MM, DLPNO-CCSD(T), (RO)-DLPNO pert. Triples
   Tobias Risthaus        : Range-separated hybrids, TD-DFT gradient, RPA, STAB
   Michael Roemelt        : Restricted open shell CIS
   Masaaki Saitow         : Open-shell DLPNO
   Barbara Sandhoefer     : DKH picture change effects
   Avijit Sen             : IP-ROCIS
   Kantharuban Sivalingam : CASSCF convergence, NEVPT2, FIC-MRCI
   Bernardo de Souza      : ESD, SOC TD-DFT
   Georgi Stoychev        : AutoAux, RI-MP2 NMR
   Willem Van den Heuvel  : Paramagnetic NMR
   Boris Wezisla          : Elementary symmetry handling
   Frank Wennmohs         : Technical directorship


 We gratefully acknowledge several colleagues who have allowed us to
 interface, adapt or use parts of their codes:
   Stefan Grimme, W. Hujo, H. Kruse,             : VdW corrections, initial TS optimization,
                  C. Bannwarth                     DFT functionals, gCP, sTDA/sTD-DF
   Ed Valeev                                     : LibInt (2-el integral package), F12 methods
   Garnet Chan, S. Sharma, J. Yang, R. Olivares  : DMRG
   Ulf Ekstrom                                   : XCFun DFT Library
   Mihaly Kallay                                 : mrcc  (arbitrary order and MRCC methods)
   Andreas Klamt, Michael Diedenhofen            : otool_cosmo (COSMO solvation model)
   Jiri Pittner, Ondrej Demel                    : Mk-CCSD
   Frank Weinhold                                : gennbo (NPA and NBO analysis)
   Christopher J. Cramer and Donald G. Truhlar   : smd solvation model
   Lars Goerigk                                  : TD-DFT with DH, B97 family of functionals
   V. Asgeirsson, H. Jonsson                     : NEB implementation
   FAccTs GmbH                                   : IRC, NEB, NEB-TS, Multilevel


 Your calculation uses the libint2 library for the computation of 2-el integrals
 For citations please refer to: http://libint.valeyev.net

 This ORCA versions uses:
   CBLAS   interface :  Fast vector & matrix operations
   LAPACKE interface :  Fast linear algebra routines
   SCALAPACK package :  Parallel linear algebra routines


Your calculation utilizes the atom-pairwise dispersion correction
with the zero-damping scheme (D30)
Cite in your paper:
S.Grimme, J.Antony, S.Ehrlich and H.Krieg, J.Chem.Phys., 132, (2010), 154104 
   

XCFun DFT library Copyright 2009-2010 Ulf Ekstrom and contributors.
See http://admol.org/xcfun for more information. This is free soft-
ware; see the source code for copying conditions. There is ABSOLUTELY
NO WARRANTY; not even for MERCHANTABILITY or FITNESS FOR A PARTICULAR
PURPOSE. For details see the documentation. Scientific users of this 
library should cite U. Ekstrom, L. Visscher, R. Bast, A. J. Thorvald-
sen and K. Ruud; J.Chem.Theor.Comp. 2010, DOI: 10.1021/ct100117s
XCFun Version 0.99 
----- Orbital basis set information -----
Your calculation utilizes the basis: def2-TZVP
   F. Weigend and R. Ahlrichs, Phys. Chem. Chem. Phys. 7, 3297 (2005).

================================================================================
                                        WARNINGS
                       Please study these warnings very carefully!
================================================================================


INFO   : the flag for use of LIBINT has been found!

================================================================================
                                       INPUT FILE
================================================================================
NAME = 46.in
|  1> #Run DFT-D3 single point of the dimer
|  2> ! wB97X-D3 def2-TZVP TIGHTSCF  CHELPG PAL8
|  3> 
|  4> %base "46_charges"
|  5> 
|  6> %scf
|  7> MaxIter 1000
|  8> end
|  9> %output
| 10>   Print[ P_Mayer ] 1
| 11>   Print[ P_NatPop ] 1
| 12>   Print[ P_Hirshfeld ] 1
| 13>   Print[ P_Mulliken ] 1
| 14>   Print [ P_Loewdin ] 1
| 15> end
| 16> 
| 17> * xyz 0 1
| 18>   C                      5.826561             -9.711384            7.290300            
| 19>   O                      4.768460             -8.814863            7.445169            
| 20>   H                      3.947357             -9.331510            7.406989            
| 21>   H                      6.799070             -9.241065            7.128387            
| 22>   H                      5.851815             -10.287929           8.231678            
| 23>   H                      5.622700             -10.441449           6.473548            
| 24> *
| 25> 
| 26>                          ****END OF INPUT****
================================================================================

                       ****************************
                       * Single Point Calculation *
                       ****************************

---------------------------------
CARTESIAN COORDINATES (ANGSTROEM)
---------------------------------
  C      5.826561   -9.711384    7.290300
  O      4.768460   -8.814863    7.445169
  H      3.947357   -9.331510    7.406989
  H      6.799070   -9.241065    7.128387
  H      5.851815  -10.287929    8.231678
  H      5.622700  -10.441449    6.473548

----------------------------
CARTESIAN COORDINATES (A.U.)
----------------------------
  NO LB      ZA    FRAG     MASS         X           Y           Z
   0 C     6.0000    0    12.011   11.010605  -18.351856   13.776670
   1 O     8.0000    0    15.999    9.011083  -16.657677   14.069330
   2 H     1.0000    0     1.008    7.459424  -17.633998   13.997181
   3 H     1.0000    0     1.008   12.848380  -17.463082   13.470699
   4 H     1.0000    0     1.008   11.058328  -19.441368   15.555617
   5 H     1.0000    0     1.008   10.625363  -19.731479   12.233233

--------------------------------
INTERNAL COORDINATES (ANGSTROEM)
--------------------------------
 C      0   0   0     0.000000000000     0.00000000     0.00000000
 O      1   0   0     1.395461227266     0.00000000     0.00000000
 H      2   1   0     0.970871758585   107.15939731     0.00000000
 H      1   2   3     1.092332154800   114.51310778   169.15903250
 H      1   2   3     1.104189494799   104.96202492   289.04123309
 H      1   2   3     1.114288131970   111.31845613    44.07609093

---------------------------
INTERNAL COORDINATES (A.U.)
---------------------------
 C      0   0   0     0.000000000000     0.00000000     0.00000000
 O      1   0   0     2.637039550039     0.00000000     0.00000000
 H      2   1   0     1.834681734884   107.15939731     0.00000000
 H      1   2   3     2.064208619849   114.51310778   169.15903250
 H      1   2   3     2.086615745123   104.96202492   289.04123309
 H      1   2   3     2.105699403703   111.31845613    44.07609093

---------------------
BASIS SET INFORMATION
---------------------
There are 3 groups of distinct atoms

 Group   1 Type C   : 11s6p2d1f contracted to 5s3p2d1f pattern {62111/411/11/1}
 Group   2 Type O   : 11s6p2d1f contracted to 5s3p2d1f pattern {62111/411/11/1}
 Group   3 Type H   : 5s1p contracted to 3s1p pattern {311/1}

Atom   0C    basis set group =>   1
Atom   1O    basis set group =>   2
Atom   2H    basis set group =>   3
Atom   3H    basis set group =>   3
Atom   4H    basis set group =>   3
Atom   5H    basis set group =>   3


           ************************************************************
           *        Program running with 8 parallel MPI-processes     *
           *              working on a common directory               *
           ************************************************************
------------------------------------------------------------------------------
                           ORCA GTO INTEGRAL CALCULATION
------------------------------------------------------------------------------

                         BASIS SET STATISTICS AND STARTUP INFO

 # of primitive gaussian shells          ...   64
 # of primitive gaussian functions       ...  124
 # of contracted shells                  ...   38
 # of contracted basis functions         ...   86
 Highest angular momentum                ...    3
 Maximum contraction depth               ...    6
 Integral package used                   ... LIBINT
 Integral threshhold            Thresh   ...  2.500e-11
 Primitive cut-off              TCut     ...  2.500e-12


------------------------------ INTEGRAL EVALUATION ----------------------------


 * One electron integrals 
 Pre-screening matrix                    ... done
 Shell pair data                         ... done (   0.000 sec)



           ************************************************************
           *        Program running with 8 parallel MPI-processes     *
           *              working on a common directory               *
           ************************************************************
-------------------------------------------------------------------------------
                                 ORCA SCF
-------------------------------------------------------------------------------

------------
SCF SETTINGS
------------
Hamiltonian:
 Density Functional     Method          .... DFT(GTOs)
 Exchange Functional    Exchange        .... WB97X-D3
 Correlation Functional Correlation     .... WB97X-D3
 Gradients option       PostSCFGGA      .... off
 Hybrid DFT is turned on
   Fraction HF Exchange ScalHFX         ....  0.195728
   Scaling of DF-GGA-X  ScalDFX         ....  0.000000
   Scaling of DF-GGA-C  ScalDFC         ....  1.000000
   Scaling of DF-LDA-C  ScalLDAC        ....  1.000000
   Perturbative correction              ....  0.000000
   Density functional embedding theory  .... OFF
 Long-range corrected/Screened/Range-Separated Hybrid DFT is turned on
   Amount of maximum screened exact exchange              ....  0.804272
   Range separation parameter mu (erf(mu*r12)/r12)        ....  0.250000


General Settings:
 Integral files         IntName         .... 46_charges
 Hartree-Fock type      HFTyp           .... RHF
 Total Charge           Charge          ....    0
 Multiplicity           Mult            ....    1
 Number of Electrons    NEL             ....   18
 Basis Dimension        Dim             ....   86
 Nuclear Repulsion      ENuc            ....     40.5689537990 Eh

Convergence Acceleration:
 DIIS                   CNVDIIS         .... on
   Start iteration      DIISMaxIt       ....    12
   Startup error        DIISStart       ....  0.200000
   # of expansion vecs  DIISMaxEq       ....     5
   Bias factor          DIISBfac        ....   1.050
   Max. coefficient     DIISMaxC        ....  10.000
 Newton-Raphson         CNVNR           .... off
 SOSCF                  CNVSOSCF        .... on
   Start iteration      SOSCFMaxIt      ....   150
   Startup grad/error   SOSCFStart      ....  0.003300
 Level Shifting         CNVShift        .... on
   Level shift para.    LevelShift      ....    0.2500
   Turn off err/grad.   ShiftErr        ....    0.0010
 Zerner damping         CNVZerner       .... off
 Static damping         CNVDamp         .... on
   Fraction old density DampFac         ....    0.7000
   Max. Damping (<1)    DampMax         ....    0.9800
   Min. Damping (>=0)   DampMin         ....    0.0000
   Turn off err/grad.   DampErr         ....    0.1000
 Fernandez-Rico         CNVRico         .... off

SCF Procedure:
 Maximum # iterations   MaxIter         ....  1000
 SCF integral mode      SCFMode         .... Direct
   Integral package                     .... LIBINT
 Reset frequency        DirectResetFreq ....    20
 Integral Threshold     Thresh          ....  2.500e-11 Eh
 Primitive CutOff       TCut            ....  2.500e-12 Eh

Convergence Tolerance:
 Convergence Check Mode ConvCheckMode   .... Total+1el-Energy
 Convergence forced     ConvForced      .... 0
 Energy Change          TolE            ....  1.000e-08 Eh
 1-El. energy change                    ....  1.000e-05 Eh
 Orbital Gradient       TolG            ....  1.000e-05
 Orbital Rotation angle TolX            ....  1.000e-05
 DIIS Error             TolErr          ....  5.000e-07


Diagonalization of the overlap matrix:
Smallest eigenvalue                        ... 1.717e-03
Time for diagonalization                   ...    0.036 sec
Threshold for overlap eigenvalues          ... 1.000e-08
Number of eigenvalues below threshold      ... 0
Time for construction of square roots      ...    0.017 sec
Total time needed                          ...    0.053 sec

-------------------
DFT GRID GENERATION
-------------------

General Integration Accuracy     IntAcc      ...  4.340
Radial Grid Type                 RadialGrid  ... Gauss-Chebyshev
Angular Grid (max. acc.)         AngularGrid ... Lebedev-110
Angular grid pruning method      GridPruning ... 3 (G Style)
Weight generation scheme         WeightScheme... Becke
Basis function cutoff            BFCut       ...    1.0000e-11
Integration weight cutoff        WCut        ...    1.0000e-14
Grids for H and He will be reduced by one unit

# of grid points (after initial pruning)     ...   6548 (   0.0 sec)
# of grid points (after weights+screening)   ...   6373 (   0.0 sec)
nearest neighbour list constructed           ...    0.0 sec
Grid point re-assignment to atoms done       ...    0.0 sec
Grid point division into batches done        ...    0.0 sec
Reduced shell lists constructed in    0.0 sec

Total number of grid points                  ...     6373
Total number of batches                      ...      102
Average number of points per batch           ...       62
Average number of grid points per atom       ...     1062
Average number of shells per batch           ...    31.93 (84.02%)
Average number of basis functions per batch  ...    73.50 (85.47%)
Average number of large shells per batch     ...    30.21 (94.63%)
Average number of large basis fcns per batch ...    69.07 (93.97%)
Maximum spatial batch extension              ...  12.42, 14.74, 23.02 au
Average spatial batch extension              ...   0.37,  0.42,  0.56 au

Time for grid setup =    0.031 sec

------------------------------
INITIAL GUESS: MODEL POTENTIAL
------------------------------
Loading Hartree-Fock densities                     ... done
Calculating cut-offs                               ... done
Setting up the integral package                    ... done
Initializing the effective Hamiltonian             ... done
Starting the Coulomb interaction                   ... done (   0.0 sec)
Reading the grid                                   ... done
Mapping shells                                     ... done
Starting the XC term evaluation                    ... done (   0.0 sec)
  promolecular density results
     # of electrons  =     17.994978225
     EX              =    -14.428430263
     EC              =     -0.575524226
     EX+EC           =    -15.003954489
Transforming the Hamiltonian                       ... done (   0.0 sec)
Diagonalizing the Hamiltonian                      ... done (   0.0 sec)
Back transforming the eigenvectors                 ... done (   0.0 sec)
Now organizing SCF variables                       ... done
                      ------------------
                      INITIAL GUESS DONE (   0.2 sec)
                      ------------------
--------------
SCF ITERATIONS
--------------
ITER       Energy         Delta-E        Max-DP      RMS-DP      [F,P]     Damp
               ***  Starting incremental Fock matrix formation  ***
  0   -115.6457003929   0.000000000000 0.03764794  0.00150664  0.2420485 0.7000
  1   -115.6832492762  -0.037548883326 0.02455769  0.00106213  0.1187941 0.7000
                               ***Turning on DIIS***
  2   -115.7004184105  -0.017169134321 0.03768369  0.00190325  0.0467408 0.0000
  3   -115.7282231621  -0.027804751576 0.01838422  0.00069819  0.0625759 0.0000
  4   -115.7328702956  -0.004647133561 0.00407525  0.00013414  0.0061841 0.0000
                      *** Initiating the SOSCF procedure ***
                           *** Shutting down DIIS ***
                      *** Re-Reading the Fockian *** 
                      *** Removing any level shift *** 
ITER      Energy       Delta-E        Grad      Rot      Max-DP    RMS-DP
  5   -115.73296235  -0.0000920520  0.000473  0.000473  0.000776  0.000046
               *** Restarting incremental Fock matrix formation ***
  6   -115.73297073  -0.0000083872  0.000132  0.000181  0.000454  0.000028
  7   -115.73297150  -0.0000007675  0.000043  0.000107  0.000215  0.000013
  8   -115.73297156  -0.0000000609  0.000027  0.000019  0.000035  0.000002
  9   -115.73297157  -0.0000000110  0.000010  0.000009  0.000018  0.000001
                  ***Gradient check signals convergence***
              ***Rediagonalizing the Fockian in SOSCF/NRSCF***

               *****************************************************
               *                     SUCCESS                       *
               *           SCF CONVERGED AFTER  10 CYCLES          *
               *****************************************************

Setting up the final grid:

General Integration Accuracy     IntAcc      ...  4.670
Radial Grid Type                 RadialGrid  ... Gauss-Chebyshev
Angular Grid (max. acc.)         AngularGrid ... Lebedev-302
Angular grid pruning method      GridPruning ... 3 (G Style)
Weight generation scheme         WeightScheme... Becke
Basis function cutoff            BFCut       ...    1.0000e-11
Integration weight cutoff        WCut        ...    1.0000e-14
Grids for H and He will be reduced by one unit

# of grid points (after initial pruning)     ...  26000 (   0.0 sec)
# of grid points (after weights+screening)   ...  25190 (   0.2 sec)
nearest neighbour list constructed           ...    0.0 sec
Grid point re-assignment to atoms done       ...    0.0 sec
Grid point division into batches done        ...    0.2 sec
Reduced shell lists constructed in    0.2 sec

Total number of grid points                  ...    25190
Total number of batches                      ...      397
Average number of points per batch           ...       63
Average number of grid points per atom       ...     4198
Average number of shells per batch           ...    31.16 (81.99%)
Average number of basis functions per batch  ...    71.08 (82.65%)
Average number of large shells per batch     ...    29.75 (95.47%)
Average number of large basis fcns per batch ...    68.61 (96.52%)
Maximum spatial batch extension              ...  12.05, 13.71, 16.25 au
Average spatial batch extension              ...   0.29,  0.31,  0.34 au

Final grid set up in    0.9 sec
Final integration                            ... done (   0.4 sec)
Change in XC energy                          ...    -0.000056777
Integrated number of electrons               ...    18.000017434
Previous integrated no of electrons          ...    17.999512477

----------------
TOTAL SCF ENERGY
----------------

Total Energy       :         -115.73302835 Eh           -3149.25581 eV

Components:
Nuclear Repulsion  :           40.56895380 Eh            1103.93736 eV
Electronic Energy  :         -156.30198215 Eh           -4253.19316 eV
One Electron Energy:         -237.55830552 Eh           -6464.29013 eV
Two Electron Energy:           81.25632337 Eh            2211.09697 eV

Virial components:
Potential Energy   :         -230.96798062 Eh           -6284.95827 eV
Kinetic Energy     :          115.23495227 Eh            3135.70247 eV
Virial Ratio       :            2.00432227


DFT components:
N(Alpha)           :        9.000008717011 electrons
N(Beta)            :        9.000008717011 electrons
N(Total)           :       18.000017434023 electrons
E(XC)              :      -10.650625233901 Eh       
DFET-embed. en.    :        0.000000000000 Eh       

---------------
SCF CONVERGENCE
---------------

  Last Energy change         ...   -1.9040e-09  Tolerance :   1.0000e-08
  Last MAX-Density change    ...    4.4129e-06  Tolerance :   1.0000e-07
  Last RMS-Density change    ...    2.2446e-07  Tolerance :   5.0000e-09
  Last Orbital Gradient      ...    2.0372e-06  Tolerance :   1.0000e-05
  Last Orbital Rotation      ...    2.4948e-06  Tolerance :   1.0000e-05

             **** THE GBW FILE WAS UPDATED (46_charges.gbw) ****
             **** DENSITY FILE WAS UPDATED (46_charges.scfp.tmp) ****
             **** ENERGY FILE WAS UPDATED (46_charges.en.tmp) ****
----------------
ORBITAL ENERGIES
----------------

  NO   OCC          E(Eh)            E(eV) 
   0   2.0000     -19.228791      -523.2420 
   1   2.0000     -10.314325      -280.6671 
   2   2.0000      -1.140233       -31.0273 
   3   2.0000      -0.789900       -21.4943 
   4   2.0000      -0.610865       -16.6225 
   5   2.0000      -0.542327       -14.7575 
   6   2.0000      -0.533351       -14.5132 
   7   2.0000      -0.432361       -11.7651 
   8   2.0000      -0.366976        -9.9859 
   9   0.0000       0.112034         3.0486 
  10   0.0000       0.156942         4.2706 
  11   0.0000       0.198043         5.3890 
  12   0.0000       0.207383         5.6432 
  13   0.0000       0.225748         6.1429 
  14   0.0000       0.302830         8.2404 
  15   0.0000       0.316555         8.6139 
  16   0.0000       0.407360        11.0848 
  17   0.0000       0.451325        12.2812 
  18   0.0000       0.476615        12.9694 
  19   0.0000       0.529726        14.4146 
  20   0.0000       0.542079        14.7507 
  21   0.0000       0.569379        15.4936 
  22   0.0000       0.592776        16.1302 
  23   0.0000       0.610901        16.6235 
  24   0.0000       0.668460        18.1897 
  25   0.0000       0.793174        21.5834 
  26   0.0000       0.809040        22.0151 
  27   0.0000       0.869742        23.6669 
  28   0.0000       0.983934        26.7742 
  29   0.0000       1.011877        27.5346 
  30   0.0000       1.114609        30.3300 
  31   0.0000       1.376085        37.4452 
  32   0.0000       1.495277        40.6886 
  33   0.0000       1.550934        42.2031 
  34   0.0000       1.588187        43.2168 
  35   0.0000       1.618994        44.0551 
  36   0.0000       1.632620        44.4258 
  37   0.0000       1.666891        45.3584 
  38   0.0000       1.717166        46.7265 
  39   0.0000       1.780863        48.4597 
  40   0.0000       1.964197        53.4485 
  41   0.0000       2.002052        54.4786 
  42   0.0000       2.044206        55.6257 
  43   0.0000       2.085602        56.7521 
  44   0.0000       2.133118        58.0451 
  45   0.0000       2.249483        61.2116 
  46   0.0000       2.339060        63.6491 
  47   0.0000       2.349988        63.9464 
  48   0.0000       2.399418        65.2915 
  49   0.0000       2.444227        66.5108 
  50   0.0000       2.497342        67.9561 
  51   0.0000       2.570471        69.9461 
  52   0.0000       2.621431        71.3328 
  53   0.0000       2.713128        73.8280 
  54   0.0000       2.813896        76.5700 
  55   0.0000       2.842706        77.3540 
  56   0.0000       2.942163        80.0603 
  57   0.0000       2.982915        81.1692 
  58   0.0000       3.099902        84.3526 
  59   0.0000       3.153063        85.7992 
  60   0.0000       3.276621        89.1614 
  61   0.0000       3.394250        92.3622 
  62   0.0000       3.430863        93.3585 
  63   0.0000       3.503235        95.3279 
  64   0.0000       3.629918        98.7751 
  65   0.0000       3.659192        99.5717 
  66   0.0000       3.664614        99.7192 
  67   0.0000       4.022267       109.4515 
  68   0.0000       4.219534       114.8194 
  69   0.0000       4.237894       115.3190 
  70   0.0000       4.410475       120.0151 
  71   0.0000       4.560859       124.1073 
  72   0.0000       5.360245       145.8597 
  73   0.0000       5.454037       148.4119 
  74   0.0000       5.546987       150.9412 
  75   0.0000       5.817131       158.2922 
  76   0.0000       5.856051       159.3512 
  77   0.0000       6.009375       163.5234 
  78   0.0000       6.329410       172.2320 
  79   0.0000       6.536375       177.8638 
  80   0.0000       6.751602       183.7204 
  81   0.0000       6.835918       186.0148 
  82   0.0000       7.031795       191.3449 
  83   0.0000       7.204460       196.0433 
  84   0.0000      22.412906       609.8862 
  85   0.0000      43.670908      1188.3458 

                    ********************************
                    * MULLIKEN POPULATION ANALYSIS *
                    ********************************

-----------------------
MULLIKEN ATOMIC CHARGES
-----------------------
   0 C :   -0.167426
   1 O :   -0.469866
   2 H :    0.317667
   3 H :    0.122117
   4 H :    0.099860
   5 H :    0.097648
Sum of atomic charges:    0.0000000

--------------------------------
MULLIKEN REDUCED ORBITAL CHARGES
--------------------------------
  0 C s       :     3.231335  s :     3.231335
      pz      :     1.047818  p :     2.828067
      px      :     0.883020
      py      :     0.897228
      dz2     :     0.005571  d :     0.100050
      dxz     :     0.021834
      dyz     :     0.024834
      dx2y2   :     0.031923
      dxy     :     0.015889
      f0      :     0.001110  f :     0.007974
      f+1     :     0.000480
      f-1     :     0.001165
      f+2     :    -0.000047
      f-2     :     0.001832
      f+3     :     0.001921
      f-3     :     0.001513
  1 O s       :     3.795213  s :     3.795213
      pz      :     1.897598  p :     4.641974
      px      :     1.212183
      py      :     1.532193
      dz2     :     0.004654  d :     0.030987
      dxz     :     0.002456
      dyz     :     0.003979
      dx2y2   :     0.004743
      dxy     :     0.015155
      f0      :     0.000216  f :     0.001692
      f+1     :     0.000444
      f-1     :     0.000237
      f+2     :     0.000033
      f-2     :     0.000156
      f+3     :     0.000136
      f-3     :     0.000471
  2 H s       :     0.636380  s :     0.636380
      pz      :     0.016933  p :     0.045953
      px      :     0.016320
      py      :     0.012700
  3 H s       :     0.857962  s :     0.857962
      pz      :     0.004490  p :     0.019921
      px      :     0.010928
      py      :     0.004503
  4 H s       :     0.880772  s :     0.880772
      pz      :     0.010107  p :     0.019367
      px      :     0.003269
      py      :     0.005991
  5 H s       :     0.883755  s :     0.883755
      pz      :     0.008447  p :     0.018597
      px      :     0.002968
      py      :     0.007182


                     *******************************
                     * LOEWDIN POPULATION ANALYSIS *
                     *******************************

----------------------
LOEWDIN ATOMIC CHARGES
----------------------
   0 C :   -0.403494
   1 O :   -0.074101
   2 H :    0.178483
   3 H :    0.106794
   4 H :    0.096191
   5 H :    0.096128

-------------------------------
LOEWDIN REDUCED ORBITAL CHARGES
-------------------------------
  0 C s       :     2.867684  s :     2.867684
      pz      :     1.097134  p :     3.050815
      px      :     0.965403
      py      :     0.988278
      dz2     :     0.044579  d :     0.424455
      dxz     :     0.059777
      dyz     :     0.118935
      dx2y2   :     0.099486
      dxy     :     0.101678
      f0      :     0.007439  f :     0.060540
      f+1     :     0.006544
      f-1     :     0.005790
      f+2     :     0.003956
      f-2     :     0.012055
      f+3     :     0.013231
      f-3     :     0.011525
  1 O s       :     3.364298  s :     3.364298
      pz      :     1.791746  p :     4.630823
      px      :     1.261684
      py      :     1.577392
      dz2     :     0.008807  d :     0.074088
      dxz     :     0.008980
      dyz     :     0.007646
      dx2y2   :     0.017338
      dxy     :     0.031318
      f0      :     0.000453  f :     0.004892
      f+1     :     0.000793
      f-1     :     0.000345
      f+2     :     0.000050
      f-2     :     0.000721
      f+3     :     0.000994
      f-3     :     0.001536
  2 H s       :     0.669283  s :     0.669283
      pz      :     0.044830  p :     0.152235
      px      :     0.056959
      py      :     0.050446
  3 H s       :     0.833364  s :     0.833364
      pz      :     0.013856  p :     0.059842
      px      :     0.031227
      py      :     0.014759
  4 H s       :     0.845400  s :     0.845400
      pz      :     0.030183  p :     0.058409
      px      :     0.010800
      py      :     0.017426
  5 H s       :     0.846939  s :     0.846939
      pz      :     0.025479  p :     0.056933
      px      :     0.010303
      py      :     0.021151


                      *****************************
                      * MAYER POPULATION ANALYSIS *
                      *****************************

  NA   - Mulliken gross atomic population
  ZA   - Total nuclear charge
  QA   - Mulliken gross atomic charge
  VA   - Mayer's total valence
  BVA  - Mayer's bonded valence
  FA   - Mayer's free valence

  ATOM       NA         ZA         QA         VA         BVA        FA
  0 C      6.1674     6.0000    -0.1674     3.9377     3.9377    -0.0000
  1 O      8.4699     8.0000    -0.4699     1.8735     1.8735     0.0000
  2 H      0.6823     1.0000     0.3177     0.9089     0.9089     0.0000
  3 H      0.8779     1.0000     0.1221     0.9582     0.9582    -0.0000
  4 H      0.9001     1.0000     0.0999     0.9613     0.9613    -0.0000
  5 H      0.9024     1.0000     0.0976     0.9608     0.9608     0.0000

  Mayer bond orders larger than 0.1
B(  0-C ,  1-O ) :   0.9934 B(  0-C ,  3-H ) :   0.9679 B(  0-C ,  4-H ) :   0.9855 
B(  0-C ,  5-H ) :   0.9791 B(  1-O ,  2-H ) :   0.8956 


------------------
HIRSHFELD ANALYSIS
------------------

Total integrated alpha density =      8.999756238
Total integrated beta density  =      8.999756238

  ATOM     CHARGE      SPIN    
   0 C    0.008183    0.000000
   1 O   -0.254160    0.000000
   2 H    0.164282    0.000000
   3 H    0.043159    0.000000
   4 H    0.016617    0.000000
   5 H    0.022406    0.000000

  TOTAL   0.000488    0.000000

-------
TIMINGS
-------

Total SCF time: 0 days 0 hours 0 min 24 sec 

Total time                  ....      24.093 sec
Sum of individual times     ....      21.173 sec  ( 87.9%)

Fock matrix formation       ....      16.172 sec  ( 67.1%)
  XC integration            ....       3.871 sec  ( 23.9% of F)
    Basis function eval.    ....       0.039 sec  (  1.0% of XC)
    Density eval.           ....       0.040 sec  (  1.0% of XC)
    XC-Functional eval.     ....       0.102 sec  (  2.6% of XC)
    XC-Potential eval.      ....       0.096 sec  (  2.5% of XC)
Diagonalization             ....       0.637 sec  (  2.6%)
Density matrix formation    ....       1.812 sec  (  7.5%)
Population analysis         ....       0.532 sec  (  2.2%)
Initial guess               ....       0.122 sec  (  0.5%)
Orbital Transformation      ....       0.000 sec  (  0.0%)
Orbital Orthonormalization  ....       0.000 sec  (  0.0%)
DIIS solution               ....       0.394 sec  (  1.6%)
SOSCF solution              ....       0.556 sec  (  2.3%)
Grid generation             ....       0.948 sec  (  3.9%)


-------------------------------------------------------------------------------
                          DFT DISPERSION CORRECTION                            
                                                                               
                              DFTD3 V3.1  Rev 1                                
                              USING zero damping                               
-------------------------------------------------------------------------------
The omegaB97X-D3 functional is recognized. Fit by Chai et al.
Active option DFTDOPT                   ...         3   

molecular C6(AA) [au] = 208.736248 


            DFT-D V3
 parameters
 s6 scaling factor         :     1.0000 
 rs6 scaling factor        :     1.2810 
 s8 scaling factor         :     1.0000 
 rs8 scaling factor        :     1.0940 
 Damping factor alpha6     :    14.0000 
 Damping factor alpha8     :    16.0000 
 ad hoc parameters k1-k3   :    16.0000     1.3333    -4.0000 

 Edisp/kcal,au: -0.137558282372  -0.000219213053 
 E6   /kcal   :  -0.028643976 
 E8   /kcal   :  -0.108914306 
 % E8         :  79.176843467 

-------------------------   ----------------
Dispersion correction           -0.000219213
-------------------------   ----------------


-------------------------   --------------------
FINAL SINGLE POINT ENERGY      -115.733247566548
-------------------------   --------------------


                            ***************************************
                            *     ORCA property calculations      *
                            ***************************************

                                    ---------------------
                                    Active property flags
                                    ---------------------
   (+) Dipole Moment


------------------------------------------------------------------------------
                       ORCA ELECTRIC PROPERTIES CALCULATION
------------------------------------------------------------------------------

Dipole Moment Calculation                       ... on
Quadrupole Moment Calculation                   ... off
Polarizability Calculation                      ... off
GBWName                                         ... 46_charges.gbw
Electron density file                           ... 46_charges.scfp.tmp
The origin for moment calculation is the CENTER OF MASS  = ( 9.947697, -17.533063 13.927520)

-------------
DIPOLE MOMENT
-------------
                                X             Y             Z
Electronic contribution:     -1.19059       1.38297       0.13676
Nuclear contribution   :      1.08524      -2.04735      -0.22396
                        -----------------------------------------
Total Dipole Moment    :     -0.10535      -0.66437      -0.08720
                        -----------------------------------------
Magnitude (a.u.)       :      0.67830
Magnitude (Debye)      :      1.72411



--------------------
Rotational spectrum 
--------------------
 
Rotational constants in cm-1:     4.199657     0.852614     0.817732 
Rotational constants in MHz : 125902.538476 25560.716542 24514.979953 

 Dipole components along the rotational axes: 
x,y,z [a.u.] :    -0.324479    -0.595651     0.002886 
x,y,z [Debye]:    -0.824760    -1.514024     0.007336 

 
------------------------------------------------------------------------------
                      ORCA CHELPG CHARGES GENERATION
------------------------------------------------------------------------------

GBW file                           ... 46_charges.gbw

Reading the GBW file               ... done

Grid spacing                       ...     0.300000
Point Cut-Off                      ...     2.800000
Van-der-Waals Radii                ...        COSMO
Total charge                       ...            0


Number of points X direction       ...           28
Number of points Y direction       ...           24
Number of points Z direction       ...           24
Maximum number of possible points  ...        16128
Final number of points             ...         5957


CHELPG Charges            
--------------------------------
  0   C   :       0.134489
  1   O   :      -0.607575
  2   H   :       0.406005
  3   H   :       0.071091
  4   H   :       0.001856
  5   H   :      -0.005867
--------------------------------
Total charge:    -0.000000
--------------------------------

CHELPG charges calculated...

Timings for individual parts in CHELPG calculation:
Grid generation                 ...        0.001 sec (=   0.000 min)
Potential calculation           ...        0.686 sec (=   0.011 min)
Fit to the potential            ...        0.019 sec (=   0.000 min)
------------------------------------------------------------------------------


Timings for individual modules:

Sum of individual times         ...       35.429 sec (=   0.590 min)
GTO integral calculation        ...        4.686 sec (=   0.078 min)  13.2 %
SCF iterations                  ...       28.307 sec (=   0.472 min)  79.9 %
CHELPG charge generation        ...        2.436 sec (=   0.041 min)   6.9 %
                             ****ORCA TERMINATED NORMALLY****
TOTAL RUN TIME: 0 days 0 hours 0 minutes 40 seconds 562 msec
