
                                 *****************
                                 * O   R   C   A *
                                 *****************

           --- An Ab Initio, DFT and Semiempirical electronic structure package ---

                  #######################################################
                  #                        -***-                        #
                  #          Department of theory and spectroscopy      #
                  #               Directorship: Frank Neese             #
                  #        Max Planck Institute fuer Kohlenforschung    #
                  #                Kaiser Wilhelm Platz 1               #
                  #                 D-45470 Muelheim/Ruhr               #
                  #                      Germany                        #
                  #                                                     #
                  #                  All rights reserved                #
                  #                        -***-                        #
                  #######################################################


                         Program Version 4.1.2  - RELEASE  -


 With contributions from (in alphabetic order):
   Daniel Aravena         : Magnetic Properties
   Michael Atanasov       : Ab Initio Ligand Field Theory
   Alexander A. Auer      : GIAO ZORA
   Ute Becker             : Parallelization
   Giovanni Bistoni       : ED, Open-shell LED
   Martin Brehm           : Molecular dynamics
   Dmytro Bykov           : SCF Hessian
   Vijay G. Chilkuri      : MRCI spin determinant printing
   Dipayan Datta          : RHF DLPNO-CCSD density
   Achintya Kumar Dutta   : EOM-CC, STEOM-CC
   Dmitry Ganyushin       : Spin-Orbit,Spin-Spin,Magnetic field MRCI
   Miquel Garcia          : C-PCM Hessian
   Yang Guo               : DLPNO-NEVPT2, CIM, IAO-localization
   Andreas Hansen         : Spin unrestricted coupled pair/coupled cluster methods
   Benjamin Helmich-Paris : CASSCF linear response (MC-RPA)
   Lee Huntington         : MR-EOM, pCC
   Robert Izsak           : Overlap fitted RIJCOSX, COSX-SCS-MP3, EOM
   Christian Kollmar      : KDIIS, OOCD, Brueckner-CCSD(T), CCSD density
   Simone Kossmann        : Meta GGA functionals, TD-DFT gradient, OOMP2, MP2 Hessian
   Martin Krupicka        : AUTO-CI
   Lucas Lang             : DCDCAS
   Dagmar Lenk            : GEPOL surface, SMD
   Dimitrios Liakos       : Extrapolation schemes; parallel MDCI
   Dimitrios Manganas     : ROCIS; embedding schemes
   Dimitrios Pantazis     : SARC Basis sets
   Taras Petrenko         : DFT Hessian,TD-DFT gradient, ASA, ECA, R-Raman, ABS, FL, XAS/XES, NRVS
   Peter Pinski           : DLPNO-MP2, DLPNO-MP2 Gradient
   Christoph Reimann      : Effective Core Potentials
   Marius Retegan         : Local ZFS, SOC
   Christoph Riplinger    : Optimizer, TS searches, QM/MM, DLPNO-CCSD(T), (RO)-DLPNO pert. Triples
   Tobias Risthaus        : Range-separated hybrids, TD-DFT gradient, RPA, STAB
   Michael Roemelt        : Restricted open shell CIS
   Masaaki Saitow         : Open-shell DLPNO
   Barbara Sandhoefer     : DKH picture change effects
   Avijit Sen             : IP-ROCIS
   Kantharuban Sivalingam : CASSCF convergence, NEVPT2, FIC-MRCI
   Bernardo de Souza      : ESD, SOC TD-DFT
   Georgi Stoychev        : AutoAux, RI-MP2 NMR
   Willem Van den Heuvel  : Paramagnetic NMR
   Boris Wezisla          : Elementary symmetry handling
   Frank Wennmohs         : Technical directorship


 We gratefully acknowledge several colleagues who have allowed us to
 interface, adapt or use parts of their codes:
   Stefan Grimme, W. Hujo, H. Kruse,             : VdW corrections, initial TS optimization,
                  C. Bannwarth                     DFT functionals, gCP, sTDA/sTD-DF
   Ed Valeev                                     : LibInt (2-el integral package), F12 methods
   Garnet Chan, S. Sharma, J. Yang, R. Olivares  : DMRG
   Ulf Ekstrom                                   : XCFun DFT Library
   Mihaly Kallay                                 : mrcc  (arbitrary order and MRCC methods)
   Andreas Klamt, Michael Diedenhofen            : otool_cosmo (COSMO solvation model)
   Jiri Pittner, Ondrej Demel                    : Mk-CCSD
   Frank Weinhold                                : gennbo (NPA and NBO analysis)
   Christopher J. Cramer and Donald G. Truhlar   : smd solvation model
   Lars Goerigk                                  : TD-DFT with DH, B97 family of functionals
   V. Asgeirsson, H. Jonsson                     : NEB implementation
   FAccTs GmbH                                   : IRC, NEB, NEB-TS, Multilevel


 Your calculation uses the libint2 library for the computation of 2-el integrals
 For citations please refer to: http://libint.valeyev.net

 This ORCA versions uses:
   CBLAS   interface :  Fast vector & matrix operations
   LAPACKE interface :  Fast linear algebra routines
   SCALAPACK package :  Parallel linear algebra routines


Your calculation utilizes the atom-pairwise dispersion correction
with the zero-damping scheme (D30)
Cite in your paper:
S.Grimme, J.Antony, S.Ehrlich and H.Krieg, J.Chem.Phys., 132, (2010), 154104 
   

XCFun DFT library Copyright 2009-2010 Ulf Ekstrom and contributors.
See http://admol.org/xcfun for more information. This is free soft-
ware; see the source code for copying conditions. There is ABSOLUTELY
NO WARRANTY; not even for MERCHANTABILITY or FITNESS FOR A PARTICULAR
PURPOSE. For details see the documentation. Scientific users of this 
library should cite U. Ekstrom, L. Visscher, R. Bast, A. J. Thorvald-
sen and K. Ruud; J.Chem.Theor.Comp. 2010, DOI: 10.1021/ct100117s
XCFun Version 0.99 
----- Orbital basis set information -----
Your calculation utilizes the basis: def2-TZVP
   F. Weigend and R. Ahlrichs, Phys. Chem. Chem. Phys. 7, 3297 (2005).

================================================================================
                                        WARNINGS
                       Please study these warnings very carefully!
================================================================================


WARNING: Geometry Optimization
  ===> : Switching off AutoStart
         For restart on a previous wavefunction, please use MOREAD

INFO   : the flag for use of LIBINT has been found!

================================================================================
                                       INPUT FILE
================================================================================
NAME = bonds_angles_[1[6[8][1][1]]]-[6[8[1]][1][1][1]]_9.in
|  1> #Run DFT geometry optimization
|  2> ! wB97X-D3 def2-TZVP TIGHTSCF Grid5 FinalGrid6 Opt CHELPG PAL4
|  3> 
|  4> %base "9_geo_opt"
|  5> %geom MaxIter 500
|  6> end
|  7> 
|  8> %geom
|  9>   Constraints
| 10>     { B 5 0 C }
| 11>   end
| 12> end
| 13> 
| 14> 
| 15> * xyz 0 1
| 16>   C                    3.011115             -1.180570            0.598619            
| 17>   O                    4.394481             -1.127723            0.874434            
| 18>   H                    4.772004             -0.378695            0.412620            
| 19>   H                    2.806242             -1.318638            -0.469223           
| 20>   H                    2.611440             -2.039938            1.136025            
| 21>   H                    2.484949             -0.284818            0.945532            
| 22> *
| 23> 
| 24>                          ****END OF INPUT****
================================================================================

                       *****************************
                       * Geometry Optimization Run *
                       *****************************

Geometry optimization settings:
Update method            Update   .... BFGS
Choice of coordinates    CoordSys .... Z-matrix Internals
Initial Hessian          InHess   .... Almoef's Model

Convergence Tolerances:
Energy Change            TolE     ....  5.0000e-06 Eh
Max. Gradient            TolMAXG  ....  3.0000e-04 Eh/bohr
RMS Gradient             TolRMSG  ....  1.0000e-04 Eh/bohr
Max. Displacement        TolMAXD  ....  4.0000e-03 bohr
RMS Displacement         TolRMSD  ....  2.0000e-03 bohr

------------------------------------------------------------------------------
                        ORCA OPTIMIZATION COORDINATE SETUP
------------------------------------------------------------------------------

The optimization will be done in new redundant internal coordinates
Making redundant internal coordinates   ...  (new redundants) done
Evaluating the initial hessian          ...  (Almloef) done
Evaluating the coordinates              ...  done
Calculating the B-matrix                .... done
Calculating the G-matrix                .... done
Diagonalizing the G-matrix              .... done
Imposing constraints:
 Iter   0:  RMS(Cart)=    0.0000000000 RMS(Int)=    0.0000000000
CONVERGED
The first mode is                       ....    3
The number of degrees of freedom        ....   12
Storing new coordinates                 .... done

    -----------------------------------------------------------------
                    Redundant Internal Coordinates


    -----------------------------------------------------------------
         Definition                    Initial Value    Approx d2E/dq
    -----------------------------------------------------------------
      1. B(O   1,C   0)                  1.4116         0.516940   
      2. B(H   2,O   1)                  0.9575         0.524721   
      3. B(H   3,C   0)                  1.0960         0.352187   
      4. B(H   4,C   0)                  1.0895         0.360733   
      5. B(H   5,C   0)                  1.0952         0.353222 C 
      6. A(O   1,C   0,H   4)          107.0169         0.340286   
      7. A(O   1,C   0,H   3)          112.2262         0.338926   
      8. A(O   1,C   0,H   5)          112.2281         0.339092   
      9. A(H   3,C   0,H   5)          108.7729         0.288952   
     10. A(H   4,C   0,H   5)          108.2174         0.290040   
     11. A(H   3,C   0,H   4)          108.2177         0.289907   
     12. A(C   0,O   1,H   2)          108.7499         0.359341   
     13. D(H   2,O   1,C   0,H   5)    -61.4303         0.021176   
     14. D(H   2,O   1,C   0,H   3)     61.4271         0.021176   
     15. D(H   2,O   1,C   0,H   4)    179.9981         0.021176   
    -----------------------------------------------------------------

Number of atoms                         .... 6
Number of degrees of freedom            .... 15

         *************************************************************
         *                GEOMETRY OPTIMIZATION CYCLE   1            *
         *************************************************************
---------------------------------
CARTESIAN COORDINATES (ANGSTROEM)
---------------------------------
  C      3.011115   -1.180570    0.598619
  O      4.394481   -1.127723    0.874434
  H      4.772004   -0.378695    0.412620
  H      2.806242   -1.318638   -0.469223
  H      2.611440   -2.039938    1.136025
  H      2.484949   -0.284818    0.945532

----------------------------
CARTESIAN COORDINATES (A.U.)
----------------------------
  NO LB      ZA    FRAG     MASS         X           Y           Z
   0 C     6.0000    0    12.011    5.690183   -2.230954    1.131226
   1 O     8.0000    0    15.999    8.304366   -2.131088    1.652441
   2 H     1.0000    0     1.008    9.017781   -0.715630    0.779739
   3 H     1.0000    0     1.008    5.303029   -2.491865   -0.886703
   4 H     1.0000    0     1.008    4.934906   -3.854924    2.146776
   5 H     1.0000    0     1.008    4.695873   -0.538228    1.786797

--------------------------------
INTERNAL COORDINATES (ANGSTROEM)
--------------------------------
 C      0   0   0     0.000000000000     0.00000000     0.00000000
 O      1   0   0     1.411583582219     0.00000000     0.00000000
 H      2   1   0     0.957516961160   108.74994012     0.00000000
 H      1   2   3     1.096048473252   112.22624056    61.42714638
 H      1   2   3     1.089522222759   107.01689384   179.99806513
 H      1   2   3     1.095249256849   112.22814701   298.56966769

---------------------------
INTERNAL COORDINATES (A.U.)
---------------------------
 C      0   0   0     0.000000000000     0.00000000     0.00000000
 O      1   0   0     2.667506385533     0.00000000     0.00000000
 H      2   1   0     1.809444825177   108.74994012     0.00000000
 H      1   2   3     2.071231443948   112.22624056    61.42714638
 H      1   2   3     2.058898617835   107.01689384   179.99806513
 H      1   2   3     2.069721143826   112.22814701   298.56966769

---------------------
BASIS SET INFORMATION
---------------------
There are 3 groups of distinct atoms

 Group   1 Type C   : 11s6p2d1f contracted to 5s3p2d1f pattern {62111/411/11/1}
 Group   2 Type O   : 11s6p2d1f contracted to 5s3p2d1f pattern {62111/411/11/1}
 Group   3 Type H   : 5s1p contracted to 3s1p pattern {311/1}

Atom   0C    basis set group =>   1
Atom   1O    basis set group =>   2
Atom   2H    basis set group =>   3
Atom   3H    basis set group =>   3
Atom   4H    basis set group =>   3
Atom   5H    basis set group =>   3


           ************************************************************
           *        Program running with 4 parallel MPI-processes     *
           *              working on a common directory               *
           ************************************************************
------------------------------------------------------------------------------
                           ORCA GTO INTEGRAL CALCULATION
------------------------------------------------------------------------------

                         BASIS SET STATISTICS AND STARTUP INFO

 # of primitive gaussian shells          ...   64
 # of primitive gaussian functions       ...  124
 # of contracted shells                  ...   38
 # of contracted basis functions         ...   86
 Highest angular momentum                ...    3
 Maximum contraction depth               ...    6
 Integral package used                   ... LIBINT
 Integral threshhold            Thresh   ...  2.500e-11
 Primitive cut-off              TCut     ...  2.500e-12


------------------------------ INTEGRAL EVALUATION ----------------------------


 * One electron integrals 
 Pre-screening matrix                    ... done
 Shell pair data                         ... done (   0.000 sec)



           ************************************************************
           *        Program running with 4 parallel MPI-processes     *
           *              working on a common directory               *
           ************************************************************
-------------------------------------------------------------------------------
                                 ORCA SCF
-------------------------------------------------------------------------------

------------
SCF SETTINGS
------------
Hamiltonian:
 Density Functional     Method          .... DFT(GTOs)
 Exchange Functional    Exchange        .... WB97X-D3
 Correlation Functional Correlation     .... WB97X-D3
 Gradients option       PostSCFGGA      .... off
 Hybrid DFT is turned on
   Fraction HF Exchange ScalHFX         ....  0.195728
   Scaling of DF-GGA-X  ScalDFX         ....  0.000000
   Scaling of DF-GGA-C  ScalDFC         ....  1.000000
   Scaling of DF-LDA-C  ScalLDAC        ....  1.000000
   Perturbative correction              ....  0.000000
   Density functional embedding theory  .... OFF
 Long-range corrected/Screened/Range-Separated Hybrid DFT is turned on
   Amount of maximum screened exact exchange              ....  0.804272
   Range separation parameter mu (erf(mu*r12)/r12)        ....  0.250000


General Settings:
 Integral files         IntName         .... 9_geo_opt
 Hartree-Fock type      HFTyp           .... RHF
 Total Charge           Charge          ....    0
 Multiplicity           Mult            ....    1
 Number of Electrons    NEL             ....   18
 Basis Dimension        Dim             ....   86
 Nuclear Repulsion      ENuc            ....     40.4411518233 Eh

Convergence Acceleration:
 DIIS                   CNVDIIS         .... on
   Start iteration      DIISMaxIt       ....    12
   Startup error        DIISStart       ....  0.200000
   # of expansion vecs  DIISMaxEq       ....     5
   Bias factor          DIISBfac        ....   1.050
   Max. coefficient     DIISMaxC        ....  10.000
 Newton-Raphson         CNVNR           .... off
 SOSCF                  CNVSOSCF        .... on
   Start iteration      SOSCFMaxIt      ....   150
   Startup grad/error   SOSCFStart      ....  0.003300
 Level Shifting         CNVShift        .... on
   Level shift para.    LevelShift      ....    0.2500
   Turn off err/grad.   ShiftErr        ....    0.0010
 Zerner damping         CNVZerner       .... off
 Static damping         CNVDamp         .... on
   Fraction old density DampFac         ....    0.7000
   Max. Damping (<1)    DampMax         ....    0.9800
   Min. Damping (>=0)   DampMin         ....    0.0000
   Turn off err/grad.   DampErr         ....    0.1000
 Fernandez-Rico         CNVRico         .... off

SCF Procedure:
 Maximum # iterations   MaxIter         ....   125
 SCF integral mode      SCFMode         .... Direct
   Integral package                     .... LIBINT
 Reset frequency        DirectResetFreq ....    20
 Integral Threshold     Thresh          ....  2.500e-11 Eh
 Primitive CutOff       TCut            ....  2.500e-12 Eh

Convergence Tolerance:
 Convergence Check Mode ConvCheckMode   .... Total+1el-Energy
 Convergence forced     ConvForced      .... 0
 Energy Change          TolE            ....  1.000e-08 Eh
 1-El. energy change                    ....  1.000e-05 Eh
 Orbital Gradient       TolG            ....  1.000e-05
 Orbital Rotation angle TolX            ....  1.000e-05
 DIIS Error             TolErr          ....  5.000e-07


Diagonalization of the overlap matrix:
Smallest eigenvalue                        ... 1.648e-03
Time for diagonalization                   ...    0.002 sec
Threshold for overlap eigenvalues          ... 1.000e-08
Number of eigenvalues below threshold      ... 0
Time for construction of square roots      ...    0.004 sec
Total time needed                          ...    0.006 sec

-------------------
DFT GRID GENERATION
-------------------

General Integration Accuracy     IntAcc      ...  5.010
Radial Grid Type                 RadialGrid  ... Gauss-Chebyshev
Angular Grid (max. acc.)         AngularGrid ... Lebedev-434
Angular grid pruning method      GridPruning ... 3 (G Style)
Weight generation scheme         WeightScheme... Becke
Basis function cutoff            BFCut       ...    1.0000e-11
Integration weight cutoff        WCut        ...    1.0000e-14
Grids for H and He will be reduced by one unit

# of grid points (after initial pruning)     ...  48308 (   0.0 sec)
# of grid points (after weights+screening)   ...  46676 (   0.0 sec)
nearest neighbour list constructed           ...    0.0 sec
Grid point re-assignment to atoms done       ...    0.0 sec
Grid point division into batches done        ...    0.3 sec
Reduced shell lists constructed in    0.3 sec

Total number of grid points                  ...    46676
Total number of batches                      ...      733
Average number of points per batch           ...       63
Average number of grid points per atom       ...     7779
Average number of shells per batch           ...    33.11 (87.14%)
Average number of basis functions per batch  ...    76.78 (89.28%)
Average number of large shells per batch     ...    30.62 (92.47%)
Average number of large basis fcns per batch ...    72.25 (94.11%)
Maximum spatial batch extension              ...  15.77, 14.99, 16.58 au
Average spatial batch extension              ...   0.40,  0.40,  0.43 au

Time for grid setup =    0.379 sec

------------------------------
INITIAL GUESS: MODEL POTENTIAL
------------------------------
Loading Hartree-Fock densities                     ... done
Calculating cut-offs                               ... done
Setting up the integral package                    ... done
Initializing the effective Hamiltonian             ... done
Starting the Coulomb interaction                   ... done (   0.0 sec)
Reading the grid                                   ... done
Mapping shells                                     ... done
Starting the XC term evaluation                    ... done (   0.1 sec)
  promolecular density results
     # of electrons  =     17.998045193
     EX              =    -14.430418485
     EC              =     -0.575133910
     EX+EC           =    -15.005552395
Transforming the Hamiltonian                       ... done (   0.0 sec)
Diagonalizing the Hamiltonian                      ... done (   0.0 sec)
Back transforming the eigenvectors                 ... done (   0.0 sec)
Now organizing SCF variables                       ... done
                      ------------------
                      INITIAL GUESS DONE (   0.5 sec)
                      ------------------
--------------
SCF ITERATIONS
--------------
ITER       Energy         Delta-E        Max-DP      RMS-DP      [F,P]     Damp
               ***  Starting incremental Fock matrix formation  ***
  0   -115.6511782776   0.000000000000 0.03696595  0.00147485  0.2523627 0.7000
  1   -115.6882560278  -0.037077750153 0.02203014  0.00104098  0.1262641 0.7000
                               ***Turning on DIIS***
  2   -115.7053273298  -0.017071302061 0.03156837  0.00188166  0.0491100 0.0000
  3   -115.7330763453  -0.027749015517 0.01774194  0.00068038  0.0611222 0.0000
  4   -115.7376010724  -0.004524727052 0.00406539  0.00013180  0.0065622 0.0000
                      *** Initiating the SOSCF procedure ***
                           *** Shutting down DIIS ***
                      *** Re-Reading the Fockian *** 
                      *** Removing any level shift *** 
ITER      Energy       Delta-E        Grad      Rot      Max-DP    RMS-DP
  5   -115.73769527  -0.0000942007  0.000489  0.000489  0.000678  0.000043
               *** Restarting incremental Fock matrix formation ***
  6   -115.73770342  -0.0000081428  0.000152  0.000202  0.000490  0.000026
  7   -115.73770414  -0.0000007219  0.000056  0.000109  0.000208  0.000011
  8   -115.73770420  -0.0000000574  0.000019  0.000017  0.000030  0.000001
  9   -115.73770420  -0.0000000055  0.000010  0.000008  0.000015  0.000001
 10   -115.73770420  -0.0000000015  0.000003  0.000003  0.000003  0.000000
                  ***Gradient check signals convergence***
              ***Rediagonalizing the Fockian in SOSCF/NRSCF***

               *****************************************************
               *                     SUCCESS                       *
               *           SCF CONVERGED AFTER  11 CYCLES          *
               *****************************************************

Setting up the final grid:

General Integration Accuracy     IntAcc      ...  5.340
Radial Grid Type                 RadialGrid  ... Gauss-Chebyshev
Angular Grid (max. acc.)         AngularGrid ... Lebedev-590
Angular grid pruning method      GridPruning ... 3 (G Style)
Weight generation scheme         WeightScheme... Becke
Basis function cutoff            BFCut       ...    1.0000e-11
Integration weight cutoff        WCut        ...    1.0000e-14
Grids for H and He will be reduced by one unit

# of grid points (after initial pruning)     ...  77324 (   0.0 sec)
# of grid points (after weights+screening)   ...  74512 (   0.0 sec)
nearest neighbour list constructed           ...    0.0 sec
Grid point re-assignment to atoms done       ...    0.0 sec
Grid point division into batches done        ...    0.8 sec
Reduced shell lists constructed in    0.8 sec

Total number of grid points                  ...    74512
Total number of batches                      ...     1167
Average number of points per batch           ...       63
Average number of grid points per atom       ...    12419
Average number of shells per batch           ...    32.93 (86.65%)
Average number of basis functions per batch  ...    76.37 (88.80%)
Average number of large shells per batch     ...    30.32 (92.07%)
Average number of large basis fcns per batch ...    71.53 (93.67%)
Maximum spatial batch extension              ...  13.18, 14.25, 15.48 au
Average spatial batch extension              ...   0.34,  0.36,  0.37 au

Final grid set up in    0.9 sec
Final integration                            ... done (   0.2 sec)
Change in XC energy                          ...    -0.000107605
Integrated number of electrons               ...    18.000000751
Previous integrated no of electrons          ...    18.000002283

----------------
TOTAL SCF ENERGY
----------------

Total Energy       :         -115.73781181 Eh           -3149.38597 eV

Components:
Nuclear Repulsion  :           40.44115182 Eh            1100.45969 eV
Electronic Energy  :         -156.17896363 Eh           -4249.84566 eV
One Electron Energy:         -237.30133832 Eh           -6457.29770 eV
Two Electron Energy:           81.12237469 Eh            2207.45204 eV

Virial components:
Potential Energy   :         -230.98950882 Eh           -6285.54409 eV
Kinetic Energy     :          115.25169701 Eh            3136.15811 eV
Virial Ratio       :            2.00421785


DFT components:
N(Alpha)           :        9.000000375562 electrons
N(Beta)            :        9.000000375562 electrons
N(Total)           :       18.000000751125 electrons
E(XC)              :      -10.655844171458 Eh       
DFET-embed. en.    :        0.000000000000 Eh       

---------------
SCF CONVERGENCE
---------------

  Last Energy change         ...   -8.0078e-11  Tolerance :   1.0000e-08
  Last MAX-Density change    ...    1.8652e-06  Tolerance :   1.0000e-07
  Last RMS-Density change    ...    7.7986e-08  Tolerance :   5.0000e-09
  Last Orbital Gradient      ...    1.3494e-06  Tolerance :   1.0000e-05
  Last Orbital Rotation      ...    7.8012e-07  Tolerance :   1.0000e-05

             **** THE GBW FILE WAS UPDATED (9_geo_opt.gbw) ****
             **** DENSITY FILE WAS UPDATED (9_geo_opt.scfp.tmp) ****
             **** ENERGY FILE WAS UPDATED (9_geo_opt.en.tmp) ****
----------------
ORBITAL ENERGIES
----------------

  NO   OCC          E(Eh)            E(eV) 
   0   2.0000     -19.228068      -523.2223 
   1   2.0000     -10.315024      -280.6861 
   2   2.0000      -1.136788       -30.9336 
   3   2.0000      -0.795400       -21.6439 
   4   2.0000      -0.611615       -16.6429 
   5   2.0000      -0.541838       -14.7442 
   6   2.0000      -0.526314       -14.3217 
   7   2.0000      -0.433802       -11.8044 
   8   2.0000      -0.373615       -10.1666 
   9   0.0000       0.116654         3.1743 
  10   0.0000       0.156703         4.2641 
  11   0.0000       0.202583         5.5126 
  12   0.0000       0.205178         5.5832 
  13   0.0000       0.226388         6.1603 
  14   0.0000       0.304335         8.2814 
  15   0.0000       0.313349         8.5267 
  16   0.0000       0.404511        11.0073 
  17   0.0000       0.452628        12.3166 
  18   0.0000       0.485028        13.1983 
  19   0.0000       0.535979        14.5847 
  20   0.0000       0.543661        14.7938 
  21   0.0000       0.567710        15.4482 
  22   0.0000       0.598613        16.2891 
  23   0.0000       0.603644        16.4260 
  24   0.0000       0.671335        18.2680 
  25   0.0000       0.779013        21.1980 
  26   0.0000       0.832205        22.6454 
  27   0.0000       0.861310        23.4374 
  28   0.0000       0.989579        26.9278 
  29   0.0000       1.013924        27.5903 
  30   0.0000       1.109753        30.1979 
  31   0.0000       1.382642        37.6236 
  32   0.0000       1.512873        41.1674 
  33   0.0000       1.553556        42.2744 
  34   0.0000       1.602803        43.6145 
  35   0.0000       1.612973        43.8912 
  36   0.0000       1.624362        44.2011 
  37   0.0000       1.660476        45.1838 
  38   0.0000       1.688161        45.9372 
  39   0.0000       1.774641        48.2904 
  40   0.0000       1.952100        53.1193 
  41   0.0000       2.030708        55.2584 
  42   0.0000       2.055235        55.9258 
  43   0.0000       2.094280        56.9883 
  44   0.0000       2.114664        57.5429 
  45   0.0000       2.268678        61.7339 
  46   0.0000       2.333522        63.4984 
  47   0.0000       2.345658        63.8286 
  48   0.0000       2.380989        64.7900 
  49   0.0000       2.429759        66.1171 
  50   0.0000       2.497870        67.9705 
  51   0.0000       2.596588        70.6567 
  52   0.0000       2.640181        71.8430 
  53   0.0000       2.707250        73.6680 
  54   0.0000       2.842133        77.3384 
  55   0.0000       2.871251        78.1307 
  56   0.0000       2.888416        78.5978 
  57   0.0000       2.992850        81.4396 
  58   0.0000       3.096194        84.2517 
  59   0.0000       3.173143        86.3456 
  60   0.0000       3.299489        89.7837 
  61   0.0000       3.408609        92.7530 
  62   0.0000       3.441939        93.6599 
  63   0.0000       3.488572        94.9289 
  64   0.0000       3.612642        98.3050 
  65   0.0000       3.645455        99.1979 
  66   0.0000       3.667072        99.7861 
  67   0.0000       4.005598       108.9979 
  68   0.0000       4.224545       114.9557 
  69   0.0000       4.273694       116.2931 
  70   0.0000       4.456250       121.2607 
  71   0.0000       4.564410       124.2039 
  72   0.0000       5.346135       145.4757 
  73   0.0000       5.425398       147.6326 
  74   0.0000       5.554399       151.1429 
  75   0.0000       5.826234       158.5399 
  76   0.0000       5.834145       158.7552 
  77   0.0000       5.985611       162.8768 
  78   0.0000       6.379610       173.5980 
  79   0.0000       6.530957       177.7164 
  80   0.0000       6.745012       183.5411 
  81   0.0000       6.804046       185.1475 
  82   0.0000       7.039424       191.5525 
  83   0.0000       7.215934       196.3555 
  84   0.0000      22.407241       609.7320 
  85   0.0000      43.664318      1188.1665 

                    ********************************
                    * MULLIKEN POPULATION ANALYSIS *
                    ********************************

-----------------------
MULLIKEN ATOMIC CHARGES
-----------------------
   0 C :   -0.150790
   1 O :   -0.477690
   2 H :    0.312993
   3 H :    0.098585
   4 H :    0.118190
   5 H :    0.098712
Sum of atomic charges:    0.0000000

--------------------------------
MULLIKEN REDUCED ORBITAL CHARGES
--------------------------------
  0 C s       :     3.222955  s :     3.222955
      pz      :     1.047270  p :     2.826185
      px      :     0.702208
      py      :     1.076707
      dz2     :     0.011104  d :     0.094231
      dxz     :     0.032493
      dyz     :     0.002644
      dx2y2   :     0.012740
      dxy     :     0.035251
      f0      :     0.001356  f :     0.007419
      f+1     :     0.000956
      f-1     :     0.000175
      f+2     :     0.001464
      f-2     :     0.000123
      f+3     :     0.001361
      f-3     :     0.001985
  1 O s       :     3.792782  s :     3.792782
      pz      :     1.759407  p :     4.652645
      px      :     1.313658
      py      :     1.579580
      dz2     :     0.003136  d :     0.030577
      dxz     :     0.006477
      dyz     :     0.005835
      dx2y2   :     0.008936
      dxy     :     0.006193
      f0      :     0.000269  f :     0.001685
      f+1     :     0.000233
      f-1     :     0.000087
      f+2     :     0.000287
      f-2     :     0.000235
      f+3     :     0.000367
      f-3     :     0.000206
  2 H s       :     0.639314  s :     0.639314
      pz      :     0.017006  p :     0.047693
      px      :     0.012720
      py      :     0.017967
  3 H s       :     0.882051  s :     0.882051
      pz      :     0.012072  p :     0.019365
      px      :     0.003007
      py      :     0.004286
  4 H s       :     0.861590  s :     0.861590
      pz      :     0.006297  p :     0.020219
      px      :     0.004193
      py      :     0.009729
  5 H s       :     0.881901  s :     0.881901
      pz      :     0.004939  p :     0.019387
      px      :     0.004984
      py      :     0.009464


                     *******************************
                     * LOEWDIN POPULATION ANALYSIS *
                     *******************************

----------------------
LOEWDIN ATOMIC CHARGES
----------------------
   0 C :   -0.385048
   1 O :   -0.076106
   2 H :    0.165778
   3 H :    0.093411
   4 H :    0.108708
   5 H :    0.093257

-------------------------------
LOEWDIN REDUCED ORBITAL CHARGES
-------------------------------
  0 C s       :     2.862759  s :     2.862759
      pz      :     1.096628  p :     3.052311
      px      :     0.846054
      py      :     1.109629
      dz2     :     0.072414  d :     0.412950
      dxz     :     0.114037
      dyz     :     0.020711
      dx2y2   :     0.082151
      dxy     :     0.123637
      f0      :     0.007823  f :     0.057027
      f+1     :     0.007163
      f-1     :     0.000855
      f+2     :     0.012527
      f-2     :     0.004832
      f+3     :     0.011736
      f-3     :     0.012091
  1 O s       :     3.366273  s :     3.366273
      pz      :     1.699044  p :     4.633623
      px      :     1.381192
      py      :     1.553387
      dz2     :     0.006130  d :     0.071565
      dxz     :     0.017863
      dyz     :     0.008086
      dx2y2   :     0.019337
      dxy     :     0.020148
      f0      :     0.000483  f :     0.004645
      f+1     :     0.000622
      f-1     :     0.000072
      f+2     :     0.001050
      f-2     :     0.000560
      f+3     :     0.000890
      f-3     :     0.000966
  2 H s       :     0.675139  s :     0.675139
      pz      :     0.055755  p :     0.159084
      px      :     0.033906
      py      :     0.069423
  3 H s       :     0.846770  s :     0.846770
      pz      :     0.036177  p :     0.059819
      px      :     0.009713
      py      :     0.013930
  4 H s       :     0.831702  s :     0.831702
      pz      :     0.019210  p :     0.059590
      px      :     0.011608
      py      :     0.028772
  5 H s       :     0.846793  s :     0.846793
      pz      :     0.015651  p :     0.059951
      px      :     0.015239
      py      :     0.029061


                      *****************************
                      * MAYER POPULATION ANALYSIS *
                      *****************************

  NA   - Mulliken gross atomic population
  ZA   - Total nuclear charge
  QA   - Mulliken gross atomic charge
  VA   - Mayer's total valence
  BVA  - Mayer's bonded valence
  FA   - Mayer's free valence

  ATOM       NA         ZA         QA         VA         BVA        FA
  0 C      6.1508     6.0000    -0.1508     3.9350     3.9350    -0.0000
  1 O      8.4777     8.0000    -0.4777     1.8880     1.8880     0.0000
  2 H      0.6870     1.0000     0.3130     0.9136     0.9136    -0.0000
  3 H      0.9014     1.0000     0.0986     0.9596     0.9596     0.0000
  4 H      0.8818     1.0000     0.1182     0.9598     0.9598     0.0000
  5 H      0.9013     1.0000     0.0987     0.9596     0.9596    -0.0000

  Mayer bond orders larger than 0.1
B(  0-C ,  1-O ) :   0.9986 B(  0-C ,  3-H ) :   0.9756 B(  0-C ,  4-H ) :   0.9750 
B(  0-C ,  5-H ) :   0.9755 B(  1-O ,  2-H ) :   0.9002 

-------
TIMINGS
-------

Total SCF time: 0 days 0 hours 0 min 8 sec 

Total time                  ....       8.737 sec
Sum of individual times     ....       8.367 sec  ( 95.8%)

Fock matrix formation       ....       6.818 sec  ( 78.0%)
  XC integration            ....       1.964 sec  ( 28.8% of F)
    Basis function eval.    ....       0.411 sec  ( 20.9% of XC)
    Density eval.           ....       0.272 sec  ( 13.9% of XC)
    XC-Functional eval.     ....       0.670 sec  ( 34.1% of XC)
    XC-Potential eval.      ....       0.276 sec  ( 14.0% of XC)
Diagonalization             ....       0.019 sec  (  0.2%)
Density matrix formation    ....       0.002 sec  (  0.0%)
Population analysis         ....       0.015 sec  (  0.2%)
Initial guess               ....       0.167 sec  (  1.9%)
Orbital Transformation      ....       0.000 sec  (  0.0%)
Orbital Orthonormalization  ....       0.000 sec  (  0.0%)
DIIS solution               ....       0.032 sec  (  0.4%)
SOSCF solution              ....       0.038 sec  (  0.4%)
Grid generation             ....       1.276 sec  ( 14.6%)


-------------------------------------------------------------------------------
                          DFT DISPERSION CORRECTION                            
                                                                               
                              DFTD3 V3.1  Rev 1                                
                              USING zero damping                               
-------------------------------------------------------------------------------
The omegaB97X-D3 functional is recognized. Fit by Chai et al.
Active option DFTDOPT                   ...         3   

molecular C6(AA) [au] = 208.714795 


            DFT-D V3
 parameters
 s6 scaling factor         :     1.0000 
 rs6 scaling factor        :     1.2810 
 s8 scaling factor         :     1.0000 
 rs8 scaling factor        :     1.0940 
 Damping factor alpha6     :    14.0000 
 Damping factor alpha8     :    16.0000 
 ad hoc parameters k1-k3   :    16.0000     1.3333    -4.0000 

 Edisp/kcal,au: -0.150052490130  -0.000239123838 
 E6   /kcal   :  -0.029593768 
 E8   /kcal   :  -0.120458722 
 % E8         :  80.277722975 

-------------------------   ----------------
Dispersion correction           -0.000239124
-------------------------   ----------------


-------------------------   --------------------
FINAL SINGLE POINT ENERGY      -115.738050931146
-------------------------   --------------------



           ************************************************************
           *        Program running with 4 parallel MPI-processes     *
           *              working on a common directory               *
           ************************************************************
------------------------------------------------------------------------------
                         ORCA SCF GRADIENT CALCULATION
------------------------------------------------------------------------------

Gradient of the Kohn-Sham DFT energy:
Kohn-Sham wavefunction type      ... RKS
Hartree-Fock exchange scaling    ...    0.196
Number of operators              ...    1
Number of atoms                  ...    6
Basis set dimensions             ...   86
Integral neglect threshold       ... 2.5e-11
Integral primitive cutoff        ... 2.5e-12

Nuclear repulsion gradient       ... done
One Electron Gradient            ... done
Pre-screening matrix             ... done
Starting the two electron gradient:
Two electron gradient done
Exchange-correlation gradient    ... done
Dispersion correction            ... done

------------------
CARTESIAN GRADIENT
------------------

   1   C   :   -0.000296565    0.000415416    0.000107484
   2   O   :    0.000008218   -0.000029671    0.000027860
   3   H   :    0.000000303    0.000009721   -0.000010063
   4   H   :    0.000005503    0.000018930    0.000005339
   5   H   :    0.000036123   -0.000003041    0.000021291
   6   H   :    0.000246418   -0.000411354   -0.000151911

Difference to translation invariance:
           :    0.0000000000   -0.0000000000    0.0000000000

Norm of the cartesian gradient     ...    0.0007274544
RMS gradient                       ...    0.0001714627
MAX gradient                       ...    0.0004154165

-------
TIMINGS
-------

Total SCF gradient time            ...        1.597 sec

One electron gradient       ....       0.005 sec  (  0.3%)
Prescreening matrices       ....       0.024 sec  (  1.5%)
Two electron gradient       ....       0.852 sec  ( 53.4%)
XC gradient                 ....       0.407 sec  ( 25.5%)
------------------------------------------------------------------------------
                         ORCA GEOMETRY RELAXATION STEP
------------------------------------------------------------------------------

Reading the OPT-File                    .... done
Getting information on internals        .... done
Copying old internal coords+grads       .... done
Making the new internal coordinates     .... (new redundants).... done
Validating the new internal coordinates .... (new redundants).... done
Calculating the B-matrix                .... done
Calculating the G,G- and P matrices     .... done
Transforming gradient to internals      .... done
Projecting the internal gradient        .... done
Number of atoms                         ....   6
Number of internal coordinates          ....  15
Current Energy                          ....  -115.738050931 Eh
Current gradient norm                   ....     0.000727454 Eh/bohr
Maximum allowed component of the step   ....  0.300
Current trust radius                    ....  0.300
Evaluating the initial hessian          ....  (Almloef) done
Projecting the Hessian                  .... done
Forming the augmented Hessian           .... done
Diagonalizing the augmented Hessian     .... done
Last element of RFO vector              ....  0.999999966
Lowest eigenvalues of augmented Hessian:
 -0.000000017  0.021176324  0.181903292  0.192381494  0.313460391
Length of the computed step             ....  0.000261643
The final length of the internal step   ....  0.000261643
Converting the step to cartesian space:
 Initial RMS(Int)=    0.0000675559
Transforming coordinates:
 Iter   0:  RMS(Cart)=    0.0000638346 RMS(Int)=    0.0000675563
 Iter   1:  RMS(Cart)=    0.0000000045 RMS(Int)=    0.0000000052
Imposing constraints:
 Iter   0:  RMS(Cart)=    0.0000000008 RMS(Int)=    0.0000000000
CONVERGED
done
Storing new coordinates                 .... done

                                .--------------------.
          ----------------------|Geometry convergence|-------------------------
          Item                value                   Tolerance       Converged
          ---------------------------------------------------------------------
          RMS gradient        0.0000189389            0.0001000000      YES
          MAX gradient        0.0000575460            0.0003000000      YES
          RMS step            0.0000675559            0.0020000000      YES
          MAX step            0.0001791083            0.0040000000      YES
          ........................................................
          Max(Bonds)      0.0000      Max(Angles)    0.01
          Max(Dihed)        0.01      Max(Improp)    0.00
          ---------------------------------------------------------------------

                    ***********************HURRAY********************
                    ***        THE OPTIMIZATION HAS CONVERGED     ***
                    *************************************************


    ---------------------------------------------------------------------------
                         Redundant Internal Coordinates

                          --- Optimized Parameters ---  
                            (Angstroem and degrees)

        Definition                    OldVal   dE/dq     Step     FinalVal
    ----------------------------------------------------------------------------
     1. B(O   1,C   0)                1.4116  0.000011 -0.0000    1.4116   
     2. B(H   2,O   1)                0.9575  0.000012 -0.0000    0.9575   
     3. B(H   3,C   0)                1.0960 -0.000008  0.0000    1.0961   
     4. B(H   4,C   0)                1.0895 -0.000000  0.0000    1.0895   
     5. B(H   5,C   0)                1.0952 -0.000503  0.0000    1.0952 C 
     6. A(O   1,C   0,H   4)          107.02 -0.000058    0.01    107.03   
     7. A(O   1,C   0,H   3)          112.23  0.000005   -0.00    112.23   
     8. A(O   1,C   0,H   5)          112.23 -0.000000    0.00    112.23   
     9. A(H   3,C   0,H   5)          108.77  0.000004   -0.00    108.77   
    10. A(H   4,C   0,H   5)          108.22  0.000015   -0.00    108.22   
    11. A(H   3,C   0,H   4)          108.22  0.000035   -0.01    108.21   
    12. A(C   0,O   1,H   2)          108.75 -0.000009    0.00    108.75   
    13. D(H   2,O   1,C   0,H   5)    -61.43 -0.000011    0.01    -61.42   
    14. D(H   2,O   1,C   0,H   3)     61.43 -0.000001    0.00     61.43   
    15. D(H   2,O   1,C   0,H   4)    180.00  0.000008    0.00    180.00   
    ----------------------------------------------------------------------------
                 *******************************************************
                 *** FINAL ENERGY EVALUATION AT THE STATIONARY POINT ***
                 ***               (AFTER    1 CYCLES)               ***
                 *******************************************************
---------------------------------
CARTESIAN COORDINATES (ANGSTROEM)
---------------------------------
  C      3.011146   -1.180583    0.598654
  O      4.394513   -1.127704    0.874401
  H      4.772005   -0.378655    0.412621
  H      2.806245   -1.318677   -0.469192
  H      2.611345   -2.039941    1.135984
  H      2.484977   -0.284822    0.945538

----------------------------
CARTESIAN COORDINATES (A.U.)
----------------------------
  NO LB      ZA    FRAG     MASS         X           Y           Z
   0 C     6.0000    0    12.011    5.690242   -2.230979    1.131293
   1 O     8.0000    0    15.999    8.304426   -2.131052    1.652379
   2 H     1.0000    0     1.008    9.017782   -0.715554    0.779741
   3 H     1.0000    0     1.008    5.303035   -2.491938   -0.886644
   4 H     1.0000    0     1.008    4.934727   -3.854930    2.146698
   5 H     1.0000    0     1.008    4.695926   -0.538236    1.786809

--------------------------------
INTERNAL COORDINATES (ANGSTROEM)
--------------------------------
 C      0   0   0     0.000000000000     0.00000000     0.00000000
 O      1   0   0     1.411571896068     0.00000000     0.00000000
 H      2   1   0     0.957504851667   108.75138928     0.00000000
 H      1   2   3     1.096061052458   112.22508684    61.43117315
 H      1   2   3     1.089522952676   107.02715585   179.99916371
 H      1   2   3     1.095249254825   112.22862866   298.57586187

---------------------------
INTERNAL COORDINATES (A.U.)
---------------------------
 C      0   0   0     0.000000000000     0.00000000     0.00000000
 O      1   0   0     2.667484301908     0.00000000     0.00000000
 H      2   1   0     1.809421941552   108.75138928     0.00000000
 H      1   2   3     2.071255215204   112.22508684    61.43117315
 H      1   2   3     2.058899997180   107.02715585   179.99916371
 H      1   2   3     2.069721140000   112.22862866   298.57586187

---------------------
BASIS SET INFORMATION
---------------------
There are 3 groups of distinct atoms

 Group   1 Type C   : 11s6p2d1f contracted to 5s3p2d1f pattern {62111/411/11/1}
 Group   2 Type O   : 11s6p2d1f contracted to 5s3p2d1f pattern {62111/411/11/1}
 Group   3 Type H   : 5s1p contracted to 3s1p pattern {311/1}

Atom   0C    basis set group =>   1
Atom   1O    basis set group =>   2
Atom   2H    basis set group =>   3
Atom   3H    basis set group =>   3
Atom   4H    basis set group =>   3
Atom   5H    basis set group =>   3


           ************************************************************
           *        Program running with 4 parallel MPI-processes     *
           *              working on a common directory               *
           ************************************************************
------------------------------------------------------------------------------
                           ORCA GTO INTEGRAL CALCULATION
------------------------------------------------------------------------------

                         BASIS SET STATISTICS AND STARTUP INFO

 # of primitive gaussian shells          ...   64
 # of primitive gaussian functions       ...  124
 # of contracted shells                  ...   38
 # of contracted basis functions         ...   86
 Highest angular momentum                ...    3
 Maximum contraction depth               ...    6
 Integral package used                   ... LIBINT
 Integral threshhold            Thresh   ...  2.500e-11
 Primitive cut-off              TCut     ...  2.500e-12


------------------------------ INTEGRAL EVALUATION ----------------------------


 * One electron integrals 
 Pre-screening matrix                    ... done
 Shell pair data                         ... done (   0.000 sec)



           ************************************************************
           *        Program running with 4 parallel MPI-processes     *
           *              working on a common directory               *
           ************************************************************
-------------------------------------------------------------------------------
                                 ORCA SCF
-------------------------------------------------------------------------------

------------
SCF SETTINGS
------------
Hamiltonian:
 Density Functional     Method          .... DFT(GTOs)
 Exchange Functional    Exchange        .... WB97X-D3
 Correlation Functional Correlation     .... WB97X-D3
 Gradients option       PostSCFGGA      .... off
 Hybrid DFT is turned on
   Fraction HF Exchange ScalHFX         ....  0.195728
   Scaling of DF-GGA-X  ScalDFX         ....  0.000000
   Scaling of DF-GGA-C  ScalDFC         ....  1.000000
   Scaling of DF-LDA-C  ScalLDAC        ....  1.000000
   Perturbative correction              ....  0.000000
   Density functional embedding theory  .... OFF
 Long-range corrected/Screened/Range-Separated Hybrid DFT is turned on
   Amount of maximum screened exact exchange              ....  0.804272
   Range separation parameter mu (erf(mu*r12)/r12)        ....  0.250000


General Settings:
 Integral files         IntName         .... 9_geo_opt
 Hartree-Fock type      HFTyp           .... RHF
 Total Charge           Charge          ....    0
 Multiplicity           Mult            ....    1
 Number of Electrons    NEL             ....   18
 Basis Dimension        Dim             ....   86
 Nuclear Repulsion      ENuc            ....     40.4412260454 Eh

Convergence Acceleration:
 DIIS                   CNVDIIS         .... on
   Start iteration      DIISMaxIt       ....    12
   Startup error        DIISStart       ....  0.200000
   # of expansion vecs  DIISMaxEq       ....     5
   Bias factor          DIISBfac        ....   1.050
   Max. coefficient     DIISMaxC        ....  10.000
 Newton-Raphson         CNVNR           .... off
 SOSCF                  CNVSOSCF        .... on
   Start iteration      SOSCFMaxIt      ....   150
   Startup grad/error   SOSCFStart      ....  0.003300
 Level Shifting         CNVShift        .... on
   Level shift para.    LevelShift      ....    0.2500
   Turn off err/grad.   ShiftErr        ....    0.0010
 Zerner damping         CNVZerner       .... off
 Static damping         CNVDamp         .... on
   Fraction old density DampFac         ....    0.7000
   Max. Damping (<1)    DampMax         ....    0.9800
   Min. Damping (>=0)   DampMin         ....    0.0000
   Turn off err/grad.   DampErr         ....    0.1000
 Fernandez-Rico         CNVRico         .... off

SCF Procedure:
 Maximum # iterations   MaxIter         ....   125
 SCF integral mode      SCFMode         .... Direct
   Integral package                     .... LIBINT
 Reset frequency        DirectResetFreq ....    20
 Integral Threshold     Thresh          ....  2.500e-11 Eh
 Primitive CutOff       TCut            ....  2.500e-12 Eh

Convergence Tolerance:
 Convergence Check Mode ConvCheckMode   .... Total+1el-Energy
 Convergence forced     ConvForced      .... 0
 Energy Change          TolE            ....  1.000e-08 Eh
 1-El. energy change                    ....  1.000e-05 Eh
 Orbital Gradient       TolG            ....  1.000e-05
 Orbital Rotation angle TolX            ....  1.000e-05
 DIIS Error             TolErr          ....  5.000e-07


Diagonalization of the overlap matrix:
Smallest eigenvalue                        ... 1.648e-03
Time for diagonalization                   ...    0.003 sec
Threshold for overlap eigenvalues          ... 1.000e-08
Number of eigenvalues below threshold      ... 0
Time for construction of square roots      ...    0.004 sec
Total time needed                          ...    0.007 sec

---------------------
INITIAL GUESS: MOREAD
---------------------
Guess MOs are being read from file: 9_geo_opt.gbw
Input Geometry matches current geometry (good)
Input basis set matches current basis set (good)
MOs were renormalized
MOs were reorthogonalized (Cholesky)
                      ------------------
                      INITIAL GUESS DONE (   0.0 sec)
                      ------------------
-------------------
DFT GRID GENERATION
-------------------

General Integration Accuracy     IntAcc      ...  5.010
Radial Grid Type                 RadialGrid  ... Gauss-Chebyshev
Angular Grid (max. acc.)         AngularGrid ... Lebedev-434
Angular grid pruning method      GridPruning ... 3 (G Style)
Weight generation scheme         WeightScheme... Becke
Basis function cutoff            BFCut       ...    1.0000e-11
Integration weight cutoff        WCut        ...    1.0000e-14
Grids for H and He will be reduced by one unit

# of grid points (after initial pruning)     ...  48308 (   0.0 sec)
# of grid points (after weights+screening)   ...  46677 (   0.0 sec)
nearest neighbour list constructed           ...    0.0 sec
Grid point re-assignment to atoms done       ...    0.0 sec
Grid point division into batches done        ...    0.3 sec
Reduced shell lists constructed in    0.3 sec

Total number of grid points                  ...    46677
Total number of batches                      ...      733
Average number of points per batch           ...       63
Average number of grid points per atom       ...     7780
Average number of shells per batch           ...    33.13 (87.18%)
Average number of basis functions per batch  ...    76.84 (89.35%)
Average number of large shells per batch     ...    30.61 (92.38%)
Average number of large basis fcns per batch ...    72.30 (94.10%)
Maximum spatial batch extension              ...  15.77, 14.99, 16.58 au
Average spatial batch extension              ...   0.40,  0.42,  0.42 au

Time for grid setup =    0.381 sec

--------------
SCF ITERATIONS
--------------
ITER       Energy         Delta-E        Max-DP      RMS-DP      [F,P]     Damp
               ***  Starting incremental Fock matrix formation  ***
                      *** Initiating the SOSCF procedure ***
                      *** Re-Reading the Fockian *** 
                      *** Removing any level shift *** 
ITER      Energy       Delta-E        Grad      Rot      Max-DP    RMS-DP
  0   -115.73770420 -115.7377042004  0.000007  0.000007  0.000010  0.000001
               *** Restarting incremental Fock matrix formation ***
  1   -115.73770420  -0.0000000018  0.000003  0.000003  0.000004  0.000000
                  ***Gradient check signals convergence***
              ***Rediagonalizing the Fockian in SOSCF/NRSCF***

               *****************************************************
               *                     SUCCESS                       *
               *           SCF CONVERGED AFTER   2 CYCLES          *
               *****************************************************

Setting up the final grid:

General Integration Accuracy     IntAcc      ...  5.340
Radial Grid Type                 RadialGrid  ... Gauss-Chebyshev
Angular Grid (max. acc.)         AngularGrid ... Lebedev-590
Angular grid pruning method      GridPruning ... 3 (G Style)
Weight generation scheme         WeightScheme... Becke
Basis function cutoff            BFCut       ...    1.0000e-11
Integration weight cutoff        WCut        ...    1.0000e-14
Grids for H and He will be reduced by one unit

# of grid points (after initial pruning)     ...  77324 (   0.0 sec)
# of grid points (after weights+screening)   ...  74512 (   0.0 sec)
nearest neighbour list constructed           ...    0.0 sec
Grid point re-assignment to atoms done       ...    0.0 sec
Grid point division into batches done        ...    0.8 sec
Reduced shell lists constructed in    0.8 sec

Total number of grid points                  ...    74512
Total number of batches                      ...     1167
Average number of points per batch           ...       63
Average number of grid points per atom       ...    12419
Average number of shells per batch           ...    32.94 (86.67%)
Average number of basis functions per batch  ...    76.38 (88.81%)
Average number of large shells per batch     ...    30.32 (92.06%)
Average number of large basis fcns per batch ...    71.54 (93.66%)
Maximum spatial batch extension              ...  13.18, 14.25, 15.48 au
Average spatial batch extension              ...   0.34,  0.36,  0.37 au

Final grid set up in    0.9 sec
Final integration                            ... done (   0.2 sec)
Change in XC energy                          ...    -0.000107610
Integrated number of electrons               ...    18.000000751
Previous integrated no of electrons          ...    18.000002281

----------------
TOTAL SCF ENERGY
----------------

Total Energy       :         -115.73781181 Eh           -3149.38597 eV

Components:
Nuclear Repulsion  :           40.44122605 Eh            1100.46171 eV
Electronic Energy  :         -156.17903786 Eh           -4249.84768 eV
One Electron Energy:         -237.30144636 Eh           -6457.30064 eV
Two Electron Energy:           81.12240850 Eh            2207.45296 eV

Virial components:
Potential Energy   :         -230.98949691 Eh           -6285.54376 eV
Kinetic Energy     :          115.25168510 Eh            3136.15779 eV
Virial Ratio       :            2.00421796


DFT components:
N(Alpha)           :        9.000000375538 electrons
N(Beta)            :        9.000000375538 electrons
N(Total)           :       18.000000751076 electrons
E(XC)              :      -10.655845903134 Eh       
DFET-embed. en.    :        0.000000000000 Eh       

---------------
SCF CONVERGENCE
---------------

  Last Energy change         ...   -2.5142e-10  Tolerance :   1.0000e-08
  Last MAX-Density change    ...    3.0853e-06  Tolerance :   1.0000e-07
  Last RMS-Density change    ...    1.6999e-07  Tolerance :   5.0000e-09
  Last Orbital Gradient      ...    2.3026e-06  Tolerance :   1.0000e-05
  Last Orbital Rotation      ...    2.3538e-06  Tolerance :   1.0000e-05

             **** THE GBW FILE WAS UPDATED (9_geo_opt.gbw) ****
             **** DENSITY FILE WAS UPDATED (9_geo_opt.scfp.tmp) ****
             **** ENERGY FILE WAS UPDATED (9_geo_opt.en.tmp) ****
----------------
ORBITAL ENERGIES
----------------

  NO   OCC          E(Eh)            E(eV) 
   0   2.0000     -19.228076      -523.2225 
   1   2.0000     -10.315019      -280.6859 
   2   2.0000      -1.136796       -30.9338 
   3   2.0000      -0.795401       -21.6440 
   4   2.0000      -0.611617       -16.6430 
   5   2.0000      -0.541836       -14.7441 
   6   2.0000      -0.526324       -14.3220 
   7   2.0000      -0.433797       -11.8042 
   8   2.0000      -0.373616       -10.1666 
   9   0.0000       0.116656         3.1744 
  10   0.0000       0.156700         4.2640 
  11   0.0000       0.202590         5.5128 
  12   0.0000       0.205179         5.5832 
  13   0.0000       0.226386         6.1603 
  14   0.0000       0.304347         8.2817 
  15   0.0000       0.313348         8.5266 
  16   0.0000       0.404516        11.0074 
  17   0.0000       0.452633        12.3168 
  18   0.0000       0.485014        13.1979 
  19   0.0000       0.535977        14.5847 
  20   0.0000       0.543664        14.7938 
  21   0.0000       0.567715        15.4483 
  22   0.0000       0.598611        16.2890 
  23   0.0000       0.603658        16.4264 
  24   0.0000       0.671328        18.2678 
  25   0.0000       0.779014        21.1980 
  26   0.0000       0.832194        22.6451 
  27   0.0000       0.861322        23.4378 
  28   0.0000       0.989582        26.9279 
  29   0.0000       1.013913        27.5900 
  30   0.0000       1.109757        30.1980 
  31   0.0000       1.382646        37.6237 
  32   0.0000       1.512881        41.1676 
  33   0.0000       1.553560        42.2745 
  34   0.0000       1.602798        43.6143 
  35   0.0000       1.612966        43.8910 
  36   0.0000       1.624382        44.2017 
  37   0.0000       1.660466        45.1836 
  38   0.0000       1.688164        45.9373 
  39   0.0000       1.774653        48.2908 
  40   0.0000       1.952113        53.1197 
  41   0.0000       2.030671        55.2574 
  42   0.0000       2.055236        55.9258 
  43   0.0000       2.094284        56.9884 
  44   0.0000       2.114642        57.5423 
  45   0.0000       2.268672        61.7337 
  46   0.0000       2.333523        63.4984 
  47   0.0000       2.345680        63.8292 
  48   0.0000       2.381017        64.7908 
  49   0.0000       2.429766        66.1173 
  50   0.0000       2.497902        67.9714 
  51   0.0000       2.596550        70.6557 
  52   0.0000       2.640195        71.8434 
  53   0.0000       2.707279        73.6688 
  54   0.0000       2.842194        77.3400 
  55   0.0000       2.871270        78.1312 
  56   0.0000       2.888365        78.5964 
  57   0.0000       2.992819        81.4388 
  58   0.0000       3.096198        84.2518 
  59   0.0000       3.173150        86.3458 
  60   0.0000       3.299399        89.7812 
  61   0.0000       3.408541        92.7511 
  62   0.0000       3.442007        93.6618 
  63   0.0000       3.488577        94.9290 
  64   0.0000       3.612626        98.3046 
  65   0.0000       3.645475        99.1984 
  66   0.0000       3.667085        99.7864 
  67   0.0000       4.005640       108.9990 
  68   0.0000       4.224538       114.9555 
  69   0.0000       4.273726       116.2940 
  70   0.0000       4.456178       121.2588 
  71   0.0000       4.564405       124.2038 
  72   0.0000       5.346135       145.4757 
  73   0.0000       5.425397       147.6326 
  74   0.0000       5.554409       151.1432 
  75   0.0000       5.826248       158.5403 
  76   0.0000       5.834159       158.7555 
  77   0.0000       5.985626       162.8772 
  78   0.0000       6.379637       173.5988 
  79   0.0000       6.530952       177.7163 
  80   0.0000       6.745000       183.5408 
  81   0.0000       6.804051       185.1476 
  82   0.0000       7.039415       191.5522 
  83   0.0000       7.215935       196.3556 
  84   0.0000      22.407271       609.7328 
  85   0.0000      43.664294      1188.1658 

                    ********************************
                    * MULLIKEN POPULATION ANALYSIS *
                    ********************************

-----------------------
MULLIKEN ATOMIC CHARGES
-----------------------
   0 C :   -0.150802
   1 O :   -0.477681
   2 H :    0.312996
   3 H :    0.098583
   4 H :    0.118192
   5 H :    0.098712
Sum of atomic charges:   -0.0000000

--------------------------------
MULLIKEN REDUCED ORBITAL CHARGES
--------------------------------
  0 C s       :     3.222950  s :     3.222950
      pz      :     1.047283  p :     2.826198
      px      :     0.702207
      py      :     1.076707
      dz2     :     0.011104  d :     0.094235
      dxz     :     0.032495
      dyz     :     0.002644
      dx2y2   :     0.012738
      dxy     :     0.035253
      f0      :     0.001356  f :     0.007419
      f+1     :     0.000956
      f-1     :     0.000175
      f+2     :     0.001464
      f-2     :     0.000123
      f+3     :     0.001361
      f-3     :     0.001985
  1 O s       :     3.792774  s :     3.792774
      pz      :     1.759427  p :     4.652646
      px      :     1.313664
      py      :     1.579555
      dz2     :     0.003136  d :     0.030576
      dxz     :     0.006477
      dyz     :     0.005835
      dx2y2   :     0.008937
      dxy     :     0.006192
      f0      :     0.000269  f :     0.001685
      f+1     :     0.000233
      f-1     :     0.000087
      f+2     :     0.000287
      f-2     :     0.000235
      f+3     :     0.000367
      f-3     :     0.000206
  2 H s       :     0.639309  s :     0.639309
      pz      :     0.017007  p :     0.047695
      px      :     0.012720
      py      :     0.017967
  3 H s       :     0.882053  s :     0.882053
      pz      :     0.012072  p :     0.019365
      px      :     0.003007
      py      :     0.004286
  4 H s       :     0.861589  s :     0.861589
      pz      :     0.006297  p :     0.020220
      px      :     0.004194
      py      :     0.009729
  5 H s       :     0.881900  s :     0.881900
      pz      :     0.004939  p :     0.019388
      px      :     0.004984
      py      :     0.009465


                     *******************************
                     * LOEWDIN POPULATION ANALYSIS *
                     *******************************

----------------------
LOEWDIN ATOMIC CHARGES
----------------------
   0 C :   -0.385065
   1 O :   -0.076085
   2 H :    0.165774
   3 H :    0.093414
   4 H :    0.108706
   5 H :    0.093257

-------------------------------
LOEWDIN REDUCED ORBITAL CHARGES
-------------------------------
  0 C s       :     2.862754  s :     2.862754
      pz      :     1.096634  p :     3.052322
      px      :     0.846060
      py      :     1.109628
      dz2     :     0.072412  d :     0.412961
      dxz     :     0.114043
      dyz     :     0.020707
      dx2y2   :     0.082152
      dxy     :     0.123647
      f0      :     0.007824  f :     0.057028
      f+1     :     0.007163
      f-1     :     0.000855
      f+2     :     0.012526
      f-2     :     0.004832
      f+3     :     0.011737
      f-3     :     0.012091
  1 O s       :     3.366255  s :     3.366255
      pz      :     1.699055  p :     4.633621
      px      :     1.381201
      py      :     1.553365
      dz2     :     0.006130  d :     0.071565
      dxz     :     0.017863
      dyz     :     0.008086
      dx2y2   :     0.019340
      dxy     :     0.020147
      f0      :     0.000483  f :     0.004645
      f+1     :     0.000622
      f-1     :     0.000072
      f+2     :     0.001050
      f-2     :     0.000560
      f+3     :     0.000890
      f-3     :     0.000967
  2 H s       :     0.675137  s :     0.675137
      pz      :     0.055756  p :     0.159089
      px      :     0.033906
      py      :     0.069427
  3 H s       :     0.846769  s :     0.846769
      pz      :     0.036175  p :     0.059818
      px      :     0.009713
      py      :     0.013930
  4 H s       :     0.831703  s :     0.831703
      pz      :     0.019209  p :     0.059591
      px      :     0.011610
      py      :     0.028772
  5 H s       :     0.846792  s :     0.846792
      pz      :     0.015651  p :     0.059951
      px      :     0.015239
      py      :     0.029061


                      *****************************
                      * MAYER POPULATION ANALYSIS *
                      *****************************

  NA   - Mulliken gross atomic population
  ZA   - Total nuclear charge
  QA   - Mulliken gross atomic charge
  VA   - Mayer's total valence
  BVA  - Mayer's bonded valence
  FA   - Mayer's free valence

  ATOM       NA         ZA         QA         VA         BVA        FA
  0 C      6.1508     6.0000    -0.1508     3.9350     3.9350    -0.0000
  1 O      8.4777     8.0000    -0.4777     1.8880     1.8880     0.0000
  2 H      0.6870     1.0000     0.3130     0.9136     0.9136    -0.0000
  3 H      0.9014     1.0000     0.0986     0.9596     0.9596    -0.0000
  4 H      0.8818     1.0000     0.1182     0.9598     0.9598     0.0000
  5 H      0.9013     1.0000     0.0987     0.9596     0.9596     0.0000

  Mayer bond orders larger than 0.1
B(  0-C ,  1-O ) :   0.9986 B(  0-C ,  3-H ) :   0.9756 B(  0-C ,  4-H ) :   0.9749 
B(  0-C ,  5-H ) :   0.9756 B(  1-O ,  2-H ) :   0.9002 

-------
TIMINGS
-------

Total SCF time: 0 days 0 hours 0 min 3 sec 

Total time                  ....       3.623 sec
Sum of individual times     ....       3.298 sec  ( 91.0%)

Fock matrix formation       ....       1.958 sec  ( 54.0%)
  XC integration            ....       0.625 sec  ( 31.9% of F)
    Basis function eval.    ....       0.138 sec  ( 22.1% of XC)
    Density eval.           ....       0.088 sec  ( 14.2% of XC)
    XC-Functional eval.     ....       0.226 sec  ( 36.2% of XC)
    XC-Potential eval.      ....       0.089 sec  ( 14.2% of XC)
Diagonalization             ....       0.014 sec  (  0.4%)
Density matrix formation    ....       0.001 sec  (  0.0%)
Population analysis         ....       0.038 sec  (  1.1%)
Initial guess               ....       0.004 sec  (  0.1%)
Orbital Transformation      ....       0.000 sec  (  0.0%)
Orbital Orthonormalization  ....       0.002 sec  (  0.0%)
DIIS solution               ....       0.000 sec  (  0.0%)
SOSCF solution              ....       0.006 sec  (  0.2%)
Grid generation             ....       1.277 sec  ( 35.3%)


-------------------------------------------------------------------------------
                          DFT DISPERSION CORRECTION                            
                                                                               
                              DFTD3 V3.1  Rev 1                                
                              USING zero damping                               
-------------------------------------------------------------------------------
The omegaB97X-D3 functional is recognized. Fit by Chai et al.
Active option DFTDOPT                   ...         3   

molecular C6(AA) [au] = 208.714801 


            DFT-D V3
 parameters
 s6 scaling factor         :     1.0000 
 rs6 scaling factor        :     1.2810 
 s8 scaling factor         :     1.0000 
 rs8 scaling factor        :     1.0940 
 Damping factor alpha6     :    14.0000 
 Damping factor alpha8     :    16.0000 
 ad hoc parameters k1-k3   :    16.0000     1.3333    -4.0000 

 Edisp/kcal,au: -0.150056820740  -0.000239130740 
 E6   /kcal   :  -0.029596695 
 E8   /kcal   :  -0.120460126 
 % E8         :  80.276341624 

-------------------------   ----------------
Dispersion correction           -0.000239131
-------------------------   ----------------


-------------------------   --------------------
FINAL SINGLE POINT ENERGY      -115.738050943582
-------------------------   --------------------

                                *** OPTIMIZATION RUN DONE ***

                            ***************************************
                            *     ORCA property calculations      *
                            ***************************************

                                    ---------------------
                                    Active property flags
                                    ---------------------
   (+) Dipole Moment


------------------------------------------------------------------------------
                       ORCA ELECTRIC PROPERTIES CALCULATION
------------------------------------------------------------------------------

Dipole Moment Calculation                       ... on
Quadrupole Moment Calculation                   ... off
Polarizability Calculation                      ... off
GBWName                                         ... 9_geo_opt.gbw
Electron density file                           ... 9_geo_opt.scfp.tmp
The origin for moment calculation is the CENTER OF MASS  = ( 7.032991, -2.139456  1.369502)

-------------
DIPOLE MOMENT
-------------
                                X             Y             Z
Electronic contribution:      1.75546      -0.02745       0.42012
Nuclear contribution   :     -2.06550       0.47526      -0.81765
                        -----------------------------------------
Total Dipole Moment    :     -0.31004       0.44782      -0.39752
                        -----------------------------------------
Magnitude (a.u.)       :      0.67431
Magnitude (Debye)      :      1.71395



--------------------
Rotational spectrum 
--------------------
 
Rotational constants in cm-1:     4.294662     0.833868     0.804947 
Rotational constants in MHz : 128750.717839 24998.727446 24131.712205 

 Dipole components along the rotational axes: 
x,y,z [a.u.] :    -0.333050     0.586316    -0.000765 
x,y,z [Debye]:    -0.846545     1.490297    -0.001944 

 
------------------------------------------------------------------------------
                      ORCA CHELPG CHARGES GENERATION
------------------------------------------------------------------------------

GBW file                           ... 9_geo_opt.gbw

Reading the GBW file               ... done

Grid spacing                       ...     0.300000
Point Cut-Off                      ...     2.800000
Van-der-Waals Radii                ...        COSMO
Total charge                       ...            0


Number of points X direction       ...           26
Number of points Y direction       ...           24
Number of points Z direction       ...           24
Maximum number of possible points  ...        14976
Final number of points             ...         5947


CHELPG Charges            
--------------------------------
  0   C   :       0.094143
  1   O   :      -0.607044
  2   H   :       0.403868
  3   H   :       0.014214
  4   H   :       0.080928
  5   H   :       0.013890
--------------------------------
Total charge:     0.000000
--------------------------------

CHELPG charges calculated...

Timings for individual parts in CHELPG calculation:
Grid generation                 ...        0.002 sec (=   0.000 min)
Potential calculation           ...        0.688 sec (=   0.011 min)
Fit to the potential            ...        0.007 sec (=   0.000 min)
------------------------------------------------------------------------------


Timings for individual modules:

Sum of individual times         ...       30.630 sec (=   0.510 min)
GTO integral calculation        ...        5.587 sec (=   0.093 min)  18.2 %
SCF iterations                  ...       16.121 sec (=   0.269 min)  52.6 %
SCF Gradient evaluation         ...        2.172 sec (=   0.036 min)   7.1 %
Geometry relaxation             ...        3.088 sec (=   0.051 min)  10.1 %
CHELPG charge generation        ...        3.662 sec (=   0.061 min)  12.0 %
                             ****ORCA TERMINATED NORMALLY****
TOTAL RUN TIME: 0 days 0 hours 0 minutes 35 seconds 430 msec
