LAMMPS data file via vdw_self_gen.py, on 2020-11-04 19:11:36.138969

1002 atoms
4 atom types
835 bonds
3 bond types
1169 angles
3 angle types
501 dihedrals
1 dihedral types

-22.3237117204148277  22.3237117204148277 xlo xhi
-22.3237117204148277  22.3237117204148277 ylo yhi
-22.3237117204148277  22.3237117204148277 zlo zhi

Masses

1  1.007940
2  1.007940
3  12.011000
4  15.999400

Atoms

1         0    3    0.0994540000000000  -3.4436771734180542   3.0832925047590494   15.7197142722659855 0 0 0
2         0    4   -0.5978230000000000  -2.9499886909492403   3.6026356474078560   16.9204200375395999 0 0 0
3         0    2    0.4025730000000000  -1.9621197232429328   3.6140298642692938   16.8272163548602727 0 0 0
4         0    1    0.0319320000000000  -4.5513366994902063   3.0488280968826951   15.7718156713964088 0 0 0
5         0    1    0.0319320000000000  -3.1564166002180838   3.7383432280771300   14.8688071169515617 0 0 0
6         0    1    0.0319320000000000  -3.0710711587513346   2.0474807046738279   15.5650767773354275 0 0 0
7         1    3    0.0994540000000000  -9.3449681644316396  -9.7397533693171354   3.4077683833296204  0 0 0
8         1    4   -0.5978230000000000  -10.4931847146006412 -9.5957631196628821   2.6229081956385265  0 0 0
9         1    2    0.4025730000000000  -10.4447446712835337 -8.6845970458338932   2.2328674284019412  0 0 0
10        1    1    0.0319320000000000  -9.3500364205629136  -10.7482854202698039  3.8699906154658441  0 0 0
11        1    1    0.0319320000000000  -8.4333194039957480  -9.6511603757705871   2.7779264245096593  0 0 0
12        1    1    0.0319320000000000  -9.3375767633350772  -8.9842708073552551   4.2231489987242607  0 0 0
13        2    3    0.0994540000000000  -3.0365515835500316  -9.2626785318396667  -9.4628138219329134  0 0 0
14        2    4   -0.5978230000000000  -3.1933637022376682  -10.6513636085023844 -9.5086795998828837  0 0 0
15        2    2    0.4025730000000000  -3.9619802659787755  -10.8194672749143344 -10.1133874527190066 0 0 0
16        2    1    0.0319320000000000  -2.1843469191201885  -9.0193295182939419  -8.7954754936238437  0 0 0
17        2    1    0.0319320000000000  -2.8082317507967844  -8.8663746851431426  -10.4759605976100936 0 0 0
18        2    1    0.0319320000000000  -3.9501358243864040  -8.7846165195160850  -9.0475131724408175  0 0 0
19        3    3    0.0994540000000000   9.6312112949790674  -9.2792502385368660  -2.9892825812102100  0 0 0
20        3    4   -0.5978230000000000   8.9411026783277734  -10.4376511876702285 -3.3594140316039343  0 0 0
21        3    2    0.4025730000000000   9.4126083471537552  -10.7932580122704795 -4.1568649972204366  0 0 0
22        3    1    0.0319320000000000   9.1413921097104929  -8.8392329003279677  -2.0963806354634285  0 0 0
23        3    1    0.0319320000000000   10.6822316111073707 -9.5245489931865137  -2.7231286970512691  0 0 0
24        3    1    0.0319320000000000   9.5952840969311008  -8.5298888062175013  -3.8095391035205739  0 0 0
25        4    3    0.0994540000000000  -9.6874123010476207  -9.8069583211393851   16.1803014272509280 0 0 0
26        4    4   -0.5978230000000000  -9.0689473802216085  -8.6156373165255964   15.7886442327891512 0 0 0
27        4    2    0.4025730000000000  -9.0928321271198165  -8.6089638220487910   14.7966327231094112 0 0 0
28        4    1    0.0319320000000000  -9.6870486930509045  -9.8644368874763515   17.2882310545743749 0 0 0
29        4    1    0.0319320000000000  -10.7428704649773472 -9.8265221039985011   15.8320509475752687 0 0 0
30        4    1    0.0319320000000000  -9.1247191717922629  -10.6813116870209335  15.7871898450501256 0 0 0
31        5    3    0.0994540000000000  -9.7447182501961045   9.8520128296547131  -3.0688799952466161  0 0 0
32        5    4   -0.5978230000000000  -9.6252247184794708   8.5717759082449607  -3.6182930213364308  0 0 0
33        5    2    0.4025730000000000  -8.6514206069594355   8.3922330387847186  -3.6828822031911028  0 0 0
34        5    1    0.0319320000000000  -10.8211731212737376  10.1034230031521197 -2.9748065553433216  0 0 0
35        5    1    0.0319320000000000  -9.2916702441659869   9.8803890682333169  -2.0541902065346869  0 0 0
36        5    1    0.0319320000000000  -9.2696231971348197   10.6039962901397296 -3.7355580644176909  0 0 0
37        6    3    0.0994540000000000  -15.8034058236736570  15.8655238780273002 -9.8841592277608790  0 0 0
38        6    4   -0.5978230000000000  -16.8209795756246017  15.9107776666690093 -8.9262261892586832  0 0 0
39        6    2    0.4025730000000000  -16.4295009658233724  16.3607750624528094 -8.1331633330764674  0 0 0
40        6    1    0.0319320000000000  -16.1913179716076918  15.3684215717484634 -10.7969710591245303 0 0 0
41        6    1    0.0319320000000000  -15.4851139046551562  16.8947606064616700 -10.1580480466805820 0 0 0
42        6    1    0.0319320000000000  -14.9427319889647769  15.2727914449900108 -9.5052622823084167  0 0 0
43        7    3    0.0994540000000000  -3.3958430551897782  -16.2081146273175953 -9.4436797973842541  0 0 0
44        7    4   -0.5978230000000000  -3.1408976770378185  -14.9675943337492079 -10.0363451394652277 0 0 0
45        7    2    0.4025730000000000  -2.1531392009335448  -14.8778280168011570 -10.0676029900910162 0 0 0
46        7    1    0.0319320000000000  -4.4933486659969653  -16.3589955058158907 -9.3842796993176254  0 0 0
47        7    1    0.0319320000000000  -2.9658694025112862  -17.0264535643456441 -10.0610104350057075 0 0 0
48        7    1    0.0319320000000000  -2.9855120444004584  -16.2340641823197700 -8.4109120769457224  0 0 0
49        8    3    0.0994540000000000  -3.1164653068471928   3.4169811325251818  -16.2096714863026818 0 0 0
50        8    4   -0.5978230000000000  -3.6069991680571545   3.0469731181869726  -14.9536418080577995 0 0 0
51        8    2    0.4025730000000000  -3.4444908222416122   2.0713192561563014  -14.8736891280218462 0 0 0
52        8    1    0.0319320000000000  -3.2747302467615564   4.5059872278528159  -16.3504901996655079 0 0 0
53        8    1    0.0319320000000000  -2.0254536905654463   3.2137095385968051  -16.2731331774249597 0 0 0
54        8    1    0.0319320000000000  -3.6664708115968896   2.8796397727517742  -17.0124244308764716 0 0 0
55        9    3    0.0994540000000000  -3.4429786245120857   15.6961932125382297  9.5866876446534484  0 0 0
56        9    4   -0.5978230000000000  -2.1495011751923916   16.1727692792534228  9.3523133861784764  0 0 0
57        9    2    0.4025730000000000  -2.1824030564638353   17.1490058705715818  9.5271888732551435  0 0 0
58        9    1    0.0319320000000000  -3.4611862627258119   14.6020634165768914  9.4040392162444402  0 0 0
59        9    1    0.0319320000000000  -3.7350762328046607   15.8765252401874317  10.6439541299984040 0 0 0
60        9    1    0.0319320000000000  -4.1634646943710720   16.1764932112217039  8.8896468878796444  0 0 0
61        10   3    0.0994540000000000  -3.2398384917319074  -2.9872080593067700  -9.8565315501991435  0 0 0
62        10   4   -0.5978230000000000  -3.3008853656355166  -3.2848376571336502  -8.4916763000044551  0 0 0
63        10   2    0.4025730000000000  -2.9013752700094999  -4.1875876358170121  -8.3909985394012310  0 0 0
64        10   1    0.0319320000000000  -3.6769239895892754  -1.9814809095328880  -10.0247015376240203 0 0 0
65        10   1    0.0319320000000000  -2.1829818144155038  -2.9683298062271803  -10.2005528419419438 0 0 0
66        10   1    0.0319320000000000  -3.8326051146881492  -3.7251659780523516  -10.4393693690387686 0 0 0
67        11   3    0.0994540000000000  -9.7090998655734690  -16.2324360658205187 -9.7240020601404566  0 0 0
68        11   4   -0.5978230000000000  -9.2961303031777796  -15.4556322664878998 -8.6371847110991737  0 0 0
69        11   2    0.4025730000000000  -8.9212755896284133  -14.6222584393697446 -9.0240617716807776  0 0 0
70        11   1    0.0319320000000000  -10.1388088045478781 -17.1820623113603368 -9.3440386428915883  0 0 0
71        11   1    0.0319320000000000  -10.4969366948005938 -15.7012338402839458 -10.3008819437369734 0 0 0
72        11   1    0.0319320000000000  -8.8415788804814248  -16.4794273070268176 -10.3736610086605943 0 0 0
73        12   3    0.0994540000000000   3.0078359131340382  -9.2930880051567026  -3.0514971999779754  0 0 0
74        12   4   -0.5978230000000000   3.3573621131849549  -10.6398372345445082 -3.1901979603267150  0 0 0
75        12   2    0.4025730000000000   4.0633068012290048  -10.6682861477396020 -3.8870010951936638  0 0 0
76        12   1    0.0319320000000000   2.2163517650147817  -9.2051732096827816  -2.2790751593080354  0 0 0
77        12   1    0.0319320000000000   3.8860003762127189  -8.6988117521121122  -2.7178566975610736  0 0 0
78        12   1    0.0319320000000000   2.6037530772943538  -8.8986337889738412  -4.0089819337023895  0 0 0
79        13   3    0.0994540000000000  -16.2017444372964619 -9.7880525782840131  -3.0768482289672443  0 0 0
80        13   4   -0.5978230000000000  -15.3135140920639561 -8.7142707182768024  -2.9620469954041746  0 0 0
81        13   2    0.4025730000000000  -14.8164927485850662 -8.6781827617311222  -3.8201666231477645  0 0 0
82        13   1    0.0319320000000000  -16.7858711682173869 -9.8729671880096568  -2.1374881019771879  0 0 0
83        13   1    0.0319320000000000  -16.9128141698287351 -9.6130388489250187  -3.9131514658450688  0 0 0
84        13   1    0.0319320000000000  -15.6426136143576624 -10.7373180429829507 -3.2249086307284154  0 0 0
85        14   3    0.0994540000000000   3.3631529590209444  -9.2725657686402148  -9.6664118475664367  0 0 0
86        14   4   -0.5978230000000000   3.1602549997981146  -10.6525718825014302 -9.5686596294387787  0 0 0
87        14   2    0.4025730000000000   2.3137584627584569  -10.7689706509433751 -9.0640837763848818  0 0 0
88        14   1    0.0319320000000000   4.3030961948134676  -9.0864760944378506  -10.2255981524265778 0 0 0
89        14   1    0.0319320000000000   2.5272774587103104  -8.7981620735217234  -10.2248976182341931 0 0 0
90        14   1    0.0319320000000000   3.4670699709685575  -8.8250836681649520  -8.6541791141586906  0 0 0
91        15   3    0.0994540000000000   2.9360060509983512   3.0337291182722161  -9.7642548001595184  0 0 0
92        15   4   -0.5978230000000000   3.6393918438490980   4.1173474048555780  -9.2293157497080980  0 0 0
93        15   2    0.4025730000000000   4.3514088066558259   3.7261309047759399  -8.6595058281193964  0 0 0
94        15   1    0.0319320000000000   2.1229707203061126   3.4186069617676362  -10.4136041464535403 0 0 0
95        15   1    0.0319320000000000   3.6096198539646851   2.4057820547146349  -10.3868140373591853 0 0 0
96        15   1    0.0319320000000000   2.4752127702957765   2.4330136016838377  -8.9503355764098220  0 0 0
97        16   3    0.0994540000000000  -15.8281710903330506 -2.8526280272598266   15.9433432712607974 0 0 0
98        16   4   -0.5978230000000000  -16.0209193561130263 -4.1244699825755884   16.4914364194002303 0 0 0
99        16   2    0.4025730000000000  -16.5204460840111516 -4.6431232664694200   15.8086672994031847 0 0 0
100       16   1    0.0319320000000000  -15.2705465613950420 -2.2284723114743183   16.6715578715531443 0 0 0
101       16   1    0.0319320000000000  -15.2255741456949316 -2.9210854425753365   15.0117620463527874 0 0 0
102       16   1    0.0319320000000000  -16.8073929928020576 -2.3648310157153540   15.7462833223791119 0 0 0
103       17   3    0.0994540000000000  -3.0224008883112559  -16.2561812439752558 -3.1373285651987595  0 0 0
104       17   4   -0.5978230000000000  -3.2058365831549986  -14.8771297493598578 -2.9969424072050406  0 0 0
105       17   2    0.4025730000000000  -4.0304282955421566  -14.6584250689367241 -3.5038138136025920  0 0 0
106       17   1    0.0319320000000000  -2.1073734851194774  -16.5547791721103117 -2.5856256509219171  0 0 0
107       17   1    0.0319320000000000  -3.8848983138961808  -16.8064911998465405 -2.7026905349617527  0 0 0
108       17   1    0.0319320000000000  -2.8836724800457825  -16.5200437961205822 -4.2082090741797913  0 0 0
109       18   3    0.0994540000000000  -2.8746499749720331   9.6084299693628132   16.1080387011967119 0 0 0
110       18   4   -0.5978230000000000  -4.1470216650520459   9.0566350064119927   15.9299023673255977 0 0 0
111       18   2    0.4025730000000000  -4.5252624863666862   9.4968925934389361   15.1250365461128684 0 0 0
112       18   1    0.0319320000000000  -2.4050305597107005   9.1473065669179459   17.0011427205736680 0 0 0
113       18   1    0.0319320000000000  -2.2327701526241519   9.3908066825644081   15.2269691961599669 0 0 0
114       18   1    0.0319320000000000  -2.9498752073442249   10.7037593195134662  16.2819606989804484 0 0 0
115       19   3    0.0994540000000000  -3.0618514222549815  -9.8917125286248151   9.4927772825136625  0 0 0
116       19   4   -0.5978230000000000  -2.9707539820348567  -8.5135903514831099   9.7109984399561782  0 0 0
117       19   2    0.4025730000000000  -3.8938926370913851  -8.2065612933905481   9.9065745965479763  0 0 0
118       19   1    0.0319320000000000  -2.0500097204870675  -10.2874498515813073  9.2683216773650194  0 0 0
119       19   1    0.0319320000000000  -3.4400138594913310  -10.4027106952251689  10.4046583705917772 0 0 0
120       19   1    0.0319320000000000  -3.7180884247102330  -10.1018054179046182  8.6204997712349414  0 0 0
121       20   3    0.0994540000000000   9.2474560510304791  -15.8271520828643180  9.4639819160255065  0 0 0
122       20   4   -0.5978230000000000   10.6030073496214996 -16.1266184789481954  9.2968277751712147  0 0 0
123       20   2    0.4025730000000000   10.9097941133103227 -16.4970335237926129  10.1648003716155095 0 0 0
124       20   1    0.0319320000000000   8.8529419645228060  -15.4069186871675914  8.5160502172263683  0 0 0
125       20   1    0.0319320000000000   8.6744784304726057  -16.7501186183226451  9.6995291400886945  0 0 0
126       20   1    0.0319320000000000   9.1161522292518331  -15.0652088392538968  10.2626407180822667 0 0 0
127       21   3    0.0994540000000000  -9.5015836971548406  -2.9537112183260863  -9.3079610796180638  0 0 0
128       21   4   -0.5978230000000000  -10.1951549894169364 -3.9993346345484713  -9.9250271103613876  0 0 0
129       21   2    0.4025730000000000  -9.7307651326783695  -4.1641127504842936  -10.7863586873205630 0 0 0
130       21   1    0.0319320000000000  -9.9834285990947471  -2.7283838507392764  -8.3343774700647160  0 0 0
131       21   1    0.0319320000000000  -8.4483069222121827  -3.2510470947828738  -9.1134039262207871  0 0 0
132       21   1    0.0319320000000000  -9.5445907976524751  -2.0380204971888420  -9.9367018646240375  0 0 0
133       22   3    0.0994540000000000   3.1327738456922183   15.6672627092940662  3.4044937993285291  0 0 0
134       22   4   -0.5978230000000000   3.7190557458656786   16.3376807538735171  2.3265545007911443  0 0 0
135       22   2    0.4025730000000000   3.3314331536918376   17.2511578160302150  2.3297537116317750  0 0 0
136       22   1    0.0319320000000000   3.5345331200128038   14.6339868639852426  3.4462369412651044  0 0 0
137       22   1    0.0319320000000000   3.3855375127318168   16.1768198796445368  4.3595409671527676  0 0 0
138       22   1    0.0319320000000000   2.0312766680754901   15.6061422075216782  3.2680301259005393  0 0 0
139       23   3    0.0994540000000000  -9.6757025320941281  -2.9276061734317009  -2.9726361494244888  0 0 0
140       23   4   -0.5978230000000000  -9.5894426611398220  -3.6130640199930051  -4.1883033438286539  0 0 0
141       23   2    0.4025730000000000  -9.0113140655058857  -4.4011571230728039  -4.0169019442183034  0 0 0
142       23   1    0.0319320000000000  -10.3153374841964958 -2.0316296881371190  -3.1101324866417919  0 0 0
143       23   1    0.0319320000000000  -10.1440345323021166 -3.5728912226380878  -2.1980876248943089  0 0 0
144       23   1    0.0319320000000000  -8.6679988629711087  -2.5882618187971294  -2.6485484970622961  0 0 0
145       24   3    0.0994540000000000  -16.1893599758653401 -15.7436568802788042 -3.3527464451332425  0 0 0
146       24   4   -0.5978230000000000  -14.8918712066351482 -16.1601592534736191 -3.0393958122240066  0 0 0
147       24   2    0.4025730000000000  -14.9934847060738008 -16.9116042824742756 -2.3993122886725597  0 0 0
148       24   1    0.0319320000000000  -16.1321104388117220 -14.8993001363124584 -4.0701000234512863  0 0 0
149       24   1    0.0319320000000000  -16.7544468038813683 -16.5707937210774894 -3.8345914382548250  0 0 0
150       24   1    0.0319320000000000  -16.7117770990818926 -15.3875359567326129 -2.4384640383339340  0 0 0
151       25   3    0.0994540000000000  -16.1340469206911834  3.3101467337945563   9.8444124924105338  0 0 0
152       25   4   -0.5978230000000000  -14.9673880532964390  2.9293408045043616   9.1743125866900090  0 0 0
153       25   2    0.4025730000000000  -15.2536951730713533  2.6452676789977714   8.2676524824992974  0 0 0
154       25   1    0.0319320000000000  -15.8681005574016023  3.6386172971565278   10.8701764017764848 0 0 0
155       25   1    0.0319320000000000  -16.6185861989639712  4.1630448740016694   9.3214980402846468  0 0 0
156       25   1    0.0319320000000000  -16.8312333269247247  2.4481926576149684   9.9257781345485885  0 0 0
157       26   3    0.0994540000000000   3.4214331080977307   9.7888219407114825   3.0343774017802181  0 0 0
158       26   4   -0.5978230000000000   2.7663796011460144   9.1920013963977105   4.1159734877639291  0 0 0
159       26   2    0.4025730000000000   2.1247155141455449   8.5449238297886048   3.7232144340871280  0 0 0
160       26   1    0.0319320000000000   4.1548989366293050   10.5259361475786708  3.4210329349244515  0 0 0
161       26   1    0.0319320000000000   3.9746805996193348   9.0233966394735265   2.4481228535250930  0 0 0
162       26   1    0.0319320000000000   2.6925022864319264   10.3287501842595670  2.3918889339890201  0 0 0
163       27   3    0.0994540000000000   3.0334748386977655   9.8286826364779802  -9.3816998731481949  0 0 0
164       27   4   -0.5978230000000000   3.1245052540344704   8.5482746792900617  -9.9361445313003838  0 0 0
165       27   2    0.4025730000000000   3.9962581812120503   8.5169760645907324  -10.4091869000954294 0 0 0
166       27   1    0.0319320000000000   2.0704538781234136   9.9169871719941138  -8.8380042640048657  0 0 0
167       27   1    0.0319320000000000   3.8585670541176325   9.9943503489906895  -8.6554560304312140  0 0 0
168       27   1    0.0319320000000000   3.0513508398845208   10.5985592368659916 -10.1833385392294655 0 0 0
169       28   3    0.0994540000000000   3.2585668154306284   3.5012099088513673   3.3464239060049654  0 0 0
170       28   4   -0.5978230000000000   2.8778562595146351   2.1562308821309673   3.3113405396272961  0 0 0
171       28   2    0.4025730000000000   2.9209269140992111   1.8851121503107406   2.3577465988066488  0 0 0
172       28   1    0.0319320000000000   3.2270903561645690   3.8560867672511447   4.3970825683612897  0 0 0
173       28   1    0.0319320000000000   4.2985639268482227   3.6178556815943494   2.9716535150397285  0 0 0
174       28   1    0.0319320000000000   2.5516057740125886   4.1181146559312953   2.7503629182299218  0 0 0
175       29   3    0.0994540000000000   9.4134550532180690  -16.2591170075846208 -3.1186243677224277  0 0 0
176       29   4   -0.5978230000000000   10.4607982058995450 -15.4212796028348755 -3.5138973822749602  0 0 0
177       29   2    0.4025730000000000   10.1060250387447077 -14.4961872371074847 -3.4587433548623698  0 0 0
178       29   1    0.0319320000000000   9.7597289780122711  -17.3121869854232848 -3.1627828061289338  0 0 0
179       29   1    0.0319320000000000   9.1145554625744136  -16.0356199220269602 -2.0715517047900640  0 0 0
180       29   1    0.0319320000000000   8.5492673997605397  -16.1486594753720425 -3.8090104302910945  0 0 0
181       30   3    0.0994540000000000  -3.4646546373813312   16.1685347333236180 -15.9817995144616205 0 0 0
182       30   4   -0.5978230000000000  -2.8572591919913872   14.9185874901195454 -15.8273889758766479 0 0 0
183       30   2    0.4025730000000000  -1.8807872981362210   15.0919205092296007 -15.7933278984259697 0 0 0
184       30   1    0.0319320000000000  -4.5645548019532765   16.0303692230256765 -16.0258664707749787 0 0 0
185       30   1    0.0319320000000000  -3.2313240767333400   16.8210478317760739 -15.1126409674659357 0 0 0
186       30   1    0.0319320000000000  -3.1360300398743015   16.6425904428747593 -16.9320264033441106 0 0 0
187       31   3    0.0994540000000000   3.3680644296884075   9.6440709342388811   9.2688647986613688  0 0 0
188       31   4   -0.5978230000000000   2.2297865879712719   9.5478363651891094   10.0752160962206858 0 0 0
189       31   2    0.4025730000000000   2.5407902591356040   9.1830821809455756   10.9440848743449468 0 0 0
190       31   1    0.0319320000000000   3.0737250462851158   10.0493469713874077  8.2789518540086764  0 0 0
191       31   1    0.0319320000000000   4.1055170865586161   10.3404417542120992  9.7237101943343127  0 0 0
192       31   1    0.0319320000000000   3.8167266364308476   8.6390519322364838   9.1130023206395609  0 0 0
193       32   3    0.0994540000000000   9.4828975721522326   2.8832768289618032   9.7295819056432329  0 0 0
194       32   4   -0.5978230000000000   9.7737738643621110   3.6967318785934120   8.6301175737256042  0 0 0
195       32   2    0.4025730000000000   9.9397071485210660   4.6034161342676807   8.9976657443381445  0 0 0
196       32   1    0.0319320000000000   9.2880021640401349   1.8515133402673700   9.3714033744692955  0 0 0
197       32   1    0.0319320000000000   10.3488456169976004  2.8512404718236000   10.4258295120662474 0 0 0
198       32   1    0.0319320000000000   8.5706037721364101   3.2484313921559811   10.2492320279670430 0 0 0
199       33   3    0.0994540000000000  -15.8307587970716490 -15.6147380211747642  3.2555151576227312  0 0 0
200       33   4   -0.5978230000000000  -16.2312987649192593 -16.6778442882388482  2.4403386421454329  0 0 0
201       33   2    0.4025730000000000  -16.4503896064373407 -17.4255526442419395  3.0548573721497019  0 0 0
202       33   1    0.0319320000000000  -15.5727681811711705 -14.7474018159073186  2.6136579102229947  0 0 0
203       33   1    0.0319320000000000  -16.6603669709350655 -15.3122825143261618  3.9307366162834718  0 0 0
204       33   1    0.0319320000000000  -14.9274679098147729 -15.8952309464602219  3.8395043476455286  0 0 0
205       34   3    0.0994540000000000   9.3661794878659013  -2.9823615384265993   9.7765758421919475  0 0 0
206       34   4   -0.5978230000000000   9.5946425383175278  -3.9474081460649435   8.7908630889194388  0 0 0
207       34   2    0.4025730000000000   10.5804219931520755 -4.0328008546170810   8.7157045647705687  0 0 0
208       34   1    0.0319320000000000   8.2719667072669782  -2.8477609085543669   9.9006445252347657  0 0 0
209       34   1    0.0319320000000000   9.7872456069871614  -3.3170788755255995   10.7493660053687190 0 0 0
210       34   1    0.0319320000000000   9.8033738046199144  -2.0071997228812526   9.4706761117241243  0 0 0
211       35   3    0.0994540000000000  -9.7125062808480092  -9.6824394013064392   9.2629238309143265  0 0 0
212       35   4   -0.5978230000000000  -9.6886264624844980  -8.9716463712055408   10.4668104430730136 0 0 0
213       35   2    0.4025730000000000  -8.7976905957529983  -9.1443760784266317   10.8681825666873877 0 0 0
214       35   1    0.0319320000000000  -10.6938028827377618 -9.5223576938211512   8.7707421541442283  0 0 0
215       35   1    0.0319320000000000  -8.9172439834081487  -9.3121183848193443   8.5802282201047841  0 0 0
216       35   1    0.0319320000000000  -9.5939599329781355  -10.7708922086304586  9.4549429232858060  0 0 0
217       36   3    0.0994540000000000   2.9225119500381416   15.8534155562674908 -15.7277101332509055 0 0 0
218       36   4   -0.5978230000000000   4.2576923459916589   16.0951383731609887 -16.0653539431371435 0 0 0
219       36   2    0.4025730000000000   4.2524489698721712   16.3722960280740359 -17.0181697665416323 0 0 0
220       36   1    0.0319320000000000   2.8721529846956630   15.5382133961125337 -14.6652019922264287 0 0 0
221       36   1    0.0319320000000000   2.3210994670804643   16.7810786921040886 -15.8434564323384670 0 0 0
222       36   1    0.0319320000000000   2.5087043283917385   15.0329081846301253 -16.3531579628546879 0 0 0
223       37   3    0.0994540000000000   9.8709508562551527  -15.7590014808127599 -15.9467843252964876 0 0 0
224       37   4   -0.5978230000000000   8.6691211556328565  -16.2281628380703999 -16.4858881593194937 0 0 0
225       37   2    0.4025730000000000   8.2697811904979588  -16.8153026809964921 -15.7927097918737189 0 0 0
226       37   1    0.0319320000000000   10.3609055416258382 -15.0933505907620500 -16.6868284292240929 0 0 0
227       37   1    0.0319320000000000   9.6762299562626399  -15.1692514121086397 -15.0248669203357377 0 0 0
228       37   1    0.0319320000000000   10.5568414379351196 -16.6079812275989198 -15.7359726042997181 0 0 0
229       38   3    0.0994540000000000  -9.2324203388676693   9.6750738245609238  -9.5105126452446527  0 0 0
230       38   4   -0.5978230000000000  -10.2529692965258441  8.7300235575008909  -9.6536900528639595  0 0 0
231       38   2    0.4025730000000000  -11.0808654812011209  9.2471878995050680  -9.8321019436098211  0 0 0
232       38   1    0.0319320000000000  -8.2786329132593792   9.1458014330711084  -9.3080965904017408  0 0 0
233       38   1    0.0319320000000000  -9.1129233035028925   10.2592192554492314 -10.4486744906163960 0 0 0
234       38   1    0.0319320000000000  -9.4460188048526472   10.3465241681223485 -8.6507544154729885  0 0 0
235       39   3    0.0994540000000000   3.0804012179040448  -3.1909844282243642   3.5284656477637655  0 0 0
236       39   4   -0.5978230000000000   3.9464711805770181  -3.4929050218212283   2.4730478502931321  0 0 0
237       39   2    0.4025730000000000   3.5355927049272204  -3.0972714436325410   1.6610411988072453  0 0 0
238       39   1    0.0319320000000000   3.4960082354327664  -3.6136722718255458   4.4662384191496010  0 0 0
239       39   1    0.0319320000000000   2.9928292297639199  -2.0898536528730700   3.6529455114663563  0 0 0
240       39   1    0.0319320000000000   2.0833074774648708  -3.6499232276930953   3.3528714185897566  0 0 0
241       40   3    0.0994540000000000   9.7764021178361773  -3.4642799201357359  -3.2759496935303440  0 0 0
242       40   4   -0.5978230000000000   9.3859397278258374  -2.3606684003433909  -2.5112793804744147  0 0 0
243       40   2    0.4025730000000000   8.5554341111488679  -2.0171596661418278  -2.9319502995967781  0 0 0
244       40   1    0.0319320000000000   10.7066406333511406 -3.8885689873357370  -2.8453140370792340  0 0 0
245       40   1    0.0319320000000000   8.9909968433294480  -4.2504220614770292  -3.2481618835355461  0 0 0
246       40   1    0.0319320000000000   9.9884167047180821  -3.1535110106361404  -4.3219547518535464  0 0 0
247       41   3    0.0994540000000000  -16.1956300899890451  9.8188968018074920  -3.2226865422747766  0 0 0
248       41   4   -0.5978230000000000  -15.3453691807359327  8.8075597044154090  -3.6802820120235897  0 0 0
249       41   2    0.4025730000000000  -14.8388922436219666  8.4964170843382600  -2.8856920333910940  0 0 0
250       41   1    0.0319320000000000  -16.7885624143291565  10.2038224699061182 -4.0777160538657311  0 0 0
251       41   1    0.0319320000000000  -16.9013965528732193  9.4159992298786754  -2.4642537368122248  0 0 0
252       41   1    0.0319320000000000  -15.6031997487999501  10.6611348478636092 -2.8039796677024240  0 0 0
253       42   3    0.0994540000000000  -9.7476227771220323  -3.4962595781947066   9.5560457996670944  0 0 0
254       42   4   -0.5978230000000000  -8.7343666227800014  -2.6363026400399163   9.9907019655125175  0 0 0
255       42   2    0.4025730000000000  -8.8779086631413815  -1.7802423956750735   9.5098086377703837  0 0 0
256       42   1    0.0319320000000000  -9.6322342544503208  -4.4743322434234436   10.0668014430700854 0 0 0
257       42   1    0.0319320000000000  -10.7448801048210125 -3.0822712287056735   9.8201377208574367  0 0 0
258       42   1    0.0319320000000000  -9.6668177158948225  -3.6652019600310410   8.4603345713320319  0 0 0
259       43   3    0.0994540000000000  -15.9156559902589940 -9.7755731026201129  -15.6578966842121137 0 0 0
260       43   4   -0.5978230000000000  -15.8045611006019904 -8.5799313768300358  -16.3743035109117443 0 0 0
261       43   2    0.4025730000000000  -16.1351632997437875 -8.7778860350985450  -17.2887530673075105 0 0 0
262       43   1    0.0319320000000000  -15.5564885114995199 -9.6080691737059194  -14.6216760837124511 0 0 0
263       43   1    0.0319320000000000  -16.9780577962405701 -10.0989403019442090 -15.6090179460088265 0 0 0
264       43   1    0.0319320000000000  -15.2831235320044065 -10.5634301480107489 -16.1214029381966171 0 0 0
265       44   3    0.0994540000000000  -9.5286328843470560   15.6681508061751806 -3.4094751912858214  0 0 0
266       44   4   -0.5978230000000000  -9.9914912112316685   16.3216061838732287 -2.2632212094427531  0 0 0
267       44   2    0.4025730000000000  -9.6486909281907316   17.2510032487630802 -2.3216242377990906  0 0 0
268       44   1    0.0319320000000000  -9.8862569268418756   14.6180758482964031 -3.3933629609759386  0 0 0
269       44   1    0.0319320000000000  -9.9315566886220186   16.1581004435380642 -4.3223031240291947  0 0 0
270       44   1    0.0319320000000000  -8.4172014989761994   15.6561136997033099 -3.4246233225370681  0 0 0
271       45   3    0.0994540000000000   3.5435619223466883  -15.9289250078695304 -3.1563882966986552  0 0 0