
                                 *****************
                                 * O   R   C   A *
                                 *****************

           --- An Ab Initio, DFT and Semiempirical electronic structure package ---

                  #######################################################
                  #                        -***-                        #
                  #          Department of theory and spectroscopy      #
                  #               Directorship: Frank Neese             #
                  #        Max Planck Institute fuer Kohlenforschung    #
                  #                Kaiser Wilhelm Platz 1               #
                  #                 D-45470 Muelheim/Ruhr               #
                  #                      Germany                        #
                  #                                                     #
                  #                  All rights reserved                #
                  #                        -***-                        #
                  #######################################################


                         Program Version 4.1.2  - RELEASE  -


 With contributions from (in alphabetic order):
   Daniel Aravena         : Magnetic Properties
   Michael Atanasov       : Ab Initio Ligand Field Theory
   Alexander A. Auer      : GIAO ZORA
   Ute Becker             : Parallelization
   Giovanni Bistoni       : ED, Open-shell LED
   Martin Brehm           : Molecular dynamics
   Dmytro Bykov           : SCF Hessian
   Vijay G. Chilkuri      : MRCI spin determinant printing
   Dipayan Datta          : RHF DLPNO-CCSD density
   Achintya Kumar Dutta   : EOM-CC, STEOM-CC
   Dmitry Ganyushin       : Spin-Orbit,Spin-Spin,Magnetic field MRCI
   Miquel Garcia          : C-PCM Hessian
   Yang Guo               : DLPNO-NEVPT2, CIM, IAO-localization
   Andreas Hansen         : Spin unrestricted coupled pair/coupled cluster methods
   Benjamin Helmich-Paris : CASSCF linear response (MC-RPA)
   Lee Huntington         : MR-EOM, pCC
   Robert Izsak           : Overlap fitted RIJCOSX, COSX-SCS-MP3, EOM
   Christian Kollmar      : KDIIS, OOCD, Brueckner-CCSD(T), CCSD density
   Simone Kossmann        : Meta GGA functionals, TD-DFT gradient, OOMP2, MP2 Hessian
   Martin Krupicka        : AUTO-CI
   Lucas Lang             : DCDCAS
   Dagmar Lenk            : GEPOL surface, SMD
   Dimitrios Liakos       : Extrapolation schemes; parallel MDCI
   Dimitrios Manganas     : ROCIS; embedding schemes
   Dimitrios Pantazis     : SARC Basis sets
   Taras Petrenko         : DFT Hessian,TD-DFT gradient, ASA, ECA, R-Raman, ABS, FL, XAS/XES, NRVS
   Peter Pinski           : DLPNO-MP2, DLPNO-MP2 Gradient
   Christoph Reimann      : Effective Core Potentials
   Marius Retegan         : Local ZFS, SOC
   Christoph Riplinger    : Optimizer, TS searches, QM/MM, DLPNO-CCSD(T), (RO)-DLPNO pert. Triples
   Tobias Risthaus        : Range-separated hybrids, TD-DFT gradient, RPA, STAB
   Michael Roemelt        : Restricted open shell CIS
   Masaaki Saitow         : Open-shell DLPNO
   Barbara Sandhoefer     : DKH picture change effects
   Avijit Sen             : IP-ROCIS
   Kantharuban Sivalingam : CASSCF convergence, NEVPT2, FIC-MRCI
   Bernardo de Souza      : ESD, SOC TD-DFT
   Georgi Stoychev        : AutoAux, RI-MP2 NMR
   Willem Van den Heuvel  : Paramagnetic NMR
   Boris Wezisla          : Elementary symmetry handling
   Frank Wennmohs         : Technical directorship


 We gratefully acknowledge several colleagues who have allowed us to
 interface, adapt or use parts of their codes:
   Stefan Grimme, W. Hujo, H. Kruse,             : VdW corrections, initial TS optimization,
                  C. Bannwarth                     DFT functionals, gCP, sTDA/sTD-DF
   Ed Valeev                                     : LibInt (2-el integral package), F12 methods
   Garnet Chan, S. Sharma, J. Yang, R. Olivares  : DMRG
   Ulf Ekstrom                                   : XCFun DFT Library
   Mihaly Kallay                                 : mrcc  (arbitrary order and MRCC methods)
   Andreas Klamt, Michael Diedenhofen            : otool_cosmo (COSMO solvation model)
   Jiri Pittner, Ondrej Demel                    : Mk-CCSD
   Frank Weinhold                                : gennbo (NPA and NBO analysis)
   Christopher J. Cramer and Donald G. Truhlar   : smd solvation model
   Lars Goerigk                                  : TD-DFT with DH, B97 family of functionals
   V. Asgeirsson, H. Jonsson                     : NEB implementation
   FAccTs GmbH                                   : IRC, NEB, NEB-TS, Multilevel


 Your calculation uses the libint2 library for the computation of 2-el integrals
 For citations please refer to: http://libint.valeyev.net

 This ORCA versions uses:
   CBLAS   interface :  Fast vector & matrix operations
   LAPACKE interface :  Fast linear algebra routines
   SCALAPACK package :  Parallel linear algebra routines


Your calculation utilizes the atom-pairwise dispersion correction
with the zero-damping scheme (D30)
Cite in your paper:
S.Grimme, J.Antony, S.Ehrlich and H.Krieg, J.Chem.Phys., 132, (2010), 154104 
   

XCFun DFT library Copyright 2009-2010 Ulf Ekstrom and contributors.
See http://admol.org/xcfun for more information. This is free soft-
ware; see the source code for copying conditions. There is ABSOLUTELY
NO WARRANTY; not even for MERCHANTABILITY or FITNESS FOR A PARTICULAR
PURPOSE. For details see the documentation. Scientific users of this 
library should cite U. Ekstrom, L. Visscher, R. Bast, A. J. Thorvald-
sen and K. Ruud; J.Chem.Theor.Comp. 2010, DOI: 10.1021/ct100117s
XCFun Version 0.99 
----- Orbital basis set information -----
Your calculation utilizes the basis: def2-TZVP
   F. Weigend and R. Ahlrichs, Phys. Chem. Chem. Phys. 7, 3297 (2005).

================================================================================
                                        WARNINGS
                       Please study these warnings very carefully!
================================================================================


INFO   : the flag for use of LIBINT has been found!

Your calculation utilizes the atom-pairwise dispersion correction
with the zero-damping scheme (D30)
Cite in your paper:
S.Grimme, J.Antony, S.Ehrlich and H.Krieg, J.Chem.Phys., 132, (2010), 154104 
   

XCFun DFT library Copyright 2009-2010 Ulf Ekstrom and contributors.
See http://admol.org/xcfun for more information. This is free soft-
ware; see the source code for copying conditions. There is ABSOLUTELY
NO WARRANTY; not even for MERCHANTABILITY or FITNESS FOR A PARTICULAR
PURPOSE. For details see the documentation. Scientific users of this 
library should cite U. Ekstrom, L. Visscher, R. Bast, A. J. Thorvald-
sen and K. Ruud; J.Chem.Theor.Comp. 2010, DOI: 10.1021/ct100117s
XCFun Version 0.99 
----- Orbital basis set information -----
Your calculation utilizes the basis: def2-TZVP
   F. Weigend and R. Ahlrichs, Phys. Chem. Chem. Phys. 7, 3297 (2005).

================================================================================
                                        WARNINGS
                       Please study these warnings very carefully!
================================================================================


WARNING: MOInp is set but Guess=PModel. MOInp will be ignored!
         To read the initial guess from a file you must also specify
         'MORead' in the simple input or 'Guess MORead' in the %scf block


INFO   : the flag for use of LIBINT has been found!

Your calculation utilizes the atom-pairwise dispersion correction
with the zero-damping scheme (D30)
Cite in your paper:
S.Grimme, J.Antony, S.Ehrlich and H.Krieg, J.Chem.Phys., 132, (2010), 154104 
   

XCFun DFT library Copyright 2009-2010 Ulf Ekstrom and contributors.
See http://admol.org/xcfun for more information. This is free soft-
ware; see the source code for copying conditions. There is ABSOLUTELY
NO WARRANTY; not even for MERCHANTABILITY or FITNESS FOR A PARTICULAR
PURPOSE. For details see the documentation. Scientific users of this 
library should cite U. Ekstrom, L. Visscher, R. Bast, A. J. Thorvald-
sen and K. Ruud; J.Chem.Theor.Comp. 2010, DOI: 10.1021/ct100117s
XCFun Version 0.99 
----- Orbital basis set information -----
Your calculation utilizes the basis: def2-TZVP
   F. Weigend and R. Ahlrichs, Phys. Chem. Chem. Phys. 7, 3297 (2005).

================================================================================
                                        WARNINGS
                       Please study these warnings very carefully!
================================================================================


WARNING: MOInp is set but Guess=PModel. MOInp will be ignored!
         To read the initial guess from a file you must also specify
         'MORead' in the simple input or 'Guess MORead' in the %scf block


INFO   : the flag for use of LIBINT has been found!

================================================================================
                                       INPUT FILE
================================================================================
NAME = 9-194.in
|  1> #Run DFT-D3 single point of the dimer
|  2> ! wB97X-D3 def2-TZVP TIGHTSCF CHELPG PMODEL PAL8
|  3> 
|  4> %base "9-194_DFT_AB"
|  5> 
|  6> %scf
|  7> MaxIter 1000
|  8> end
|  9> 
| 10> * xyz 0 1
| 11>   C                      -4.842045            7.838323             1.272649            
| 12>   O                      -4.123788            7.309092             2.305676            
| 13>   H                      -3.199384            7.520210             2.117756            
| 14>   H                      -5.833426            7.371464             1.154109            
| 15>   H                      -4.977565            8.933817             1.339982            
| 16>   H                      -4.219223            7.709401             0.386398            
| 17>   C                      -0.676098            8.392767             1.470357            
| 18>   O                      -1.450425            7.890329             2.485881            
| 19>   H                      -0.899939            7.273258             2.924053            
| 20>   H                      -1.271635            8.689298             0.529120            
| 21>   H                      -0.158063            9.324743             1.715549            
| 22>   H                      0.009115             7.665358             1.069174            
| 23> *
| 24> 
| 25> #Run DFT-D3 single point of the molecule with dimer basis set
| 26> $new_job
| 27> %base "9-194_DFT_A"
| 28> ! wB97X-D3 def2-TZVP TIGHTSCF CHELPG PMODEL
| 29> 
| 30> %scf
| 31> MaxIter 1000
| 32> end
| 33> 
| 34> * xyz 0 1
| 35>   C                      -4.842045            7.838323             1.272649            
| 36>   O                      -4.123788            7.309092             2.305676            
| 37>   H                      -3.199384            7.520210             2.117756            
| 38>   H                      -5.833426            7.371464             1.154109            
| 39>   H                      -4.977565            8.933817             1.339982            
| 40>   H                      -4.219223            7.709401             0.386398            
| 41>   C                    : -0.676098            8.392767             1.470357            
| 42>   O                    : -1.450425            7.890329             2.485881            
| 43>   H                    : -0.899939            7.273258             2.924053            
| 44>   H                    : -1.271635            8.689298             0.529120            
| 45>   H                    : -0.158063            9.324743             1.715549            
| 46>   H                    : 0.009115             7.665358             1.069174            
| 47> *
| 48> 
| 49> #Run DFT-D3 single point of the particle with dimer basis set
| 50> $new_job
| 51> %base "9-194_DFT_B"
| 52> ! wB97X-D3 def2-TZVP TIGHTSCF CHELPG PMODEL
| 53> 
| 54> %scf
| 55> MaxIter 1000
| 56> end
| 57> 
| 58> * xyz 0 1
| 59>   C                    : -4.842045            7.838323             1.272649            
| 60>   O                    : -4.123788            7.309092             2.305676            
| 61>   H                    : -3.199384            7.520210             2.117756            
| 62>   H                    : -5.833426            7.371464             1.154109            
| 63>   H                    : -4.977565            8.933817             1.339982            
| 64>   H                    : -4.219223            7.709401             0.386398            
| 65>   C                      -0.676098            8.392767             1.470357            
| 66>   O                      -1.450425            7.890329             2.485881            
| 67>   H                      -0.899939            7.273258             2.924053            
| 68>   H                      -1.271635            8.689298             0.529120            
| 69>   H                      -0.158063            9.324743             1.715549            
| 70>   H                      0.009115             7.665358             1.069174            
| 71> *
| 72> 
| 73>                          ****END OF INPUT****
================================================================================


                 $$$$$$$$$$$$$$$$$$$$$$$$$$$$$$$$$$$$$$$$$$$$$$ 
                 $ THERE ARE  3 JOBS TO BE PROCESSED THIS RUN $
                 $$$$$$$$$$$$$$$$$$$$$$$$$$$$$$$$$$$$$$$$$$$$$$ 




                 $$$$$$$$$$$$$$$$  JOB NUMBER  1 $$$$$$$$$$$$$$


                       ****************************
                       * Single Point Calculation *
                       ****************************

---------------------------------
CARTESIAN COORDINATES (ANGSTROEM)
---------------------------------
  C     -4.842045    7.838323    1.272649
  O     -4.123788    7.309092    2.305676
  H     -3.199384    7.520210    2.117756
  H     -5.833426    7.371464    1.154109
  H     -4.977565    8.933817    1.339982
  H     -4.219223    7.709401    0.386398
  C     -0.676098    8.392767    1.470357
  O     -1.450425    7.890329    2.485881
  H     -0.899939    7.273258    2.924053
  H     -1.271635    8.689298    0.529120
  H     -0.158063    9.324743    1.715549
  H      0.009115    7.665358    1.069174

----------------------------
CARTESIAN COORDINATES (A.U.)
----------------------------
  NO LB      ZA    FRAG     MASS         X           Y           Z
   0 C     6.0000    0    12.011   -9.150139   14.812284    2.404958
   1 O     8.0000    0    15.999   -7.792830   13.812182    4.357096
   2 H     1.0000    0     1.008   -6.045960   14.211137    4.001979
   3 H     1.0000    0     1.008  -11.023578   13.930048    2.180950
   4 H     1.0000    0     1.008   -9.406235   16.882467    2.532199
   5 H     1.0000    0     1.008   -7.973176   14.568657    0.730186
   6 C     6.0000    0    12.011   -1.277640   15.860031    2.778572
   7 O     8.0000    0    15.999   -2.740906   14.910561    4.697634
   8 H     1.0000    0     1.008   -1.700638   13.744466    5.525659
   9 H     1.0000    0     1.008   -2.403042   16.420394    0.999892
  10 H     1.0000    0     1.008   -0.298696   17.621211    3.241918
  11 H     1.0000    0     1.008    0.017225   14.485427    2.020446

--------------------------------
INTERNAL COORDINATES (ANGSTROEM)
--------------------------------
 C      0   0   0     0.000000000000     0.00000000     0.00000000
 O      1   0   0     1.364962765843     0.00000000     0.00000000
 H      2   1   0     0.966647552906   105.74793349     0.00000000
 H      1   2   3     1.102200228925   112.98365319   158.74263950
 H      1   2   3     1.105896246185   113.73348576   282.89076250
 H      1   2   3     1.090856984563   105.58120047    35.89575800
 C      3   2   1     2.747262896274   173.47018944    36.63777436
 O      7   3   2     1.372339331707    36.01121203   127.01803221
 H      8   7   3     0.935845156434   104.83182645   138.79021535
 H      7   3   2     1.152615305511    78.43891006   315.93143418
 H      7   3   2     1.094101751514   130.73893020    51.94021520
 H      7   3   2     1.076841914182   117.23798755   218.90203313

---------------------------
INTERNAL COORDINATES (A.U.)
---------------------------
 C      0   0   0     0.000000000000     0.00000000     0.00000000
 O      1   0   0     2.579405810444     0.00000000     0.00000000
 H      2   1   0     1.826699143018   105.74793349     0.00000000
 H      1   2   3     2.082856577413   112.98365319   158.74263950
 H      1   2   3     2.089841037820   113.73348576   282.89076250
 H      1   2   3     2.061420952098   105.58120047    35.89575800
 C      3   2   1     5.191574491842   173.47018944    36.63777436
 O      7   3   2     2.593345499734    36.01121203   127.01803221
 H      8   7   3     1.768491049417   104.83182645   138.79021535
 H      7   3   2     2.178127265182    78.43891006   315.93143418
 H      7   3   2     2.067552673004   130.73893020    51.94021520
 H      7   3   2     2.034936307331   117.23798755   218.90203313

---------------------
BASIS SET INFORMATION
---------------------
There are 3 groups of distinct atoms

 Group   1 Type C   : 11s6p2d1f contracted to 5s3p2d1f pattern {62111/411/11/1}
 Group   2 Type O   : 11s6p2d1f contracted to 5s3p2d1f pattern {62111/411/11/1}
 Group   3 Type H   : 5s1p contracted to 3s1p pattern {311/1}

Atom   0C    basis set group =>   1
Atom   1O    basis set group =>   2
Atom   2H    basis set group =>   3
Atom   3H    basis set group =>   3
Atom   4H    basis set group =>   3
Atom   5H    basis set group =>   3
Atom   6C    basis set group =>   1
Atom   7O    basis set group =>   2
Atom   8H    basis set group =>   3
Atom   9H    basis set group =>   3
Atom  10H    basis set group =>   3
Atom  11H    basis set group =>   3


           ************************************************************
           *        Program running with 8 parallel MPI-processes     *
           *              working on a common directory               *
           ************************************************************
------------------------------------------------------------------------------
                           ORCA GTO INTEGRAL CALCULATION
------------------------------------------------------------------------------

                         BASIS SET STATISTICS AND STARTUP INFO

 # of primitive gaussian shells          ...  128
 # of primitive gaussian functions       ...  248
 # of contracted shells                  ...   76
 # of contracted basis functions         ...  172
 Highest angular momentum                ...    3
 Maximum contraction depth               ...    6
 Integral package used                   ... LIBINT
 Integral threshhold            Thresh   ...  2.500e-11
 Primitive cut-off              TCut     ...  2.500e-12


------------------------------ INTEGRAL EVALUATION ----------------------------


 * One electron integrals 
 Pre-screening matrix                    ... done
 Shell pair data                         ... done (   0.001 sec)



           ************************************************************
           *        Program running with 8 parallel MPI-processes     *
           *              working on a common directory               *
           ************************************************************
-------------------------------------------------------------------------------
                                 ORCA SCF
-------------------------------------------------------------------------------

------------
SCF SETTINGS
------------
Hamiltonian:
 Density Functional     Method          .... DFT(GTOs)
 Exchange Functional    Exchange        .... WB97X-D3
 Correlation Functional Correlation     .... WB97X-D3
 Gradients option       PostSCFGGA      .... off
 Hybrid DFT is turned on
   Fraction HF Exchange ScalHFX         ....  0.195728
   Scaling of DF-GGA-X  ScalDFX         ....  0.000000
   Scaling of DF-GGA-C  ScalDFC         ....  1.000000
   Scaling of DF-LDA-C  ScalLDAC        ....  1.000000
   Perturbative correction              ....  0.000000
   Density functional embedding theory  .... OFF
 Long-range corrected/Screened/Range-Separated Hybrid DFT is turned on
   Amount of maximum screened exact exchange              ....  0.804272
   Range separation parameter mu (erf(mu*r12)/r12)        ....  0.250000


General Settings:
 Integral files         IntName         .... 9-194_DFT_AB
 Hartree-Fock type      HFTyp           .... RHF
 Total Charge           Charge          ....    0
 Multiplicity           Mult            ....    1
 Number of Electrons    NEL             ....   36
 Basis Dimension        Dim             ....  172
 Nuclear Repulsion      ENuc            ....    131.1989164098 Eh

Convergence Acceleration:
 DIIS                   CNVDIIS         .... on
   Start iteration      DIISMaxIt       ....    12
   Startup error        DIISStart       ....  0.200000
   # of expansion vecs  DIISMaxEq       ....     5
   Bias factor          DIISBfac        ....   1.050
   Max. coefficient     DIISMaxC        ....  10.000
 Newton-Raphson         CNVNR           .... off
 SOSCF                  CNVSOSCF        .... on
   Start iteration      SOSCFMaxIt      ....   150
   Startup grad/error   SOSCFStart      ....  0.003300
 Level Shifting         CNVShift        .... on
   Level shift para.    LevelShift      ....    0.2500
   Turn off err/grad.   ShiftErr        ....    0.0010
 Zerner damping         CNVZerner       .... off
 Static damping         CNVDamp         .... on
   Fraction old density DampFac         ....    0.7000
   Max. Damping (<1)    DampMax         ....    0.9800
   Min. Damping (>=0)   DampMin         ....    0.0000
   Turn off err/grad.   DampErr         ....    0.1000
 Fernandez-Rico         CNVRico         .... off

SCF Procedure:
 Maximum # iterations   MaxIter         ....  1000
 SCF integral mode      SCFMode         .... Direct
   Integral package                     .... LIBINT
 Reset frequency        DirectResetFreq ....    20
 Integral Threshold     Thresh          ....  2.500e-11 Eh
 Primitive CutOff       TCut            ....  2.500e-12 Eh

Convergence Tolerance:
 Convergence Check Mode ConvCheckMode   .... Total+1el-Energy
 Convergence forced     ConvForced      .... 0
 Energy Change          TolE            ....  1.000e-08 Eh
 1-El. energy change                    ....  1.000e-05 Eh
 Orbital Gradient       TolG            ....  1.000e-05
 Orbital Rotation angle TolX            ....  1.000e-05
 DIIS Error             TolErr          ....  5.000e-07


Diagonalization of the overlap matrix:
Smallest eigenvalue                        ... 1.543e-03
Time for diagonalization                   ...    0.004 sec
Threshold for overlap eigenvalues          ... 1.000e-08
Number of eigenvalues below threshold      ... 0
Time for construction of square roots      ...    0.005 sec
Total time needed                          ...    0.009 sec

-------------------
DFT GRID GENERATION
-------------------

General Integration Accuracy     IntAcc      ...  4.340
Radial Grid Type                 RadialGrid  ... Gauss-Chebyshev
Angular Grid (max. acc.)         AngularGrid ... Lebedev-110
Angular grid pruning method      GridPruning ... 3 (G Style)
Weight generation scheme         WeightScheme... Becke
Basis function cutoff            BFCut       ...    1.0000e-11
Integration weight cutoff        WCut        ...    1.0000e-14
Grids for H and He will be reduced by one unit

# of grid points (after initial pruning)     ...  13096 (   0.0 sec)
# of grid points (after weights+screening)   ...  12492 (   0.0 sec)
nearest neighbour list constructed           ...    0.0 sec
Grid point re-assignment to atoms done       ...    0.0 sec
Grid point division into batches done        ...    0.0 sec
Reduced shell lists constructed in    0.0 sec

Total number of grid points                  ...    12492
Total number of batches                      ...      201
Average number of points per batch           ...       62
Average number of grid points per atom       ...     1041
Average number of shells per batch           ...    51.74 (68.08%)
Average number of basis functions per batch  ...   115.30 (67.03%)
Average number of large shells per batch     ...    41.59 (80.39%)
Average number of large basis fcns per batch ...    92.19 (79.96%)
Maximum spatial batch extension              ...  10.79, 17.06, 14.49 au
Average spatial batch extension              ...   0.37,  0.46,  0.45 au

Time for grid setup =    0.051 sec

------------------------------
INITIAL GUESS: MODEL POTENTIAL
------------------------------
Loading Hartree-Fock densities                     ... done
Calculating cut-offs                               ... done
Setting up the integral package                    ... done
Initializing the effective Hamiltonian             ... done
Starting the Coulomb interaction                   ... done (   0.0 sec)
Reading the grid                                   ... done
Mapping shells                                     ... done
Starting the XC term evaluation                    ... done (   0.0 sec)
  promolecular density results
     # of electrons  =     36.000232476
     EX              =    -28.900437645
     EC              =     -1.162178250
     EX+EC           =    -30.062615895
Transforming the Hamiltonian                       ... done (   0.0 sec)
Diagonalizing the Hamiltonian                      ... done (   0.0 sec)
Back transforming the eigenvectors                 ... done (   0.0 sec)
Now organizing SCF variables                       ... done
                      ------------------
                      INITIAL GUESS DONE (   0.2 sec)
                      ------------------
--------------
SCF ITERATIONS
--------------
ITER       Energy         Delta-E        Max-DP      RMS-DP      [F,P]     Damp
               ***  Starting incremental Fock matrix formation  ***
  0   -231.3005578397   0.000000000000 0.03794207  0.00107181  0.2441663 0.7000
  1   -231.3712939214  -0.070736081693 0.02221845  0.00077037  0.1218726 0.7000
                               ***Turning on DIIS***
  2   -231.4042984861  -0.033004564706 0.03565727  0.00140868  0.0465136 0.0000
  3   -231.4578076856  -0.053509199466 0.01833710  0.00050215  0.0617997 0.0000
  4   -231.4664931139  -0.008685428335 0.00418033  0.00010005  0.0062307 0.0000
                      *** Initiating the SOSCF procedure ***
                           *** Shutting down DIIS ***
                      *** Re-Reading the Fockian *** 
                      *** Removing any level shift *** 
ITER      Energy       Delta-E        Grad      Rot      Max-DP    RMS-DP
  5   -231.46666714  -0.0001740286  0.000431  0.000431  0.000842  0.000038
               *** Restarting incremental Fock matrix formation ***
  6   -231.46668501  -0.0000178693  0.000163  0.000321  0.000615  0.000024
  7   -231.46668696  -0.0000019488  0.000063  0.000192  0.000329  0.000012
  8   -231.46668713  -0.0000001692  0.000032  0.000026  0.000047  0.000002
  9   -231.46668717  -0.0000000383  0.000012  0.000007  0.000020  0.000001
 10   -231.46668717  -0.0000000024  0.000004  0.000004  0.000007  0.000000
                  ***Gradient check signals convergence***
              ***Rediagonalizing the Fockian in SOSCF/NRSCF***

               *****************************************************
               *                     SUCCESS                       *
               *           SCF CONVERGED AFTER  11 CYCLES          *
               *****************************************************

Setting up the final grid:

General Integration Accuracy     IntAcc      ...  4.670
Radial Grid Type                 RadialGrid  ... Gauss-Chebyshev
Angular Grid (max. acc.)         AngularGrid ... Lebedev-302
Angular grid pruning method      GridPruning ... 3 (G Style)
Weight generation scheme         WeightScheme... Becke
Basis function cutoff            BFCut       ...    1.0000e-11
Integration weight cutoff        WCut        ...    1.0000e-14
Grids for H and He will be reduced by one unit

# of grid points (after initial pruning)     ...  52000 (   0.0 sec)
# of grid points (after weights+screening)   ...  49013 (   0.0 sec)
nearest neighbour list constructed           ...    0.0 sec
Grid point re-assignment to atoms done       ...    0.0 sec
Grid point division into batches done        ...    0.2 sec
Reduced shell lists constructed in    0.2 sec

Total number of grid points                  ...    49013
Total number of batches                      ...      772
Average number of points per batch           ...       63
Average number of grid points per atom       ...     4084
Average number of shells per batch           ...    49.00 (64.47%)
Average number of basis functions per batch  ...   108.22 (62.92%)
Average number of large shells per batch     ...    39.36 (80.32%)
Average number of large basis fcns per batch ...    86.87 (80.27%)
Maximum spatial batch extension              ...  13.04, 16.05, 13.34 au
Average spatial batch extension              ...   0.26,  0.28,  0.27 au

Final grid set up in    0.2 sec
Final integration                            ... done (   0.1 sec)
Change in XC energy                          ...    -0.000689860
Integrated number of electrons               ...    35.999947143
Previous integrated no of electrons          ...    36.002556189

----------------
TOTAL SCF ENERGY
----------------

Total Energy       :         -231.46737703 Eh           -6298.54754 eV

Components:
Nuclear Repulsion  :          131.19891641 Eh            3570.10402 eV
Electronic Energy  :         -362.66629344 Eh           -9868.65156 eV
One Electron Energy:         -575.05146536 Eh          -15647.94590 eV
Two Electron Energy:          212.38517191 Eh            5779.29434 eV

Virial components:
Potential Energy   :         -462.14651978 Eh          -12575.64614 eV
Kinetic Energy     :          230.67914274 Eh            6277.09860 eV
Virial Ratio       :            2.00341702


DFT components:
N(Alpha)           :       17.999973571564 electrons
N(Beta)            :       17.999973571564 electrons
N(Total)           :       35.999947143128 electrons
E(XC)              :      -21.348761347301 Eh       
DFET-embed. en.    :        0.000000000000 Eh       

---------------
SCF CONVERGENCE
---------------

  Last Energy change         ...   -7.5329e-10  Tolerance :   1.0000e-08
  Last MAX-Density change    ...    2.6547e-06  Tolerance :   1.0000e-07
  Last RMS-Density change    ...    9.4139e-08  Tolerance :   5.0000e-09
  Last Orbital Gradient      ...    7.6947e-07  Tolerance :   1.0000e-05
  Last Orbital Rotation      ...    2.1311e-06  Tolerance :   1.0000e-05

             **** THE GBW FILE WAS UPDATED (9-194_DFT_AB.gbw) ****
             **** DENSITY FILE WAS UPDATED (9-194_DFT_AB.scfp.tmp) ****
             **** ENERGY FILE WAS UPDATED (9-194_DFT_AB.en.tmp) ****
----------------
ORBITAL ENERGIES
----------------

  NO   OCC          E(Eh)            E(eV) 
   0   2.0000     -19.262548      -524.1606 
   1   2.0000     -19.195704      -522.3417 
   2   2.0000     -10.333024      -281.1759 
   3   2.0000     -10.292306      -280.0679 
   4   2.0000      -1.188656       -32.3450 
   5   2.0000      -1.123195       -30.5637 
   6   2.0000      -0.815061       -22.1789 
   7   2.0000      -0.767839       -20.8940 
   8   2.0000      -0.652926       -17.7670 
   9   2.0000      -0.605596       -16.4791 
  10   2.0000      -0.570805       -15.5324 
  11   2.0000      -0.550147       -14.9703 
  12   2.0000      -0.521843       -14.2001 
  13   2.0000      -0.514831       -14.0093 
  14   2.0000      -0.455216       -12.3870 
  15   2.0000      -0.412210       -11.2168 
  16   2.0000      -0.395163       -10.7529 
  17   2.0000      -0.340810        -9.2739 
  18   0.0000       0.097438         2.6514 
  19   0.0000       0.131321         3.5734 
  20   0.0000       0.152046         4.1374 
  21   0.0000       0.183460         4.9922 
  22   0.0000       0.193976         5.2784 
  23   0.0000       0.206159         5.6099 
  24   0.0000       0.216352         5.8872 
  25   0.0000       0.220318         5.9952 
  26   0.0000       0.227326         6.1859 
  27   0.0000       0.292788         7.9672 
  28   0.0000       0.299743         8.1564 
  29   0.0000       0.319685         8.6991 
  30   0.0000       0.330655         8.9976 
  31   0.0000       0.343343         9.3428 
  32   0.0000       0.395202        10.7540 
  33   0.0000       0.448288        12.1985 
  34   0.0000       0.456689        12.4271 
  35   0.0000       0.478772        13.0281 
  36   0.0000       0.494937        13.4679 
  37   0.0000       0.502648        13.6777 
  38   0.0000       0.516617        14.0579 
  39   0.0000       0.535155        14.5623 
  40   0.0000       0.551926        15.0187 
  41   0.0000       0.569263        15.4904 
  42   0.0000       0.578798        15.7499 
  43   0.0000       0.586518        15.9600 
  44   0.0000       0.599159        16.3039 
  45   0.0000       0.617003        16.7895 
  46   0.0000       0.653377        17.7793 
  47   0.0000       0.689425        18.7602 
  48   0.0000       0.706693        19.2301 
  49   0.0000       0.740500        20.1500 
  50   0.0000       0.766017        20.8444 
  51   0.0000       0.818281        22.2666 
  52   0.0000       0.833864        22.6906 
  53   0.0000       0.864227        23.5168 
  54   0.0000       0.905702        24.6454 
  55   0.0000       0.947061        25.7708 
  56   0.0000       1.009324        27.4651 
  57   0.0000       1.030152        28.0319 
  58   0.0000       1.050753        28.5925 
  59   0.0000       1.089994        29.6602 
  60   0.0000       1.129953        30.7476 
  61   0.0000       1.156067        31.4582 
  62   0.0000       1.367105        37.2008 
  63   0.0000       1.419736        38.6330 
  64   0.0000       1.476740        40.1841 
  65   0.0000       1.516719        41.2720 
  66   0.0000       1.543781        42.0084 
  67   0.0000       1.581716        43.0407 
  68   0.0000       1.590523        43.2803 
  69   0.0000       1.606305        43.7098 
  70   0.0000       1.624513        44.2052 
  71   0.0000       1.627506        44.2867 
  72   0.0000       1.647097        44.8198 
  73   0.0000       1.662134        45.2290 
  74   0.0000       1.675815        45.6012 
  75   0.0000       1.689959        45.9861 
  76   0.0000       1.744451        47.4689 
  77   0.0000       1.760358        47.9018 
  78   0.0000       1.774887        48.2971 
  79   0.0000       1.931067        52.5470 
  80   0.0000       1.970432        53.6182 
  81   0.0000       1.991576        54.1935 
  82   0.0000       2.016892        54.8824 
  83   0.0000       2.032399        55.3044 
  84   0.0000       2.055604        55.9358 
  85   0.0000       2.077491        56.5314 
  86   0.0000       2.093340        56.9627 
  87   0.0000       2.146479        58.4087 
  88   0.0000       2.164975        58.9120 
  89   0.0000       2.196281        59.7638 
  90   0.0000       2.239363        60.9362 
  91   0.0000       2.263612        61.5960 
  92   0.0000       2.302428        62.6523 
  93   0.0000       2.356635        64.1273 
  94   0.0000       2.374823        64.6222 
  95   0.0000       2.406871        65.4943 
  96   0.0000       2.416151        65.7468 
  97   0.0000       2.439518        66.3827 
  98   0.0000       2.492500        67.8244 
  99   0.0000       2.504522        68.1515 
 100   0.0000       2.534951        68.9795 
 101   0.0000       2.549636        69.3791 
 102   0.0000       2.578924        70.1761 
 103   0.0000       2.625149        71.4339 
 104   0.0000       2.637246        71.7631 
 105   0.0000       2.658189        72.3330 
 106   0.0000       2.675223        72.7965 
 107   0.0000       2.740291        74.5671 
 108   0.0000       2.832440        77.0746 
 109   0.0000       2.883093        78.4529 
 110   0.0000       2.896144        78.8081 
 111   0.0000       2.903710        79.0140 
 112   0.0000       2.941647        80.0463 
 113   0.0000       2.992720        81.4360 
 114   0.0000       3.017659        82.1147 
 115   0.0000       3.099442        84.3401 
 116   0.0000       3.108157        84.5773 
 117   0.0000       3.146814        85.6292 
 118   0.0000       3.170767        86.2809 
 119   0.0000       3.229359        87.8753 
 120   0.0000       3.249494        88.4232 
 121   0.0000       3.315113        90.2088 
 122   0.0000       3.329242        90.5933 
 123   0.0000       3.415427        92.9385 
 124   0.0000       3.467312        94.3503 
 125   0.0000       3.505403        95.3869 
 126   0.0000       3.546176        96.4963 
 127   0.0000       3.568824        97.1126 
 128   0.0000       3.619782        98.4993 
 129   0.0000       3.640793        99.0710 
 130   0.0000       3.657512        99.5259 
 131   0.0000       3.672205        99.9258 
 132   0.0000       3.701413       100.7206 
 133   0.0000       3.715627       101.1074 
 134   0.0000       4.000079       108.8477 
 135   0.0000       4.084313       111.1398 
 136   0.0000       4.162840       113.2766 
 137   0.0000       4.237754       115.3151 
 138   0.0000       4.267732       116.1309 
 139   0.0000       4.337073       118.0178 
 140   0.0000       4.416139       120.1692 
 141   0.0000       4.432842       120.6238 
 142   0.0000       4.513957       122.8310 
 143   0.0000       4.577307       124.5549 
 144   0.0000       5.379142       146.3739 
 145   0.0000       5.418101       147.4340 
 146   0.0000       5.453813       148.4058 
 147   0.0000       5.517468       150.1379 
 148   0.0000       5.551944       151.0761 
 149   0.0000       5.603506       152.4792 
 150   0.0000       5.817210       158.2943 
 151   0.0000       5.867846       159.6722 
 152   0.0000       5.880247       160.0097 
 153   0.0000       5.940971       161.6620 
 154   0.0000       6.038484       164.3155 
 155   0.0000       6.101451       166.0289 
 156   0.0000       6.340216       172.5260 
 157   0.0000       6.391094       173.9105 
 158   0.0000       6.570289       178.7866 
 159   0.0000       6.652098       181.0128 
 160   0.0000       6.774826       184.3524 
 161   0.0000       6.791067       184.7943 
 162   0.0000       6.852470       186.4652 
 163   0.0000       6.872140       187.0004 
 164   0.0000       7.016280       190.9227 
 165   0.0000       7.091626       192.9730 
 166   0.0000       7.228773       196.7049 
 167   0.0000       7.326275       199.3581 
 168   0.0000      22.455314       611.0402 
 169   0.0000      22.535838       613.2313 
 170   0.0000      43.669931      1188.3192 
 171   0.0000      43.802244      1191.9197 

                    ********************************
                    * MULLIKEN POPULATION ANALYSIS *
                    ********************************

-----------------------
MULLIKEN ATOMIC CHARGES
-----------------------
   0 C :   -0.147438
   1 O :   -0.463564
   2 H :    0.317516
   3 H :    0.106303
   4 H :    0.078633
   5 H :    0.078797
   6 C :   -0.186090
   7 O :   -0.468598
   8 H :    0.333949
   9 H :    0.115524
  10 H :    0.114308
  11 H :    0.120660
Sum of atomic charges:    0.0000000

--------------------------------
MULLIKEN REDUCED ORBITAL CHARGES
--------------------------------
  0 C s       :     3.214798  s :     3.214798
      pz      :     0.822208  p :     2.814784
      px      :     0.991677
      py      :     1.000899
      dz2     :     0.034846  d :     0.109186
      dxz     :     0.016246
      dyz     :     0.015421
      dx2y2   :     0.026376
      dxy     :     0.016297
      f0      :     0.001579  f :     0.008671
      f+1     :     0.001907
      f-1     :     0.001106
      f+2     :     0.001650
      f-2     :     0.001086
      f+3     :     0.000479
      f-3     :     0.000864
  1 O s       :     3.780923  s :     3.780923
      pz      :     1.590303  p :     4.649656
      px      :     1.284557
      py      :     1.774796
      dz2     :     0.008299  d :     0.031280
      dxz     :     0.007013
      dyz     :     0.006226
      dx2y2   :     0.005601
      dxy     :     0.004141
      f0      :     0.000224  f :     0.001705
      f+1     :     0.000247
      f-1     :     0.000212
      f+2     :     0.000261
      f-2     :     0.000244
      f+3     :     0.000302
      f-3     :     0.000217
  2 H s       :     0.626536  s :     0.626536
      pz      :     0.011571  p :     0.055948
      px      :     0.028788
      py      :     0.015589
  3 H s       :     0.874257  s :     0.874257
      pz      :     0.003182  p :     0.019440
      px      :     0.011039
      py      :     0.005219
  4 H s       :     0.901968  s :     0.901968
      pz      :     0.003226  p :     0.019398
      px      :     0.003774
      py      :     0.012399
  5 H s       :     0.901366  s :     0.901366
      pz      :     0.009483  p :     0.019837
      px      :     0.006085
      py      :     0.004269
  6 C s       :     3.221307  s :     3.221307
      pz      :     0.857976  p :     2.853237
      px      :     0.960449
      py      :     1.034812
      dz2     :     0.036677  d :     0.103006
      dxz     :     0.018763
      dyz     :     0.015971
      dx2y2   :     0.011473
      dxy     :     0.020122
      f0      :     0.001466  f :     0.008540
      f+1     :     0.002024
      f-1     :     0.000752
      f+2     :     0.001474
      f-2     :     0.001738
      f+3     :     0.000656
      f-3     :     0.000430
  7 O s       :     3.796490  s :     3.796490
      pz      :     1.497524  p :     4.639030
      px      :     1.535312
      py      :     1.606194
      dz2     :     0.004966  d :     0.031326
      dxz     :     0.010147
      dyz     :     0.004086
      dx2y2   :     0.003782
      dxy     :     0.008345
      f0      :     0.000293  f :     0.001752
      f+1     :     0.000162
      f-1     :     0.000281
      f+2     :     0.000202
      f-2     :     0.000553
      f+3     :     0.000150
      f-3     :     0.000111
  8 H s       :     0.616074  s :     0.616074
      pz      :     0.015824  p :     0.049977
      px      :     0.015239
      py      :     0.018914
  9 H s       :     0.866194  s :     0.866194
      pz      :     0.009052  p :     0.018282
      px      :     0.004780
      py      :     0.004450
 10 H s       :     0.865371  s :     0.865371
      pz      :     0.003508  p :     0.020321
      px      :     0.006030
      py      :     0.010783
 11 H s       :     0.859337  s :     0.859337
      pz      :     0.005347  p :     0.020003
      px      :     0.007602
      py      :     0.007055


                     *******************************
                     * LOEWDIN POPULATION ANALYSIS *
                     *******************************

----------------------
LOEWDIN ATOMIC CHARGES
----------------------
   0 C :   -0.435948
   1 O :   -0.051271
   2 H :    0.154992
   3 H :    0.103559
   4 H :    0.087899
   5 H :    0.088792
   6 C :   -0.423594
   7 O :   -0.008885
   8 H :    0.170619
   9 H :    0.117282
  10 H :    0.099837
  11 H :    0.096717

-------------------------------
LOEWDIN REDUCED ORBITAL CHARGES
-------------------------------
  0 C s       :     2.855025  s :     2.855025
      pz      :     0.950883  p :     3.052034
      px      :     1.037385
      py      :     1.063766
      dz2     :     0.143003  d :     0.462120
      dxz     :     0.089607
      dyz     :     0.065725
      dx2y2   :     0.100567
      dxy     :     0.063220
      f0      :     0.010024  f :     0.066769
      f+1     :     0.014202
      f-1     :     0.010028
      f+2     :     0.011610
      f-2     :     0.011591
      f+3     :     0.003357
      f-3     :     0.005958
  1 O s       :     3.339628  s :     3.339628
      pz      :     1.609890  p :     4.628795
      px      :     1.308140
      py      :     1.710764
      dz2     :     0.022189  d :     0.077479
      dxz     :     0.016263
      dyz     :     0.012802
      dx2y2   :     0.016534
      dxy     :     0.009691
      f0      :     0.001006  f :     0.005369
      f+1     :     0.000854
      f-1     :     0.000646
      f+2     :     0.001005
      f-2     :     0.000836
      f+3     :     0.000559
      f-3     :     0.000462
  2 H s       :     0.668515  s :     0.668515
      pz      :     0.037639  p :     0.176493
      px      :     0.092805
      py      :     0.046049
  3 H s       :     0.839268  s :     0.839268
      pz      :     0.009793  p :     0.057173
      px      :     0.031139
      py      :     0.016241
  4 H s       :     0.854262  s :     0.854262
      pz      :     0.009898  p :     0.057839
      px      :     0.012109
      py      :     0.035832
  5 H s       :     0.851434  s :     0.851434
      pz      :     0.027085  p :     0.059774
      px      :     0.019101
      py      :     0.013588
  6 C s       :     2.853661  s :     2.853661
      pz      :     0.956027  p :     3.062898
      px      :     1.036373
      py      :     1.070497
      dz2     :     0.118680  d :     0.443875
      dxz     :     0.112203
      dyz     :     0.070324
      dx2y2   :     0.040128
      dxy     :     0.102540
      f0      :     0.012353  f :     0.063159
      f+1     :     0.012489
      f-1     :     0.007121
      f+2     :     0.012424
      f-2     :     0.009401
      f+3     :     0.005212
      f-3     :     0.004160
  7 O s       :     3.327601  s :     3.327601
      pz      :     1.489572  p :     4.597021
      px      :     1.557178
      py      :     1.550270
      dz2     :     0.015097  d :     0.078727
      dxz     :     0.022862
      dyz     :     0.014909
      dx2y2   :     0.009256
      dxy     :     0.016604
      f0      :     0.001065  f :     0.005536
      f+1     :     0.000772
      f-1     :     0.000540
      f+2     :     0.000751
      f-2     :     0.001354
      f+3     :     0.000607
      f-3     :     0.000447
  8 H s       :     0.661788  s :     0.661788
      pz      :     0.046105  p :     0.167593
      px      :     0.059927
      py      :     0.061561
  9 H s       :     0.831504  s :     0.831504
      pz      :     0.024533  p :     0.051214
      px      :     0.014810
      py      :     0.011870
 10 H s       :     0.839331  s :     0.839331
      pz      :     0.011164  p :     0.060832
      px      :     0.018088
      py      :     0.031580
 11 H s       :     0.839381  s :     0.839381
      pz      :     0.016760  p :     0.063903
      px      :     0.023647
      py      :     0.023496


                      *****************************
                      * MAYER POPULATION ANALYSIS *
                      *****************************

  NA   - Mulliken gross atomic population
  ZA   - Total nuclear charge
  QA   - Mulliken gross atomic charge
  VA   - Mayer's total valence
  BVA  - Mayer's bonded valence
  FA   - Mayer's free valence

  ATOM       NA         ZA         QA         VA         BVA        FA
  0 C      6.1474     6.0000    -0.1474     3.9795     3.9795     0.0000
  1 O      8.4636     8.0000    -0.4636     1.8654     1.8654     0.0000
  2 H      0.6825     1.0000     0.3175     0.9417     0.9417    -0.0000
  3 H      0.8937     1.0000     0.1063     0.9593     0.9593     0.0000
  4 H      0.9214     1.0000     0.0786     0.9470     0.9470    -0.0000
  5 H      0.9212     1.0000     0.0788     0.9655     0.9655     0.0000
  6 C      6.1861     6.0000    -0.1861     3.9017     3.9017     0.0000
  7 O      8.4686     8.0000    -0.4686     1.9093     1.9093     0.0000
  8 H      0.6661     1.0000     0.3339     0.9019     0.9019     0.0000
  9 H      0.8845     1.0000     0.1155     0.9591     0.9591    -0.0000
 10 H      0.8857     1.0000     0.1143     0.9548     0.9548     0.0000
 11 H      0.8793     1.0000     0.1207     0.9565     0.9565     0.0000

  Mayer bond orders larger than 0.1
B(  0-C ,  1-O ) :   1.0277 B(  0-C ,  3-H ) :   0.9740 B(  0-C ,  4-H ) :   0.9662 
B(  0-C ,  5-H ) :   0.9993 B(  1-O ,  2-H ) :   0.8621 B(  6-C ,  7-O ) :   0.9644 
B(  6-C ,  9-H ) :   0.9770 B(  6-C , 10-H ) :   0.9696 B(  6-C , 11-H ) :   0.9800 
B(  7-O ,  8-H ) :   0.8891 

-------
TIMINGS
-------

Total SCF time: 0 days 0 hours 0 min 11 sec 

Total time                  ....      11.434 sec
Sum of individual times     ....      11.088 sec  ( 97.0%)

Fock matrix formation       ....      10.517 sec  ( 92.0%)
  XC integration            ....       0.703 sec  (  6.7% of F)
    Basis function eval.    ....       0.073 sec  ( 10.4% of XC)
    Density eval.           ....       0.066 sec  (  9.4% of XC)
    XC-Functional eval.     ....       0.094 sec  ( 13.3% of XC)
    XC-Potential eval.      ....       0.090 sec  ( 12.7% of XC)
Diagonalization             ....       0.045 sec  (  0.4%)
Density matrix formation    ....       0.010 sec  (  0.1%)
Population analysis         ....       0.015 sec  (  0.1%)
Initial guess               ....       0.142 sec  (  1.2%)
Orbital Transformation      ....       0.000 sec  (  0.0%)
Orbital Orthonormalization  ....       0.000 sec  (  0.0%)
DIIS solution               ....       0.028 sec  (  0.2%)
SOSCF solution              ....       0.041 sec  (  0.4%)
Grid generation             ....       0.290 sec  (  2.5%)


-------------------------------------------------------------------------------
                          DFT DISPERSION CORRECTION                            
                                                                               
                              DFTD3 V3.1  Rev 1                                
                              USING zero damping                               
-------------------------------------------------------------------------------
The omegaB97X-D3 functional is recognized. Fit by Chai et al.
Active option DFTDOPT                   ...         3   

molecular C6(AA) [au] = 834.632652 


            DFT-D V3
 parameters
 s6 scaling factor         :     1.0000 
 rs6 scaling factor        :     1.2810 
 s8 scaling factor         :     1.0000 
 rs8 scaling factor        :     1.0940 
 Damping factor alpha6     :    14.0000 
 Damping factor alpha8     :    16.0000 
 ad hoc parameters k1-k3   :    16.0000     1.3333    -4.0000 

 Edisp/kcal,au: -1.114488064858  -0.001776049593 
 E6   /kcal   :  -0.527550098 
 E8   /kcal   :  -0.586937966 
 % E8         :  52.664356394 

-------------------------   ----------------
Dispersion correction           -0.001776050
-------------------------   ----------------


-------------------------   --------------------
FINAL SINGLE POINT ENERGY      -231.469153080767
-------------------------   --------------------


                            ***************************************
                            *     ORCA property calculations      *
                            ***************************************

                                    ---------------------
                                    Active property flags
                                    ---------------------
   (+) Dipole Moment


------------------------------------------------------------------------------
                       ORCA ELECTRIC PROPERTIES CALCULATION
------------------------------------------------------------------------------

Dipole Moment Calculation                       ... on
Quadrupole Moment Calculation                   ... off
Polarizability Calculation                      ... off
GBWName                                         ... 9-194_DFT_AB.gbw
Electron density file                           ... 9-194_DFT_AB.scfp.tmp
The origin for moment calculation is the CENTER OF MASS  = (-5.195089, 14.836450  3.566087)

-------------
DIPOLE MOMENT
-------------
                                X             Y             Z
Electronic contribution:     -0.05892      -1.44956       3.08091
Nuclear contribution   :      1.35253       1.56744      -3.60687
                        -----------------------------------------
Total Dipole Moment    :      1.29361       0.11788      -0.52596
                        -----------------------------------------
Magnitude (a.u.)       :      1.40141
Magnitude (Debye)      :      3.56211



--------------------
Rotational spectrum 
--------------------
 
Rotational constants in cm-1:     0.563070     0.081384     0.073290 
Rotational constants in MHz : 16880.420382  2439.831124  2197.180681 

 Dipole components along the rotational axes: 
x,y,z [a.u.] :    -1.266339     0.490140     0.346570 
x,y,z [Debye]:    -3.218778     1.245837     0.880910 

 
------------------------------------------------------------------------------
                      ORCA CHELPG CHARGES GENERATION
------------------------------------------------------------------------------

GBW file                           ... 9-194_DFT_AB.gbw

Reading the GBW file               ... done

Grid spacing                       ...     0.300000
Point Cut-Off                      ...     2.800000
Van-der-Waals Radii                ...        COSMO
Total charge                       ...            0


Number of points X direction       ...           38
Number of points Y direction       ...           25
Number of points Z direction       ...           27
Maximum number of possible points  ...        25650
Final number of points             ...         9730


CHELPG Charges            
--------------------------------
  0   C   :       0.220055
  1   O   :      -0.648241
  2   H   :       0.420831
  3   H   :       0.027661
  4   H   :      -0.015578
  5   H   :      -0.049492
  6   C   :       0.202524
  7   O   :      -0.586820
  8   H   :       0.407653
  9   H   :       0.042128
 10   H   :      -0.003294
 11   H   :      -0.017427
--------------------------------
Total charge:     0.000000
--------------------------------

CHELPG charges calculated...

Timings for individual parts in CHELPG calculation:
Grid generation                 ...        0.001 sec (=   0.000 min)
Potential calculation           ...        2.161 sec (=   0.036 min)
Fit to the potential            ...        0.003 sec (=   0.000 min)
------------------------------------------------------------------------------


Timings for individual modules:

Sum of individual times         ...       18.561 sec (=   0.309 min)
GTO integral calculation        ...        3.689 sec (=   0.061 min)  19.9 %
SCF iterations                  ...       12.674 sec (=   0.211 min)  68.3 %
CHELPG charge generation        ...        2.199 sec (=   0.037 min)  11.8 %


                 $$$$$$$$$$$$$$$$  JOB NUMBER  2 $$$$$$$$$$$$$$


                       ****************************
                       * Single Point Calculation *
                       ****************************

---------------------------------
CARTESIAN COORDINATES (ANGSTROEM)
---------------------------------
  C     -4.842045    7.838323    1.272649
  O     -4.123788    7.309092    2.305676
  H     -3.199384    7.520210    2.117756
  H     -5.833426    7.371464    1.154109
  H     -4.977565    8.933817    1.339982
  H     -4.219223    7.709401    0.386398
  C     -0.676098    8.392767    1.470357
  O     -1.450425    7.890329    2.485881
  H     -0.899939    7.273258    2.924053
  H     -1.271635    8.689298    0.529120
  H     -0.158063    9.324743    1.715549
  H      0.009115    7.665358    1.069174

----------------------------
CARTESIAN COORDINATES (A.U.)
----------------------------
  NO LB      ZA    FRAG     MASS         X           Y           Z
   0 C     6.0000    0    12.011   -9.150139   14.812284    2.404958
   1 O     8.0000    0    15.999   -7.792830   13.812182    4.357096
   2 H     1.0000    0     1.008   -6.045960   14.211137    4.001979
   3 H     1.0000    0     1.008  -11.023578   13.930048    2.180950
   4 H     1.0000    0     1.008   -9.406235   16.882467    2.532199
   5 H     1.0000    0     1.008   -7.973176   14.568657    0.730186
   6 C     0.0000    0     0.000   -1.277640   15.860031    2.778572
   7 O     0.0000    0     0.000   -2.740906   14.910561    4.697634
   8 H     0.0000    0     0.000   -1.700638   13.744466    5.525659
   9 H     0.0000    0     0.000   -2.403042   16.420394    0.999892
  10 H     0.0000    0     0.000   -0.298696   17.621211    3.241918
  11 H     0.0000    0     0.000    0.017225   14.485427    2.020446

--------------------------------
INTERNAL COORDINATES (ANGSTROEM)
--------------------------------
 C      0   0   0     0.000000000000     0.00000000     0.00000000
 O      1   0   0     1.364962765843     0.00000000     0.00000000
 H      2   1   0     0.966647552906   105.74793349     0.00000000
 H      1   2   3     1.102200228925   112.98365319   158.74263950
 H      1   2   3     1.105896246185   113.73348576   282.89076250
 H      1   2   3     1.090856984563   105.58120047    35.89575800
 C      3   2   1     2.747262896274   173.47018944    36.63777436
 O      7   3   2     1.372339331707    36.01121203   127.01803221
 H      8   7   3     0.935845156434   104.83182645   138.79021535
 H      7   3   2     1.152615305511    78.43891006   315.93143418
 H      7   3   2     1.094101751514   130.73893020    51.94021520
 H      7   3   2     1.076841914182   117.23798755   218.90203313

---------------------------
INTERNAL COORDINATES (A.U.)
---------------------------
 C      0   0   0     0.000000000000     0.00000000     0.00000000
 O      1   0   0     2.579405810444     0.00000000     0.00000000
 H      2   1   0     1.826699143018   105.74793349     0.00000000
 H      1   2   3     2.082856577413   112.98365319   158.74263950
 H      1   2   3     2.089841037820   113.73348576   282.89076250
 H      1   2   3     2.061420952098   105.58120047    35.89575800
 C      3   2   1     5.191574491842   173.47018944    36.63777436
 O      7   3   2     2.593345499734    36.01121203   127.01803221
 H      8   7   3     1.768491049417   104.83182645   138.79021535
 H      7   3   2     2.178127265182    78.43891006   315.93143418
 H      7   3   2     2.067552673004   130.73893020    51.94021520
 H      7   3   2     2.034936307331   117.23798755   218.90203313

---------------------
BASIS SET INFORMATION
---------------------
There are 3 groups of distinct atoms

 Group   1 Type C   : 11s6p2d1f contracted to 5s3p2d1f pattern {62111/411/11/1}
 Group   2 Type O   : 11s6p2d1f contracted to 5s3p2d1f pattern {62111/411/11/1}
 Group   3 Type H   : 5s1p contracted to 3s1p pattern {311/1}

Atom   0C    basis set group =>   1
Atom   1O    basis set group =>   2
Atom   2H    basis set group =>   3
Atom   3H    basis set group =>   3
Atom   4H    basis set group =>   3
Atom   5H    basis set group =>   3
Atom   6C    basis set group =>   1
Atom   7O    basis set group =>   2
Atom   8H    basis set group =>   3
Atom   9H    basis set group =>   3
Atom  10H    basis set group =>   3
Atom  11H    basis set group =>   3


           ************************************************************
           *        Program running with 8 parallel MPI-processes     *
           *              working on a common directory               *
           ************************************************************
------------------------------------------------------------------------------
                           ORCA GTO INTEGRAL CALCULATION
------------------------------------------------------------------------------

                         BASIS SET STATISTICS AND STARTUP INFO

 # of primitive gaussian shells          ...  128
 # of primitive gaussian functions       ...  248
 # of contracted shells                  ...   76
 # of contracted basis functions         ...  172
 Highest angular momentum                ...    3
 Maximum contraction depth               ...    6
 Integral package used                   ... LIBINT
 Integral threshhold            Thresh   ...  2.500e-11
 Primitive cut-off              TCut     ...  2.500e-12


------------------------------ INTEGRAL EVALUATION ----------------------------


 * One electron integrals 
 Pre-screening matrix                    ... done
 Shell pair data                         ... done (   0.001 sec)



           ************************************************************
           *        Program running with 8 parallel MPI-processes     *
           *              working on a common directory               *
           ************************************************************
-------------------------------------------------------------------------------
                                 ORCA SCF
-------------------------------------------------------------------------------

------------
SCF SETTINGS
------------
Hamiltonian:
 Density Functional     Method          .... DFT(GTOs)
 Exchange Functional    Exchange        .... WB97X-D3
 Correlation Functional Correlation     .... WB97X-D3
 Gradients option       PostSCFGGA      .... off
 Hybrid DFT is turned on
   Fraction HF Exchange ScalHFX         ....  0.195728
   Scaling of DF-GGA-X  ScalDFX         ....  0.000000
   Scaling of DF-GGA-C  ScalDFC         ....  1.000000
   Scaling of DF-LDA-C  ScalLDAC        ....  1.000000
   Perturbative correction              ....  0.000000
   Density functional embedding theory  .... OFF
 Long-range corrected/Screened/Range-Separated Hybrid DFT is turned on
   Amount of maximum screened exact exchange              ....  0.804272
   Range separation parameter mu (erf(mu*r12)/r12)        ....  0.250000


General Settings:
 Integral files         IntName         .... 9-194_DFT_A
 Hartree-Fock type      HFTyp           .... RHF
 Total Charge           Charge          ....    0
 Multiplicity           Mult            ....    1
 Number of Electrons    NEL             ....   18
 Basis Dimension        Dim             ....  172
 Nuclear Repulsion      ENuc            ....     41.1590177508 Eh

Convergence Acceleration:
 DIIS                   CNVDIIS         .... on
   Start iteration      DIISMaxIt       ....    12
   Startup error        DIISStart       ....  0.200000
   # of expansion vecs  DIISMaxEq       ....     5
   Bias factor          DIISBfac        ....   1.050
   Max. coefficient     DIISMaxC        ....  10.000
 Newton-Raphson         CNVNR           .... off
 SOSCF                  CNVSOSCF        .... on
   Start iteration      SOSCFMaxIt      ....   150
   Startup grad/error   SOSCFStart      ....  0.003300
 Level Shifting         CNVShift        .... on
   Level shift para.    LevelShift      ....    0.2500
   Turn off err/grad.   ShiftErr        ....    0.0010
 Zerner damping         CNVZerner       .... off
 Static damping         CNVDamp         .... on
   Fraction old density DampFac         ....    0.7000
   Max. Damping (<1)    DampMax         ....    0.9800
   Min. Damping (>=0)   DampMin         ....    0.0000
   Turn off err/grad.   DampErr         ....    0.1000
 Fernandez-Rico         CNVRico         .... off

SCF Procedure:
 Maximum # iterations   MaxIter         ....  1000
 SCF integral mode      SCFMode         .... Direct
   Integral package                     .... LIBINT
 Reset frequency        DirectResetFreq ....    20
 Integral Threshold     Thresh          ....  2.500e-11 Eh
 Primitive CutOff       TCut            ....  2.500e-12 Eh

Convergence Tolerance:
 Convergence Check Mode ConvCheckMode   .... Total+1el-Energy
 Convergence forced     ConvForced      .... 0
 Energy Change          TolE            ....  1.000e-08 Eh
 1-El. energy change                    ....  1.000e-05 Eh
 Orbital Gradient       TolG            ....  1.000e-05
 Orbital Rotation angle TolX            ....  1.000e-05
 DIIS Error             TolErr          ....  5.000e-07


Diagonalization of the overlap matrix:
Smallest eigenvalue                        ... 1.543e-03
Time for diagonalization                   ...    0.005 sec
Threshold for overlap eigenvalues          ... 1.000e-08
Number of eigenvalues below threshold      ... 0
Time for construction of square roots      ...    0.007 sec
Total time needed                          ...    0.012 sec

-------------------
DFT GRID GENERATION
-------------------

General Integration Accuracy     IntAcc      ...  4.340
Radial Grid Type                 RadialGrid  ... Gauss-Chebyshev
Angular Grid (max. acc.)         AngularGrid ... Lebedev-110
Angular grid pruning method      GridPruning ... 3 (G Style)
Weight generation scheme         WeightScheme... Becke
Basis function cutoff            BFCut       ...    1.0000e-11
Integration weight cutoff        WCut        ...    1.0000e-14
Grids for H and He will be reduced by one unit

# of grid points (after initial pruning)     ...  13096 (   0.0 sec)
# of grid points (after weights+screening)   ...  12492 (   0.0 sec)
nearest neighbour list constructed           ...    0.0 sec
Grid point re-assignment to atoms done       ...    0.0 sec
Grid point division into batches done        ...    0.0 sec
Reduced shell lists constructed in    0.0 sec

Total number of grid points                  ...    12492
Total number of batches                      ...      201
Average number of points per batch           ...       62
Average number of grid points per atom       ...     1041
Average number of shells per batch           ...    51.74 (68.08%)
Average number of basis functions per batch  ...   115.30 (67.03%)
Average number of large shells per batch     ...    41.59 (80.39%)
Average number of large basis fcns per batch ...    92.19 (79.96%)
Maximum spatial batch extension              ...  10.79, 17.06, 14.49 au
Average spatial batch extension              ...   0.37,  0.46,  0.45 au

Time for grid setup =    0.049 sec

------------------------------
INITIAL GUESS: MODEL POTENTIAL
------------------------------
Loading Hartree-Fock densities                     ... done
Calculating cut-offs                               ... done
Setting up the integral package                    ... done
Initializing the effective Hamiltonian             ... done
Starting the Coulomb interaction                   ... done (   0.0 sec)
Reading the grid                                   ... done
Mapping shells                                     ... done
Starting the XC term evaluation                    ... done (   0.0 sec)
  promolecular density results
     # of electrons  =     18.001300144
     EX              =    -14.443333912
     EC              =     -0.577706235
     EX+EC           =    -15.021040146
Transforming the Hamiltonian                       ... done (   0.0 sec)
Diagonalizing the Hamiltonian                      ... done (   0.0 sec)
Back transforming the eigenvectors                 ... done (   0.0 sec)
Now organizing SCF variables                       ... done
                      ------------------
                      INITIAL GUESS DONE (   0.2 sec)
                      ------------------
--------------
SCF ITERATIONS
--------------
ITER       Energy         Delta-E        Max-DP      RMS-DP      [F,P]     Damp
               ***  Starting incremental Fock matrix formation  ***
  0   -115.6414960393   0.000000000000 0.03660283  0.00077528  0.2418164 0.7000
  1   -115.6799807913  -0.038484751933 0.02113231  0.00055109  0.1238271 0.7000
                               ***Turning on DIIS***
  2   -115.6976143864  -0.017633595106 0.03109119  0.00098800  0.0527093 0.0000
  3   -115.7260962297  -0.028481843309 0.01756745  0.00036612  0.0601609 0.0000
  4   -115.7308889386  -0.004792708875 0.00408287  0.00007467  0.0062312 0.0000
                      *** Initiating the SOSCF procedure ***
                           *** Shutting down DIIS ***
                      *** Re-Reading the Fockian *** 
                      *** Removing any level shift *** 
ITER      Energy       Delta-E        Grad      Rot      Max-DP    RMS-DP
  5   -115.73098486  -0.0000959208  0.000458  0.000458  0.000771  0.000027
               *** Restarting incremental Fock matrix formation ***
  6   -115.73099361  -0.0000087542  0.000135  0.000181  0.000478  0.000017
  7   -115.73099448  -0.0000008652  0.000054  0.000112  0.000238  0.000008
  8   -115.73099454  -0.0000000643  0.000033  0.000025  0.000049  0.000001
  9   -115.73099457  -0.0000000246  0.000007  0.000008  0.000018  0.000001
                  ***Gradient check signals convergence***
              ***Rediagonalizing the Fockian in SOSCF/NRSCF***

               *****************************************************
               *                     SUCCESS                       *
               *           SCF CONVERGED AFTER  10 CYCLES          *
               *****************************************************

Setting up the final grid:

General Integration Accuracy     IntAcc      ...  4.670
Radial Grid Type                 RadialGrid  ... Gauss-Chebyshev
Angular Grid (max. acc.)         AngularGrid ... Lebedev-302
Angular grid pruning method      GridPruning ... 3 (G Style)
Weight generation scheme         WeightScheme... Becke
Basis function cutoff            BFCut       ...    1.0000e-11
Integration weight cutoff        WCut        ...    1.0000e-14
Grids for H and He will be reduced by one unit

# of grid points (after initial pruning)     ...  52000 (   0.0 sec)
# of grid points (after weights+screening)   ...  49013 (   0.0 sec)
nearest neighbour list constructed           ...    0.0 sec
Grid point re-assignment to atoms done       ...    0.0 sec
Grid point division into batches done        ...    0.2 sec
Reduced shell lists constructed in    0.2 sec

Total number of grid points                  ...    49013
Total number of batches                      ...      772
Average number of points per batch           ...       63
Average number of grid points per atom       ...     4084
Average number of shells per batch           ...    49.00 (64.47%)
Average number of basis functions per batch  ...   108.22 (62.92%)
Average number of large shells per batch     ...    39.36 (80.32%)
Average number of large basis fcns per batch ...    86.87 (80.27%)
Maximum spatial batch extension              ...  13.04, 16.05, 13.34 au
Average spatial batch extension              ...   0.26,  0.28,  0.27 au

Final grid set up in    0.2 sec
Final integration                            ... done (   0.1 sec)
Change in XC energy                          ...    -0.000496510
Integrated number of electrons               ...    17.999964890
Previous integrated no of electrons          ...    18.000794494

----------------
TOTAL SCF ENERGY
----------------

Total Energy       :         -115.73149108 Eh           -3149.21398 eV

Components:
Nuclear Repulsion  :           41.15901775 Eh            1119.99381 eV
Electronic Energy  :         -156.89050883 Eh           -4269.20779 eV
One Electron Energy:         -238.66264506 Eh           -6494.34074 eV
Two Electron Energy:           81.77213623 Eh            2225.13295 eV

Virial components:
Potential Energy   :         -231.05516228 Eh           -6287.33061 eV
Kinetic Energy     :          115.32367120 Eh            3138.11663 eV
Virial Ratio       :            2.00353631


DFT components:
N(Alpha)           :        8.999982445230 electrons
N(Beta)            :        8.999982445230 electrons
N(Total)           :       17.999964890460 electrons
E(XC)              :      -10.668068356008 Eh       
DFET-embed. en.    :        0.000000000000 Eh       

---------------
SCF CONVERGENCE
---------------

  Last Energy change         ...   -1.2815e-09  Tolerance :   1.0000e-08
  Last MAX-Density change    ...    5.6991e-06  Tolerance :   1.0000e-07
  Last RMS-Density change    ...    1.4367e-07  Tolerance :   5.0000e-09
  Last Orbital Gradient      ...    2.2015e-06  Tolerance :   1.0000e-05
  Last Orbital Rotation      ...    2.6847e-06  Tolerance :   1.0000e-05

             **** THE GBW FILE WAS UPDATED (9-194_DFT_A.gbw) ****
             **** DENSITY FILE WAS UPDATED (9-194_DFT_A.scfp.tmp) ****
             **** ENERGY FILE WAS UPDATED (9-194_DFT_A.en.tmp) ****
----------------
ORBITAL ENERGIES
----------------

  NO   OCC          E(Eh)            E(eV) 
   0   2.0000     -19.230826      -523.2974 
   1   2.0000     -10.311032      -280.5774 
   2   2.0000      -1.153969       -31.4011 
   3   2.0000      -0.789309       -21.4782 
   4   2.0000      -0.622493       -16.9389 
   5   2.0000      -0.543861       -14.7992 
   6   2.0000      -0.537724       -14.6322 
   7   2.0000      -0.433008       -11.7827 
   8   2.0000      -0.367364        -9.9965 
   9   0.0000       0.066249         1.8027 
  10   0.0000       0.133556         3.6343 
  11   0.0000       0.146524         3.9871 
  12   0.0000       0.175781         4.7832 
  13   0.0000       0.185390         5.0447 
  14   0.0000       0.205220         5.5843 
  15   0.0000       0.212722         5.7885 
  16   0.0000       0.225489         6.1359 
  17   0.0000       0.260381         7.0853 
  18   0.0000       0.287162         7.8141 
  19   0.0000       0.303468         8.2578 
  20   0.0000       0.316495         8.6123 
  21   0.0000       0.336553         9.1581 
  22   0.0000       0.349712         9.5161 
  23   0.0000       0.392223        10.6729 
  24   0.0000       0.412476        11.2241 
  25   0.0000       0.440675        11.9914 
  26   0.0000       0.464557        12.6412 
  27   0.0000       0.481654        13.1065 
  28   0.0000       0.524119        14.2620 
  29   0.0000       0.538437        14.6516 
  30   0.0000       0.558574        15.1996 
  31   0.0000       0.575490        15.6599 
  32   0.0000       0.595557        16.2059 
  33   0.0000       0.619773        16.8649 
  34   0.0000       0.648973        17.6595 
  35   0.0000       0.694051        18.8861 
  36   0.0000       0.704578        19.1725 
  37   0.0000       0.772343        21.0165 
  38   0.0000       0.779291        21.2056 
  39   0.0000       0.812125        22.0990 
  40   0.0000       0.832114        22.6430 
  41   0.0000       0.855258        23.2728 
  42   0.0000       0.885924        24.1072 
  43   0.0000       0.937520        25.5112 
  44   0.0000       0.988547        26.8997 
  45   0.0000       1.045494        28.4493 
  46   0.0000       1.057934        28.7879 
  47   0.0000       1.134169        30.8623 
  48   0.0000       1.154705        31.4211 
  49   0.0000       1.163289        31.6547 
  50   0.0000       1.186211        32.2784 
  51   0.0000       1.195583        32.5335 
  52   0.0000       1.261543        34.3283 
  53   0.0000       1.346042        36.6277 
  54   0.0000       1.376860        37.4663 
  55   0.0000       1.407351        38.2960 
  56   0.0000       1.467982        39.9458 
  57   0.0000       1.496832        40.7309 
  58   0.0000       1.566514        42.6270 
  59   0.0000       1.583782        43.0969 
  60   0.0000       1.610913        43.8352 
  61   0.0000       1.632937        44.4345 
  62   0.0000       1.655251        45.0417 
  63   0.0000       1.715209        46.6732 
  64   0.0000       1.720743        46.8238 
  65   0.0000       1.790305        48.7167 
  66   0.0000       1.852573        50.4111 
  67   0.0000       1.938158        52.7400 
  68   0.0000       1.955031        53.1991 
  69   0.0000       1.978088        53.8265 
  70   0.0000       2.022643        55.0389 
  71   0.0000       2.051428        55.8222 
  72   0.0000       2.110484        57.4292 
  73   0.0000       2.143972        58.3405 
  74   0.0000       2.202837        59.9422 
  75   0.0000       2.209337        60.1191 
  76   0.0000       2.225834        60.5680 
  77   0.0000       2.261737        61.5450 
  78   0.0000       2.274469        61.8914 
  79   0.0000       2.306237        62.7559 
  80   0.0000       2.341580        63.7176 
  81   0.0000       2.377381        64.6918 
  82   0.0000       2.460629        66.9571 
  83   0.0000       2.477658        67.4205 
  84   0.0000       2.486080        67.6497 
  85   0.0000       2.540990        69.1439 
  86   0.0000       2.557891        69.6037 
  87   0.0000       2.597607        70.6845 
  88   0.0000       2.614414        71.1418 
  89   0.0000       2.653820        72.2141 
  90   0.0000       2.690859        73.2220 
  91   0.0000       2.754192        74.9454 
  92   0.0000       2.799740        76.1848 
  93   0.0000       2.846211        77.4493 
  94   0.0000       2.872695        78.1700 
  95   0.0000       2.977453        81.0206 
  96   0.0000       3.002190        81.6937 
  97   0.0000       3.016547        82.0844 
  98   0.0000       3.074846        83.6708 
  99   0.0000       3.102379        84.4200 
 100   0.0000       3.121635        84.9440 
 101   0.0000       3.158838        85.9563 
 102   0.0000       3.198199        87.0274 
 103   0.0000       3.231323        87.9288 
 104   0.0000       3.292285        89.5876 
 105   0.0000       3.308828        90.0378 
 106   0.0000       3.366043        91.5947 
 107   0.0000       3.395729        92.4025 
 108   0.0000       3.473692        94.5240 
 109   0.0000       3.489957        94.9666 
 110   0.0000       3.529962        96.0552 
 111   0.0000       3.623355        98.5965 
 112   0.0000       3.649789        99.3158 
 113   0.0000       3.671785        99.9143 
 114   0.0000       3.682999       100.2195 
 115   0.0000       3.693829       100.5142 
 116   0.0000       3.698974       100.6542 
 117   0.0000       4.016835       109.3036 
 118   0.0000       4.084617       111.1481 
 119   0.0000       4.116215       112.0079 
 120   0.0000       4.226228       115.0015 
 121   0.0000       4.264380       116.0397 
 122   0.0000       4.313851       117.3859 
 123   0.0000       4.335462       117.9739 
 124   0.0000       4.378298       119.1395 
 125   0.0000       4.405897       119.8906 
 126   0.0000       4.510190       122.7285 
 127   0.0000       4.537507       123.4718 
 128   0.0000       4.546134       123.7066 
 129   0.0000       4.590167       124.9048 
 130   0.0000       4.667582       127.0114 
 131   0.0000       5.026221       136.7704 
 132   0.0000       5.057800       137.6297 
 133   0.0000       5.103252       138.8665 
 134   0.0000       5.390972       146.6958 
 135   0.0000       5.395769       146.8263 
 136   0.0000       5.471782       148.8948 
 137   0.0000       5.485606       149.2709 
 138   0.0000       5.563013       151.3773 
 139   0.0000       5.569625       151.5572 
 140   0.0000       5.848161       159.1365 
 141   0.0000       5.912597       160.8899 
 142   0.0000       5.927595       161.2981 
 143   0.0000       6.018364       163.7680 
 144   0.0000       6.075428       165.3208 
 145   0.0000       6.348515       172.7519 
 146   0.0000       6.544090       178.0738 
 147   0.0000       6.685208       181.9138 
 148   0.0000       6.769898       184.2183 
 149   0.0000       6.788595       184.7271 
 150   0.0000       6.843286       186.2153 
 151   0.0000       6.861996       186.7244 
 152   0.0000       7.055086       191.9787 
 153   0.0000       7.135008       194.1534 
 154   0.0000       7.275810       197.9848 
 155   0.0000       7.333604       199.5575 
 156   0.0000       7.530517       204.9158 
 157   0.0000       8.257215       224.6903 
 158   0.0000       8.912310       242.5163 
 159   0.0000       9.385877       255.4027 
 160   0.0000       9.524128       259.1647 
 161   0.0000       9.642787       262.3936 
 162   0.0000       9.791898       266.4511 
 163   0.0000       9.879984       268.8480 
 164   0.0000       9.947449       270.6839 
[...]
  82   0.0000       2.436083        66.2892 
  83   0.0000       2.448672        66.6318 
  84   0.0000       2.551295        69.4243 
  85   0.0000       2.558066        69.6085 
  86   0.0000       2.586856        70.3919 
  87   0.0000       2.642518        71.9066 
  88   0.0000       2.671523        72.6958 
  89   0.0000       2.687526        73.1313 
  90   0.0000       2.717235        73.9397 
  91   0.0000       2.779443        75.6325 
  92   0.0000       2.856646        77.7333 
  93   0.0000       2.889901        78.6382 
  94   0.0000       2.921326        79.4933 
  95   0.0000       2.954637        80.3998 
  96   0.0000       2.975885        80.9779 
  97   0.0000       3.006963        81.8236 
  98   0.0000       3.091796        84.1320 
  99   0.0000       3.111470        84.6674 
 100   0.0000       3.142085        85.5005 
 101   0.0000       3.188638        86.7673 
 102   0.0000       3.224390        87.7401 
 103   0.0000       3.247401        88.3663 
 104   0.0000       3.293021        89.6077 
 105   0.0000       3.347346        91.0859 
 106   0.0000       3.349139        91.1347 
 107   0.0000       3.387892        92.1892 
 108   0.0000       3.431718        93.3818 
 109   0.0000       3.497761        95.1789 
 110   0.0000       3.585329        97.5618 
 111   0.0000       3.618206        98.4564 
 112   0.0000       3.639629        99.0394 
 113   0.0000       3.663274        99.6828 
 114   0.0000       3.681522       100.1793 
 115   0.0000       3.717673       101.1630 
 116   0.0000       3.787076       103.0516 
 117   0.0000       4.034818       109.7930 
 118   0.0000       4.152100       112.9844 
 119   0.0000       4.183477       113.8382 
 120   0.0000       4.189247       113.9952 
 121   0.0000       4.273508       116.2881 
 122   0.0000       4.304005       117.1179 
 123   0.0000       4.322735       117.6276 
 124   0.0000       4.382735       119.2603 
 125   0.0000       4.443743       120.9204 
 126   0.0000       4.514817       122.8544 
 127   0.0000       4.552207       123.8718 
 128   0.0000       4.582853       124.7058 
 129   0.0000       4.594214       125.0149 
 130   0.0000       4.634479       126.1106 
 131   0.0000       5.038924       137.1161 
 132   0.0000       5.103216       138.8656 
 133   0.0000       5.121151       139.3536 
 134   0.0000       5.311511       144.5336 
 135   0.0000       5.449521       148.2890 
 136   0.0000       5.484332       149.2363 
 137   0.0000       5.506831       149.8485 
 138   0.0000       5.584648       151.9660 
 139   0.0000       5.817688       158.3074 
 140   0.0000       5.850617       159.2034 
 141   0.0000       5.898156       160.4970 
 142   0.0000       5.918587       161.0529 
 143   0.0000       6.018225       163.7642 
 144   0.0000       6.069376       165.1561 
 145   0.0000       6.412872       174.5031 
 146   0.0000       6.613298       179.9570 
 147   0.0000       6.693179       182.1307 
 148   0.0000       6.770130       184.2246 
 149   0.0000       6.808675       185.2735 
 150   0.0000       6.855395       186.5448 
 151   0.0000       6.915822       188.1891 
 152   0.0000       7.051345       191.8768 
 153   0.0000       7.200916       195.9469 
 154   0.0000       7.258147       197.5042 
 155   0.0000       7.398433       201.3216 
 156   0.0000       7.608273       207.0316 
 157   0.0000       8.199492       223.1195 
 158   0.0000       8.953337       243.6327 
 159   0.0000       9.359725       254.6911 
 160   0.0000       9.600412       261.2405 
 161   0.0000       9.614801       261.6320 
 162   0.0000       9.845758       267.9167 
 163   0.0000       9.971560       271.3399 
 164   0.0000      10.009904       272.3833 
 165   0.0000      10.227895       278.3152 
 166   0.0000      11.328865       308.2741 
 167   0.0000      19.198356       522.4138 
 168   0.0000      22.475161       611.5802 
 169   0.0000      43.699659      1189.1282 
 170   0.0000      66.041068      1797.0688 
 171   0.0000     126.403536      3439.6151 

                    ********************************
                    * MULLIKEN POPULATION ANALYSIS *
                    ********************************

-----------------------
MULLIKEN ATOMIC CHARGES
-----------------------
   0 C :    0.002152
   1 O :    0.002267
   2 H :   -0.014391
   3 H :   -0.000069
   4 H :   -0.000262
   5 H :   -0.000727
   6 C :   -0.177607
   7 O :   -0.445068
   8 H :    0.315239
   9 H :    0.110006
  10 H :    0.101043
  11 H :    0.107413
Sum of atomic charges:   -0.0000000

--------------------------------
MULLIKEN REDUCED ORBITAL CHARGES
--------------------------------
  0 C s       :    -0.001798  s :    -0.001798
      pz      :    -0.000001  p :    -0.000398
      px      :    -0.000329
      py      :    -0.000068
      dz2     :    -0.000004  d :     0.000043
      dxz     :     0.000017
      dyz     :    -0.000000
      dx2y2   :     0.000035
      dxy     :    -0.000005
      f0      :     0.000000  f :    -0.000000
      f+1     :    -0.000000
      f-1     :    -0.000000
      f+2     :    -0.000000
      f-2     :     0.000000
      f+3     :     0.000000
      f-3     :     0.000000
  1 O s       :    -0.000910  s :    -0.000910
      pz      :     0.000162  p :    -0.001479
      px      :    -0.001576
      py      :    -0.000065
      dz2     :     0.000031  d :     0.000121
      dxz     :     0.000003
      dyz     :     0.000000
      dx2y2   :     0.000080
      dxy     :     0.000007
      f0      :    -0.000000  f :     0.000001
      f+1     :     0.000001
      f-1     :     0.000000
      f+2     :    -0.000000
      f-2     :    -0.000000
      f+3     :     0.000001
      f-3     :     0.000000
  2 H s       :     0.013852  s :     0.013852
      pz      :    -0.000079  p :     0.000539
      px      :     0.000628
      py      :    -0.000011
  3 H s       :     0.000069  s :     0.000069
      pz      :     0.000000  p :    -0.000000
      px      :    -0.000000
      py      :    -0.000000
  4 H s       :     0.000262  s :     0.000262
      pz      :    -0.000000  p :    -0.000000
      px      :    -0.000000
      py      :     0.000000
  5 H s       :     0.000730  s :     0.000730
      pz      :    -0.000003  p :    -0.000003
      px      :    -0.000000
      py      :     0.000000
  6 C s       :     3.216749  s :     3.216749
      pz      :     0.860951  p :     2.843713
      px      :     0.956749
      py      :     1.026013
      dz2     :     0.039068  d :     0.108556
      dxz     :     0.020238
      dyz     :     0.016521
      dx2y2   :     0.011859
      dxy     :     0.020870
      f0      :     0.001443  f :     0.008589
      f+1     :     0.002003
      f-1     :     0.000714
      f+2     :     0.001508
      f-2     :     0.001788
      f+3     :     0.000653
      f-3     :     0.000478
  7 O s       :     3.798493  s :     3.798493
      pz      :     1.482878  p :     4.612494
      px      :     1.536747
      py      :     1.592869
      dz2     :     0.004734  d :     0.032305
      dxz     :     0.010840
      dyz     :     0.004030
      dx2y2   :     0.004034
      dxy     :     0.008667
      f0      :     0.000290  f :     0.001776
      f+1     :     0.000180
      f-1     :     0.000286
      f+2     :     0.000199
      f-2     :     0.000555
      f+3     :     0.000157
      f-3     :     0.000109
  8 H s       :     0.634058  s :     0.634058
      pz      :     0.016211  p :     0.050702
      px      :     0.015546
      py      :     0.018946
  9 H s       :     0.871693  s :     0.871693
      pz      :     0.009006  p :     0.018300
      px      :     0.004896
      py      :     0.004398
 10 H s       :     0.878796  s :     0.878796
      pz      :     0.003539  p :     0.020161
      px      :     0.005929
      py      :     0.010692
 11 H s       :     0.872721  s :     0.872721
      pz      :     0.005362  p :     0.019866
      px      :     0.007448
      py      :     0.007056


                     *******************************
                     * LOEWDIN POPULATION ANALYSIS *
                     *******************************

----------------------
LOEWDIN ATOMIC CHARGES
----------------------
   0 C :   -0.001721
   1 O :   -0.008948
   2 H :   -0.053837
   3 H :   -0.000023
   4 H :   -0.000061
   5 H :   -0.000469
   6 C :   -0.423407
   7 O :    0.023812
   8 H :    0.162624
   9 H :    0.115220
  10 H :    0.094416
  11 H :    0.092394

-------------------------------
LOEWDIN REDUCED ORBITAL CHARGES
-------------------------------
  0 C s       :     0.000150  s :     0.000150
      pz      :     0.000426  p :     0.001551
      px      :     0.000987
      py      :     0.000139
      dz2     :     0.000004  d :     0.000019
      dxz     :     0.000003
      dyz     :     0.000002
      dx2y2   :     0.000008
      dxy     :     0.000002
      f0      :     0.000000  f :     0.000001
      f+1     :     0.000000
      f-1     :     0.000000
      f+2     :     0.000000
      f-2     :     0.000000
      f+3     :     0.000000
      f-3     :     0.000000
  1 O s       :     0.000554  s :     0.000554
      pz      :     0.000375  p :     0.008289
      px      :     0.007301
      py      :     0.000613
      dz2     :     0.000016  d :     0.000101
      dxz     :     0.000004
      dyz     :     0.000002
      dx2y2   :     0.000060
      dxy     :     0.000019
      f0      :     0.000000  f :     0.000004
      f+1     :     0.000001
      f-1     :     0.000000
      f+2     :     0.000000
      f-2     :     0.000000
      f+3     :     0.000001
      f-3     :     0.000001
  2 H s       :     0.047550  s :     0.047550
      pz      :     0.000436  p :     0.006287
      px      :     0.005522
      py      :     0.000328
  3 H s       :     0.000022  s :     0.000022
      pz      :     0.000000  p :     0.000001
      px      :     0.000000
      py      :     0.000000
  4 H s       :     0.000061  s :     0.000061
      pz      :     0.000000  p :     0.000000
      px      :     0.000000
      py      :     0.000000
  5 H s       :     0.000466  s :     0.000466
      pz      :     0.000000  p :     0.000003
      px      :     0.000002
      py      :     0.000001
  6 C s       :     2.852824  s :     2.852824
      pz      :     0.959087  p :     3.058104
      px      :     1.032430
      py      :     1.066587
      dz2     :     0.121766  d :     0.449442
      dxz     :     0.112675
      dyz     :     0.071041
      dx2y2   :     0.039831
      dxy     :     0.104130
      f0      :     0.012499  f :     0.063037
      f+1     :     0.012422
      f-1     :     0.007081
      f+2     :     0.012357
      f-2     :     0.009350
      f+3     :     0.005197
      f-3     :     0.004131
  7 O s       :     3.326050  s :     3.326050
      pz      :     1.481702  p :     4.566640
      px      :     1.542354
      py      :     1.542585
      dz2     :     0.014292  d :     0.077955
      dxz     :     0.023476
      dyz     :     0.014912
      dx2y2   :     0.008482
      dxy     :     0.016794
      f0      :     0.001033  f :     0.005544
      f+1     :     0.000798
      f-1     :     0.000542
      f+2     :     0.000737
      f-2     :     0.001375
      f+3     :     0.000618
      f-3     :     0.000442
  8 H s       :     0.669220  s :     0.669220
      pz      :     0.046036  p :     0.168156
      px      :     0.060528
      py      :     0.061592
  9 H s       :     0.833974  s :     0.833974
      pz      :     0.024183  p :     0.050806
      px      :     0.014945
      py      :     0.011678
 10 H s       :     0.845102  s :     0.845102
      pz      :     0.011321  p :     0.060482
      px      :     0.018024
      py      :     0.031138
 11 H s       :     0.844101  s :     0.844101
      pz      :     0.016754  p :     0.063505
      px      :     0.023425
      py      :     0.023326


                      *****************************
                      * MAYER POPULATION ANALYSIS *
                      *****************************

  NA   - Mulliken gross atomic population
  ZA   - Total nuclear charge
  QA   - Mulliken gross atomic charge
  VA   - Mayer's total valence
  BVA  - Mayer's bonded valence
  FA   - Mayer's free valence

  ATOM       NA         ZA         QA         VA         BVA        FA
  0 C     -0.0022     0.0000     0.0022    -0.0043    -0.0043     0.0000
  1 O     -0.0023     0.0000     0.0023    -0.0045    -0.0045     0.0000
  2 H      0.0144     0.0000    -0.0144     0.0286     0.0286    -0.0000
  3 H      0.0001     0.0000    -0.0001     0.0001     0.0001    -0.0000
  4 H      0.0003     0.0000    -0.0003     0.0005     0.0005     0.0000
  5 H      0.0007     0.0000    -0.0007     0.0015     0.0015     0.0000
  6 C      6.1776     6.0000    -0.1776     3.9348     3.9348    -0.0000
  7 O      8.4451     8.0000    -0.4451     1.9157     1.9157     0.0000
  8 H      0.6848     1.0000     0.3152     0.9122     0.9122     0.0000
  9 H      0.8900     1.0000     0.1100     0.9548     0.9548    -0.0000
 10 H      0.8990     1.0000     0.1010     0.9528     0.9528    -0.0000
 11 H      0.8926     1.0000     0.1074     0.9579     0.9579     0.0000

  Mayer bond orders larger than 0.1
B(  6-C ,  7-O ) :   0.9973 B(  6-C ,  9-H ) :   0.9781 B(  6-C , 10-H ) :   0.9695 
B(  6-C , 11-H ) :   0.9817 B(  7-O ,  8-H ) :   0.9003 

-------
TIMINGS
-------

Total SCF time: 0 days 0 hours 0 min 10 sec 

Total time                  ....      10.073 sec
Sum of individual times     ....       9.809 sec  ( 97.4%)

Fock matrix formation       ....       9.314 sec  ( 92.5%)
  XC integration            ....       0.639 sec  (  6.9% of F)
    Basis function eval.    ....       0.082 sec  ( 12.8% of XC)
    Density eval.           ....       0.062 sec  (  9.7% of XC)
    XC-Functional eval.     ....       0.089 sec  ( 13.9% of XC)
    XC-Potential eval.      ....       0.081 sec  ( 12.7% of XC)
Diagonalization             ....       0.041 sec  (  0.4%)
Density matrix formation    ....       0.005 sec  (  0.1%)
Population analysis         ....       0.016 sec  (  0.2%)
Initial guess               ....       0.107 sec  (  1.1%)
Orbital Transformation      ....       0.000 sec  (  0.0%)
Orbital Orthonormalization  ....       0.000 sec  (  0.0%)
DIIS solution               ....       0.023 sec  (  0.2%)
SOSCF solution              ....       0.023 sec  (  0.2%)
Grid generation             ....       0.280 sec  (  2.8%)


-------------------------------------------------------------------------------
                          DFT DISPERSION CORRECTION                            
                                                                               
                              DFTD3 V3.1  Rev 1                                
                              USING zero damping                               
-------------------------------------------------------------------------------
The omegaB97X-D3 functional is recognized. Fit by Chai et al.
Active option DFTDOPT                   ...         3   

molecular C6(AA) [au] = 208.702918 


            DFT-D V3
 parameters
 s6 scaling factor         :     1.0000 
 rs6 scaling factor        :     1.2810 
 s8 scaling factor         :     1.0000 
 rs8 scaling factor        :     1.0940 
 Damping factor alpha6     :    14.0000 
 Damping factor alpha8     :    16.0000 
 ad hoc parameters k1-k3   :    16.0000     1.3333    -4.0000 

 Edisp/kcal,au: -0.148620974959  -0.000236842574 
 E6   /kcal   :  -0.029444840 
 E8   /kcal   :  -0.119176135 
 % E8         :  80.187964917 

-------------------------   ----------------
Dispersion correction           -0.000236843
-------------------------   ----------------


-------------------------   --------------------
FINAL SINGLE POINT ENERGY      -115.730810372972
-------------------------   --------------------


                            ***************************************
                            *     ORCA property calculations      *
                            ***************************************

                                    ---------------------
                                    Active property flags
                                    ---------------------
   (+) Dipole Moment


------------------------------------------------------------------------------
                       ORCA ELECTRIC PROPERTIES CALCULATION
------------------------------------------------------------------------------

Dipole Moment Calculation                       ... on
Quadrupole Moment Calculation                   ... off
Polarizability Calculation                      ... off
GBWName                                         ... 9-194_DFT_B.gbw
Electron density file                           ... 9-194_DFT_B.scfp.tmp
The origin for moment calculation is the CENTER OF MASS  = (-1.985448, 15.349184  3.757977)

-------------
DIPOLE MOMENT
-------------
                                X             Y             Z
Electronic contribution:     -1.11505      -0.66592       1.51002
Nuclear contribution   :      1.75982       0.43085      -1.60316
                        -----------------------------------------
Total Dipole Moment    :      0.64477      -0.23507      -0.09314
                        -----------------------------------------
Magnitude (a.u.)       :      0.69258
Magnitude (Debye)      :      1.76039



--------------------
Rotational spectrum 
--------------------
 
Rotational constants in cm-1:     4.382691     0.860204     0.832537 
Rotational constants in MHz : 131389.783227 25788.276731 24958.819361 

 Dipole components along the rotational axes: 
x,y,z [a.u.] :    -0.305810    -0.620743    -0.028664 
x,y,z [Debye]:    -0.777307    -1.577804    -0.072858 

 
------------------------------------------------------------------------------
                      ORCA CHELPG CHARGES GENERATION
------------------------------------------------------------------------------

GBW file                           ... 9-194_DFT_B.gbw

Reading the GBW file               ... done

Grid spacing                       ...     0.300000
Point Cut-Off                      ...     2.800000
Van-der-Waals Radii                ...        COSMO
Total charge                       ...            0


Number of points X direction       ...           38
Number of points Y direction       ...           25
Number of points Z direction       ...           27
Maximum number of possible points  ...        25650
Final number of points             ...         5935


CHELPG Charges            
--------------------------------
  0   C   :      -0.015408
  1   O   :      -0.001699
  2   H   :      -0.000593
  3   H   :      -0.032805
  4   H   :       0.042885
  5   H   :       0.004286
  6   C   :       0.135584
  7   O   :      -0.590529
  8   H   :       0.406808
  9   H   :       0.041507
 10   H   :       0.008767
 11   H   :       0.001198
--------------------------------
Total charge:    -0.000000
--------------------------------

CHELPG charges calculated...

Timings for individual parts in CHELPG calculation:
Grid generation                 ...        0.001 sec (=   0.000 min)
Potential calculation           ...        1.245 sec (=   0.021 min)
Fit to the potential            ...        0.002 sec (=   0.000 min)
------------------------------------------------------------------------------


Timings for individual modules:

Sum of individual times         ...       12.539 sec (=   0.209 min)
GTO integral calculation        ...        0.726 sec (=   0.012 min)   5.8 %
SCF iterations                  ...       10.536 sec (=   0.176 min)  84.0 %
CHELPG charge generation        ...        1.277 sec (=   0.021 min)  10.2 %



                             ****ORCA TERMINATED NORMALLY****
TOTAL RUN TIME: 0 days 0 hours 0 minutes 47 seconds 506 msec
