
                                 *****************
                                 * O   R   C   A *
                                 *****************

           --- An Ab Initio, DFT and Semiempirical electronic structure package ---

                  #######################################################
                  #                        -***-                        #
                  #          Department of theory and spectroscopy      #
                  #               Directorship: Frank Neese             #
                  #        Max Planck Institute fuer Kohlenforschung    #
                  #                Kaiser Wilhelm Platz 1               #
                  #                 D-45470 Muelheim/Ruhr               #
                  #                      Germany                        #
                  #                                                     #
                  #                  All rights reserved                #
                  #                        -***-                        #
                  #######################################################


                         Program Version 4.1.2  - RELEASE  -


 With contributions from (in alphabetic order):
   Daniel Aravena         : Magnetic Properties
   Michael Atanasov       : Ab Initio Ligand Field Theory
   Alexander A. Auer      : GIAO ZORA
   Ute Becker             : Parallelization
   Giovanni Bistoni       : ED, Open-shell LED
   Martin Brehm           : Molecular dynamics
   Dmytro Bykov           : SCF Hessian
   Vijay G. Chilkuri      : MRCI spin determinant printing
   Dipayan Datta          : RHF DLPNO-CCSD density
   Achintya Kumar Dutta   : EOM-CC, STEOM-CC
   Dmitry Ganyushin       : Spin-Orbit,Spin-Spin,Magnetic field MRCI
   Miquel Garcia          : C-PCM Hessian
   Yang Guo               : DLPNO-NEVPT2, CIM, IAO-localization
   Andreas Hansen         : Spin unrestricted coupled pair/coupled cluster methods
   Benjamin Helmich-Paris : CASSCF linear response (MC-RPA)
   Lee Huntington         : MR-EOM, pCC
   Robert Izsak           : Overlap fitted RIJCOSX, COSX-SCS-MP3, EOM
   Christian Kollmar      : KDIIS, OOCD, Brueckner-CCSD(T), CCSD density
   Simone Kossmann        : Meta GGA functionals, TD-DFT gradient, OOMP2, MP2 Hessian
   Martin Krupicka        : AUTO-CI
   Lucas Lang             : DCDCAS
   Dagmar Lenk            : GEPOL surface, SMD
   Dimitrios Liakos       : Extrapolation schemes; parallel MDCI
   Dimitrios Manganas     : ROCIS; embedding schemes
   Dimitrios Pantazis     : SARC Basis sets
   Taras Petrenko         : DFT Hessian,TD-DFT gradient, ASA, ECA, R-Raman, ABS, FL, XAS/XES, NRVS
   Peter Pinski           : DLPNO-MP2, DLPNO-MP2 Gradient
   Christoph Reimann      : Effective Core Potentials
   Marius Retegan         : Local ZFS, SOC
   Christoph Riplinger    : Optimizer, TS searches, QM/MM, DLPNO-CCSD(T), (RO)-DLPNO pert. Triples
   Tobias Risthaus        : Range-separated hybrids, TD-DFT gradient, RPA, STAB
   Michael Roemelt        : Restricted open shell CIS
   Masaaki Saitow         : Open-shell DLPNO
   Barbara Sandhoefer     : DKH picture change effects
   Avijit Sen             : IP-ROCIS
   Kantharuban Sivalingam : CASSCF convergence, NEVPT2, FIC-MRCI
   Bernardo de Souza      : ESD, SOC TD-DFT
   Georgi Stoychev        : AutoAux, RI-MP2 NMR
   Willem Van den Heuvel  : Paramagnetic NMR
   Boris Wezisla          : Elementary symmetry handling
   Frank Wennmohs         : Technical directorship


 We gratefully acknowledge several colleagues who have allowed us to
 interface, adapt or use parts of their codes:
   Stefan Grimme, W. Hujo, H. Kruse,             : VdW corrections, initial TS optimization,
                  C. Bannwarth                     DFT functionals, gCP, sTDA/sTD-DF
   Ed Valeev                                     : LibInt (2-el integral package), F12 methods
   Garnet Chan, S. Sharma, J. Yang, R. Olivares  : DMRG
   Ulf Ekstrom                                   : XCFun DFT Library
   Mihaly Kallay                                 : mrcc  (arbitrary order and MRCC methods)
   Andreas Klamt, Michael Diedenhofen            : otool_cosmo (COSMO solvation model)
   Jiri Pittner, Ondrej Demel                    : Mk-CCSD
   Frank Weinhold                                : gennbo (NPA and NBO analysis)
   Christopher J. Cramer and Donald G. Truhlar   : smd solvation model
   Lars Goerigk                                  : TD-DFT with DH, B97 family of functionals
   V. Asgeirsson, H. Jonsson                     : NEB implementation
   FAccTs GmbH                                   : IRC, NEB, NEB-TS, Multilevel


 Your calculation uses the libint2 library for the computation of 2-el integrals
 For citations please refer to: http://libint.valeyev.net

 This ORCA versions uses:
   CBLAS   interface :  Fast vector & matrix operations
   LAPACKE interface :  Fast linear algebra routines
   SCALAPACK package :  Parallel linear algebra routines


Your calculation utilizes the atom-pairwise dispersion correction
with the zero-damping scheme (D30)
Cite in your paper:
S.Grimme, J.Antony, S.Ehrlich and H.Krieg, J.Chem.Phys., 132, (2010), 154104 
   

XCFun DFT library Copyright 2009-2010 Ulf Ekstrom and contributors.
See http://admol.org/xcfun for more information. This is free soft-
ware; see the source code for copying conditions. There is ABSOLUTELY
NO WARRANTY; not even for MERCHANTABILITY or FITNESS FOR A PARTICULAR
PURPOSE. For details see the documentation. Scientific users of this 
library should cite U. Ekstrom, L. Visscher, R. Bast, A. J. Thorvald-
sen and K. Ruud; J.Chem.Theor.Comp. 2010, DOI: 10.1021/ct100117s
XCFun Version 0.99 
----- Orbital basis set information -----
Your calculation utilizes the basis: def2-TZVP
   F. Weigend and R. Ahlrichs, Phys. Chem. Chem. Phys. 7, 3297 (2005).

================================================================================
                                        WARNINGS
                       Please study these warnings very carefully!
================================================================================


INFO   : the flag for use of LIBINT has been found!

================================================================================
                                       INPUT FILE
================================================================================
NAME = 70.in
|  1> #Run DFT-D3 single point of the dimer
|  2> ! wB97X-D3 def2-TZVP TIGHTSCF  CHELPG PAL8
|  3> 
|  4> %base "70_charges"
|  5> 
|  6> %scf
|  7> MaxIter 1000
|  8> end
|  9> %output
| 10>   Print[ P_Mayer ] 1
| 11>   Print[ P_NatPop ] 1
| 12>   Print[ P_Hirshfeld ] 1
| 13>   Print[ P_Mulliken ] 1
| 14>   Print [ P_Loewdin ] 1
| 15> end
| 16> 
| 17> * xyz 0 1
| 18>   C                      -4.902399            1.529532             6.620932            
| 19>   O                      -4.184793            2.412390             7.502470            
| 20>   H                      -4.650581            2.309619             8.354580            
| 21>   H                      -5.752063            1.147483             7.123201            
| 22>   H                      -5.201289            1.910354             5.720830            
| 23>   H                      -4.322883            0.653788             6.476745            
| 24> *
| 25> 
| 26>                          ****END OF INPUT****
================================================================================

                       ****************************
                       * Single Point Calculation *
                       ****************************

---------------------------------
CARTESIAN COORDINATES (ANGSTROEM)
---------------------------------
  C     -4.902399    1.529532    6.620932
  O     -4.184793    2.412390    7.502470
  H     -4.650581    2.309619    8.354580
  H     -5.752063    1.147483    7.123201
  H     -5.201289    1.910354    5.720830
  H     -4.322883    0.653788    6.476745

----------------------------
CARTESIAN COORDINATES (A.U.)
----------------------------
  NO LB      ZA    FRAG     MASS         X           Y           Z
   0 C     6.0000    0    12.011   -9.264192    2.890397   12.511748
   1 O     8.0000    0    15.999   -7.908113    4.558756   14.177614
   2 H     1.0000    0     1.008   -8.788324    4.364547   15.787868
   3 H     1.0000    0     1.008  -10.869824    2.168429   13.460899
   4 H     1.0000    0     1.008   -9.829012    3.610046   10.810802
   5 H     1.0000    0     1.008   -8.169065    1.235480   12.239274

--------------------------------
INTERNAL COORDINATES (ANGSTROEM)
--------------------------------
 C      0   0   0     0.000000000000     0.00000000     0.00000000
 O      1   0   0     1.439272686062     0.00000000     0.00000000
 H      2   1   0     0.976530486716   103.41938980     0.00000000
 H      1   2   3     1.058378240355   109.33104442     6.56834161
 H      1   2   3     1.022029470313   117.17224386   130.52011956
 H      1   2   3     1.059979357705   108.51267271   256.27527377

---------------------------
INTERNAL COORDINATES (A.U.)
---------------------------
 C      0   0   0     0.000000000000     0.00000000     0.00000000
 O      1   0   0     2.719831208690     0.00000000     0.00000000
 H      2   1   0     1.845375181317   103.41938980     0.00000000
 H      1   2   3     2.000045020373   109.33104442     6.56834161
 H      1   2   3     1.931355799688   117.17224386   130.52011956
 H      1   2   3     2.003070693672   108.51267271   256.27527377

---------------------
BASIS SET INFORMATION
---------------------
There are 3 groups of distinct atoms

 Group   1 Type C   : 11s6p2d1f contracted to 5s3p2d1f pattern {62111/411/11/1}
 Group   2 Type O   : 11s6p2d1f contracted to 5s3p2d1f pattern {62111/411/11/1}
 Group   3 Type H   : 5s1p contracted to 3s1p pattern {311/1}

Atom   0C    basis set group =>   1
Atom   1O    basis set group =>   2
Atom   2H    basis set group =>   3
Atom   3H    basis set group =>   3
Atom   4H    basis set group =>   3
Atom   5H    basis set group =>   3


           ************************************************************
           *        Program running with 8 parallel MPI-processes     *
           *              working on a common directory               *
           ************************************************************
------------------------------------------------------------------------------
                           ORCA GTO INTEGRAL CALCULATION
------------------------------------------------------------------------------

                         BASIS SET STATISTICS AND STARTUP INFO

 # of primitive gaussian shells          ...   64
 # of primitive gaussian functions       ...  124
 # of contracted shells                  ...   38
 # of contracted basis functions         ...   86
 Highest angular momentum                ...    3
 Maximum contraction depth               ...    6
 Integral package used                   ... LIBINT
 Integral threshhold            Thresh   ...  2.500e-11
 Primitive cut-off              TCut     ...  2.500e-12


------------------------------ INTEGRAL EVALUATION ----------------------------


 * One electron integrals 
 Pre-screening matrix                    ... done
 Shell pair data                         ... done (   0.000 sec)



           ************************************************************
           *        Program running with 8 parallel MPI-processes     *
           *              working on a common directory               *
           ************************************************************
-------------------------------------------------------------------------------
                                 ORCA SCF
-------------------------------------------------------------------------------

------------
SCF SETTINGS
------------
Hamiltonian:
 Density Functional     Method          .... DFT(GTOs)
 Exchange Functional    Exchange        .... WB97X-D3
 Correlation Functional Correlation     .... WB97X-D3
 Gradients option       PostSCFGGA      .... off
 Hybrid DFT is turned on
   Fraction HF Exchange ScalHFX         ....  0.195728
   Scaling of DF-GGA-X  ScalDFX         ....  0.000000
   Scaling of DF-GGA-C  ScalDFC         ....  1.000000
   Scaling of DF-LDA-C  ScalLDAC        ....  1.000000
   Perturbative correction              ....  0.000000
   Density functional embedding theory  .... OFF
 Long-range corrected/Screened/Range-Separated Hybrid DFT is turned on
   Amount of maximum screened exact exchange              ....  0.804272
   Range separation parameter mu (erf(mu*r12)/r12)        ....  0.250000


General Settings:
 Integral files         IntName         .... 70_charges
 Hartree-Fock type      HFTyp           .... RHF
 Total Charge           Charge          ....    0
 Multiplicity           Mult            ....    1
 Number of Electrons    NEL             ....   18
 Basis Dimension        Dim             ....   86
 Nuclear Repulsion      ENuc            ....     40.4967512118 Eh

Convergence Acceleration:
 DIIS                   CNVDIIS         .... on
   Start iteration      DIISMaxIt       ....    12
   Startup error        DIISStart       ....  0.200000
   # of expansion vecs  DIISMaxEq       ....     5
   Bias factor          DIISBfac        ....   1.050
   Max. coefficient     DIISMaxC        ....  10.000
 Newton-Raphson         CNVNR           .... off
 SOSCF                  CNVSOSCF        .... on
   Start iteration      SOSCFMaxIt      ....   150
   Startup grad/error   SOSCFStart      ....  0.003300
 Level Shifting         CNVShift        .... on
   Level shift para.    LevelShift      ....    0.2500
   Turn off err/grad.   ShiftErr        ....    0.0010
 Zerner damping         CNVZerner       .... off
 Static damping         CNVDamp         .... on
   Fraction old density DampFac         ....    0.7000
   Max. Damping (<1)    DampMax         ....    0.9800
   Min. Damping (>=0)   DampMin         ....    0.0000
   Turn off err/grad.   DampErr         ....    0.1000
 Fernandez-Rico         CNVRico         .... off

SCF Procedure:
 Maximum # iterations   MaxIter         ....  1000
 SCF integral mode      SCFMode         .... Direct
   Integral package                     .... LIBINT
 Reset frequency        DirectResetFreq ....    20
 Integral Threshold     Thresh          ....  2.500e-11 Eh
 Primitive CutOff       TCut            ....  2.500e-12 Eh

Convergence Tolerance:
 Convergence Check Mode ConvCheckMode   .... Total+1el-Energy
 Convergence forced     ConvForced      .... 0
 Energy Change          TolE            ....  1.000e-08 Eh
 1-El. energy change                    ....  1.000e-05 Eh
 Orbital Gradient       TolG            ....  1.000e-05
 Orbital Rotation angle TolX            ....  1.000e-05
 DIIS Error             TolErr          ....  5.000e-07


Diagonalization of the overlap matrix:
Smallest eigenvalue                        ... 1.401e-03
Time for diagonalization                   ...    0.141 sec
Threshold for overlap eigenvalues          ... 1.000e-08
Number of eigenvalues below threshold      ... 0
Time for construction of square roots      ...    0.195 sec
Total time needed                          ...    0.336 sec

-------------------
DFT GRID GENERATION
-------------------

General Integration Accuracy     IntAcc      ...  4.340
Radial Grid Type                 RadialGrid  ... Gauss-Chebyshev
Angular Grid (max. acc.)         AngularGrid ... Lebedev-110
Angular grid pruning method      GridPruning ... 3 (G Style)
Weight generation scheme         WeightScheme... Becke
Basis function cutoff            BFCut       ...    1.0000e-11
Integration weight cutoff        WCut        ...    1.0000e-14
Grids for H and He will be reduced by one unit

# of grid points (after initial pruning)     ...   6548 (   0.0 sec)
# of grid points (after weights+screening)   ...   6370 (   3.2 sec)
nearest neighbour list constructed           ...    0.0 sec
Grid point re-assignment to atoms done       ...    0.0 sec
Grid point division into batches done        ...    0.0 sec
Reduced shell lists constructed in    0.0 sec

Total number of grid points                  ...     6370
Total number of batches                      ...      103
Average number of points per batch           ...       61
Average number of grid points per atom       ...     1062
Average number of shells per batch           ...    31.57 (83.08%)
Average number of basis functions per batch  ...    71.71 (83.39%)
Average number of large shells per batch     ...    30.71 (97.29%)
Average number of large basis fcns per batch ...    70.43 (98.21%)
Maximum spatial batch extension              ...  15.88, 16.04, 13.82 au
Average spatial batch extension              ...   0.41,  0.45,  0.41 au

Time for grid setup =    7.659 sec

------------------------------
INITIAL GUESS: MODEL POTENTIAL
------------------------------
Loading Hartree-Fock densities                     ... done
Calculating cut-offs                               ... done
Setting up the integral package                    ... done
Initializing the effective Hamiltonian             ... done
Starting the Coulomb interaction                   ... done (   0.0 sec)
Reading the grid                                   ... done
Mapping shells                                     ... done
Starting the XC term evaluation                    ... done (   0.0 sec)
  promolecular density results
     # of electrons  =     17.997029053
     EX              =    -14.442842057
     EC              =     -0.576731390
     EX+EC           =    -15.019573446
Transforming the Hamiltonian                       ... done (   0.0 sec)
Diagonalizing the Hamiltonian                      ... done (   0.5 sec)
Back transforming the eigenvectors                 ... done (   0.0 sec)
Now organizing SCF variables                       ... done
                      ------------------
                      INITIAL GUESS DONE (   8.5 sec)
                      ------------------
--------------
SCF ITERATIONS
--------------
ITER       Energy         Delta-E        Max-DP      RMS-DP      [F,P]     Damp
               ***  Starting incremental Fock matrix formation  ***
  0   -115.6375740807   0.000000000000 0.03299678  0.00150000  0.2239023 0.7000
  1   -115.6750808869  -0.037506806135 0.01911805  0.00107553  0.1108938 0.7000
                               ***Turning on DIIS***
  2   -115.6928077194  -0.017726832484 0.02904310  0.00197111  0.0474033 0.0000
  3   -115.7218699433  -0.029062223984 0.01641674  0.00071470  0.0552005 0.0000
  4   -115.7263236175  -0.004453674189 0.00411259  0.00013805  0.0061259 0.0000
                      *** Initiating the SOSCF procedure ***
                           *** Shutting down DIIS ***
                      *** Re-Reading the Fockian *** 
                      *** Removing any level shift *** 
ITER      Energy       Delta-E        Grad      Rot      Max-DP    RMS-DP
  5   -115.72642384  -0.0001002240  0.000457  0.000457  0.000815  0.000048
               *** Restarting incremental Fock matrix formation ***
  6   -115.72643312  -0.0000092738  0.000140  0.000237  0.000500  0.000029
  7   -115.72643393  -0.0000008189  0.000050  0.000133  0.000244  0.000013
  8   -115.72643401  -0.0000000714  0.000019  0.000018  0.000026  0.000001
  9   -115.72643401  -0.0000000057  0.000011  0.000008  0.000013  0.000001
 10   -115.72643401  -0.0000000019  0.000003  0.000002  0.000003  0.000000
                  ***Gradient check signals convergence***
              ***Rediagonalizing the Fockian in SOSCF/NRSCF***

               *****************************************************
               *                     SUCCESS                       *
               *           SCF CONVERGED AFTER  11 CYCLES          *
               *****************************************************

Setting up the final grid:

General Integration Accuracy     IntAcc      ...  4.670
Radial Grid Type                 RadialGrid  ... Gauss-Chebyshev
Angular Grid (max. acc.)         AngularGrid ... Lebedev-302
Angular grid pruning method      GridPruning ... 3 (G Style)
Weight generation scheme         WeightScheme... Becke
Basis function cutoff            BFCut       ...    1.0000e-11
Integration weight cutoff        WCut        ...    1.0000e-14
Grids for H and He will be reduced by one unit

# of grid points (after initial pruning)     ...  26000 (   0.0 sec)
# of grid points (after weights+screening)   ...  25180 (   0.0 sec)
nearest neighbour list constructed           ...    0.0 sec
Grid point re-assignment to atoms done       ...    0.0 sec
Grid point division into batches done        ...    0.1 sec
Reduced shell lists constructed in    0.1 sec

Total number of grid points                  ...    25180
Total number of batches                      ...      395
Average number of points per batch           ...       63
Average number of grid points per atom       ...     4197
Average number of shells per batch           ...    30.53 (80.34%)
Average number of basis functions per batch  ...    69.75 (81.10%)
Average number of large shells per batch     ...    29.08 (95.25%)
Average number of large basis fcns per batch ...    67.04 (96.12%)
Maximum spatial batch extension              ...  17.56, 13.35, 16.92 au
Average spatial batch extension              ...   0.36,  0.32,  0.35 au

Final grid set up in    0.2 sec
Final integration                            ... done (   0.1 sec)
Change in XC energy                          ...     0.000220170
Integrated number of electrons               ...    18.000016384
Previous integrated no of electrons          ...    17.998439587

----------------
TOTAL SCF ENERGY
----------------

Total Energy       :         -115.72621384 Eh           -3149.07037 eV

Components:
Nuclear Repulsion  :           40.49675121 Eh            1101.97262 eV
Electronic Energy  :         -156.22296506 Eh           -4251.04300 eV
One Electron Energy:         -237.37803128 Eh           -6459.38462 eV
Two Electron Energy:           81.15506623 Eh            2208.34162 eV

Virial components:
Potential Energy   :         -231.11475939 Eh           -6288.95233 eV
Kinetic Energy     :          115.38854554 Eh            3139.88195 eV
Virial Ratio       :            2.00292636


DFT components:
N(Alpha)           :        9.000008192006 electrons
N(Beta)            :        9.000008192006 electrons
N(Total)           :       18.000016384012 electrons
E(XC)              :      -10.680675281961 Eh       
DFET-embed. en.    :        0.000000000000 Eh       

---------------
SCF CONVERGENCE
---------------

  Last Energy change         ...   -1.7253e-10  Tolerance :   1.0000e-08
  Last MAX-Density change    ...    2.1371e-06  Tolerance :   1.0000e-07
  Last RMS-Density change    ...    9.7849e-08  Tolerance :   5.0000e-09
  Last Orbital Gradient      ...    1.3591e-06  Tolerance :   1.0000e-05
  Last Orbital Rotation      ...    1.1722e-06  Tolerance :   1.0000e-05

             **** THE GBW FILE WAS UPDATED (70_charges.gbw) ****
             **** DENSITY FILE WAS UPDATED (70_charges.scfp.tmp) ****
             **** ENERGY FILE WAS UPDATED (70_charges.en.tmp) ****
----------------
ORBITAL ENERGIES
----------------

  NO   OCC          E(Eh)            E(eV) 
   0   2.0000     -19.230617      -523.2917 
   1   2.0000     -10.299028      -280.2508 
   2   2.0000      -1.127128       -30.6707 
   3   2.0000      -0.806220       -21.9384 
   4   2.0000      -0.606895       -16.5145 
   5   2.0000      -0.551003       -14.9935 
   6   2.0000      -0.526079       -14.3153 
   7   2.0000      -0.438381       -11.9290 
   8   2.0000      -0.374965       -10.2033 
   9   0.0000       0.110587         3.0092 
  10   0.0000       0.157427         4.2838 
  11   0.0000       0.200563         5.4576 
  12   0.0000       0.218172         5.9368 
  13   0.0000       0.237336         6.4582 
  14   0.0000       0.299554         8.1513 
  15   0.0000       0.310799         8.4573 
  16   0.0000       0.390399        10.6233 
  17   0.0000       0.446434        12.1481 
  18   0.0000       0.486507        13.2385 
  19   0.0000       0.545267        14.8375 
  20   0.0000       0.566841        15.4245 
  21   0.0000       0.569524        15.4975 
  22   0.0000       0.612284        16.6611 
  23   0.0000       0.635741        17.2994 
  24   0.0000       0.698624        19.0105 
  25   0.0000       0.743978        20.2447 
  26   0.0000       0.776538        21.1307 
  27   0.0000       0.868314        23.6280 
  28   0.0000       0.991463        26.9791 
  29   0.0000       1.058576        28.8053 
  30   0.0000       1.104674        30.0597 
  31   0.0000       1.356883        36.9227 
  32   0.0000       1.449874        39.4531 
  33   0.0000       1.533954        41.7410 
  34   0.0000       1.605613        43.6909 
  35   0.0000       1.634091        44.4659 
  36   0.0000       1.675425        45.5906 
  37   0.0000       1.695754        46.1438 
  38   0.0000       1.716914        46.7196 
  39   0.0000       1.786063        48.6013 
  40   0.0000       1.949253        53.0419 
  41   0.0000       2.020011        54.9673 
  42   0.0000       2.048819        55.7512 
  43   0.0000       2.086937        56.7885 
  44   0.0000       2.176576        59.2276 
  45   0.0000       2.242178        61.0128 
  46   0.0000       2.325201        63.2719 
  47   0.0000       2.380588        64.7791 
  48   0.0000       2.414746        65.7086 
  49   0.0000       2.472204        67.2721 
  50   0.0000       2.520320        68.5814 
  51   0.0000       2.592992        70.5589 
  52   0.0000       2.673455        72.7484 
  53   0.0000       2.730421        74.2985 
  54   0.0000       2.810053        76.4654 
  55   0.0000       2.888781        78.6077 
  56   0.0000       2.931053        79.7580 
  57   0.0000       2.959479        80.5315 
  58   0.0000       3.117797        84.8396 
  59   0.0000       3.173195        86.3470 
  60   0.0000       3.292740        89.6000 
  61   0.0000       3.415708        92.9461 
  62   0.0000       3.512199        95.5718 
  63   0.0000       3.543189        96.4151 
  64   0.0000       3.615240        98.3757 
  65   0.0000       3.625595        98.6575 
  66   0.0000       3.671479        99.9060 
  67   0.0000       3.989382       108.5566 
  68   0.0000       4.302185       117.0684 
  69   0.0000       4.453951       121.1982 
  70   0.0000       4.505552       122.6023 
  71   0.0000       4.572863       124.4339 
  72   0.0000       5.360084       145.8553 
  73   0.0000       5.442977       148.1109 
  74   0.0000       5.521319       150.2427 
  75   0.0000       5.742015       156.2482 
  76   0.0000       5.804259       157.9419 
  77   0.0000       5.970297       162.4601 
  78   0.0000       6.265152       170.4835 
  79   0.0000       6.518532       177.3783 
  80   0.0000       6.781294       184.5284 
  81   0.0000       6.804705       185.1654 
  82   0.0000       7.010712       190.7712 
  83   0.0000       7.180881       195.4017 
  84   0.0000      22.539590       613.3334 
  85   0.0000      43.648037      1187.7235 

                    ********************************
                    * MULLIKEN POPULATION ANALYSIS *
                    ********************************

-----------------------
MULLIKEN ATOMIC CHARGES
-----------------------
   0 C :   -0.168345
   1 O :   -0.473940
   2 H :    0.317110
   3 H :    0.101082
   4 H :    0.116234
   5 H :    0.107860
Sum of atomic charges:    0.0000000

--------------------------------
MULLIKEN REDUCED ORBITAL CHARGES
--------------------------------
  0 C s       :     3.202049  s :     3.202049
      pz      :     0.974550  p :     2.862051
      px      :     0.971321
      py      :     0.916180
      dz2     :     0.026542  d :     0.097175
      dxz     :     0.019012
      dyz     :     0.013605
      dx2y2   :     0.021571
      dxy     :     0.016445
      f0      :     0.000653  f :     0.007070
      f+1     :     0.000562
      f-1     :     0.001320
      f+2     :     0.001344
      f-2     :     0.001474
      f+3     :     0.000949
      f-3     :     0.000767
  1 O s       :     3.808166  s :     3.808166
      pz      :     1.275284  p :     4.634618
      px      :     1.658699
      py      :     1.700635
      dz2     :     0.004866  d :     0.029625
      dxz     :     0.009773
      dyz     :     0.004883
      dx2y2   :     0.004099
      dxy     :     0.006003
      f0      :     0.000144  f :     0.001531
      f+1     :     0.000478
      f-1     :     0.000185
      f+2     :     0.000198
      f-2     :     0.000258
      f+3     :     0.000127
      f-3     :     0.000142
  2 H s       :     0.636785  s :     0.636785
      pz      :     0.016861  p :     0.046105
      px      :     0.014624
      py      :     0.014621
  3 H s       :     0.878109  s :     0.878109
      pz      :     0.005460  p :     0.020809
      px      :     0.009727
      py      :     0.005623
  4 H s       :     0.861318  s :     0.861318
      pz      :     0.011688  p :     0.022449
      px      :     0.005848
      py      :     0.004913
  5 H s       :     0.870718  s :     0.870718
      pz      :     0.004475  p :     0.021422
      px      :     0.006832
      py      :     0.010115


                     *******************************
                     * LOEWDIN POPULATION ANALYSIS *
                     *******************************

----------------------
LOEWDIN ATOMIC CHARGES
----------------------
   0 C :   -0.351123
   1 O :   -0.102510
   2 H :    0.180155
   3 H :    0.092991
   4 H :    0.085264
   5 H :    0.095223

-------------------------------
LOEWDIN REDUCED ORBITAL CHARGES
-------------------------------
  0 C s       :     2.835222  s :     2.835222
      pz      :     1.025878  p :     3.067199
      px      :     1.050186
      py      :     0.991135
      dz2     :     0.086454  d :     0.395220
      dxz     :     0.077695
      dyz     :     0.072451
      dx2y2   :     0.071810
      dxy     :     0.086810
      f0      :     0.006421  f :     0.053483
      f+1     :     0.005564
      f-1     :     0.008716
      f+2     :     0.010129
      f-2     :     0.009335
      f+3     :     0.007506
      f-3     :     0.005812
  1 O s       :     3.397863  s :     3.397863
      pz      :     1.301645  p :     4.634357
      px      :     1.652381
      py      :     1.680331
      dz2     :     0.016271  d :     0.065969
      dxz     :     0.019083
      dyz     :     0.011520
      dx2y2   :     0.008584
      dxy     :     0.010511
      f0      :     0.000317  f :     0.004322
      f+1     :     0.001296
      f-1     :     0.000558
      f+2     :     0.000720
      f-2     :     0.000724
      f+3     :     0.000320
      f-3     :     0.000386
  2 H s       :     0.668656  s :     0.668656
      pz      :     0.061092  p :     0.151188
      px      :     0.050004
      py      :     0.040093
  3 H s       :     0.840868  s :     0.840868
      pz      :     0.018133  p :     0.066141
      px      :     0.030035
      py      :     0.017974
  4 H s       :     0.842383  s :     0.842383
      pz      :     0.035719  p :     0.072353
      px      :     0.019592
      py      :     0.017041
  5 H s       :     0.839293  s :     0.839293
      pz      :     0.014457  p :     0.065485
      px      :     0.021118
      py      :     0.029910


                      *****************************
                      * MAYER POPULATION ANALYSIS *
                      *****************************

  NA   - Mulliken gross atomic population
  ZA   - Total nuclear charge
  QA   - Mulliken gross atomic charge
  VA   - Mayer's total valence
  BVA  - Mayer's bonded valence
  FA   - Mayer's free valence

  ATOM       NA         ZA         QA         VA         BVA        FA
  0 C      6.1683     6.0000    -0.1683     3.9719     3.9719     0.0000
  1 O      8.4739     8.0000    -0.4739     1.8896     1.8896    -0.0000
  2 H      0.6829     1.0000     0.3171     0.9091     0.9091     0.0000
  3 H      0.8989     1.0000     0.1011     0.9614     0.9614    -0.0000
  4 H      0.8838     1.0000     0.1162     0.9530     0.9530    -0.0000
  5 H      0.8921     1.0000     0.1079     0.9517     0.9517     0.0000

  Mayer bond orders larger than 0.1
B(  0-C ,  1-O ) :   1.0138 B(  0-C ,  3-H ) :   0.9933 B(  0-C ,  4-H ) :   0.9746 
B(  0-C ,  5-H ) :   0.9805 B(  1-O ,  2-H ) :   0.9016 


------------------
HIRSHFELD ANALYSIS
------------------

Total integrated alpha density =      8.999219793
Total integrated beta density  =      8.999219793

  ATOM     CHARGE      SPIN    
   0 C    0.002399    0.000000
   1 O   -0.255858    0.000000
   2 H    0.159364    0.000000
   3 H    0.029429    0.000000
   4 H    0.039414    0.000000
   5 H    0.026812    0.000000

  TOTAL   0.001560    0.000000

-------
TIMINGS
-------

Total SCF time: 0 days 0 hours 0 min 29 sec 

Total time                  ....      29.113 sec
Sum of individual times     ....      26.138 sec  ( 89.8%)

Fock matrix formation       ....      14.349 sec  ( 49.3%)
  XC integration            ....       3.494 sec  ( 24.4% of F)
    Basis function eval.    ....       0.036 sec  (  1.0% of XC)
    Density eval.           ....       0.043 sec  (  1.2% of XC)
    XC-Functional eval.     ....       0.065 sec  (  1.9% of XC)
    XC-Potential eval.      ....       0.035 sec  (  1.0% of XC)
Diagonalization             ....       1.643 sec  (  5.6%)
Density matrix formation    ....       0.891 sec  (  3.1%)
Population analysis         ....       0.030 sec  (  0.1%)
Initial guess               ....       0.873 sec  (  3.0%)
Orbital Transformation      ....       0.000 sec  (  0.0%)
Orbital Orthonormalization  ....       0.000 sec  (  0.0%)
DIIS solution               ....       0.276 sec  (  0.9%)
SOSCF solution              ....       0.240 sec  (  0.8%)
Grid generation             ....       7.835 sec  ( 26.9%)


-------------------------------------------------------------------------------
                          DFT DISPERSION CORRECTION                            
                                                                               
                              DFTD3 V3.1  Rev 1                                
                              USING zero damping                               
-------------------------------------------------------------------------------
The omegaB97X-D3 functional is recognized. Fit by Chai et al.
Active option DFTDOPT                   ...         3   

molecular C6(AA) [au] = 208.633886 


            DFT-D V3
 parameters
 s6 scaling factor         :     1.0000 
 rs6 scaling factor        :     1.2810 
 s8 scaling factor         :     1.0000 
 rs8 scaling factor        :     1.0940 
 Damping factor alpha6     :    14.0000 
 Damping factor alpha8     :    16.0000 
 ad hoc parameters k1-k3   :    16.0000     1.3333    -4.0000 

 Edisp/kcal,au: -0.142665072861  -0.000227351241 
 E6   /kcal   :  -0.026618035 
 E8   /kcal   :  -0.116047038 
 % E8         :  81.342290673 

-------------------------   ----------------
Dispersion correction           -0.000227351
-------------------------   ----------------


-------------------------   --------------------
FINAL SINGLE POINT ENERGY      -115.726441194801
-------------------------   --------------------


                            ***************************************
                            *     ORCA property calculations      *
                            ***************************************

                                    ---------------------
                                    Active property flags
                                    ---------------------
   (+) Dipole Moment


------------------------------------------------------------------------------
                       ORCA ELECTRIC PROPERTIES CALCULATION
------------------------------------------------------------------------------

Dipole Moment Calculation                       ... on
Quadrupole Moment Calculation                   ... off
Polarizability Calculation                      ... off
GBWName                                         ... 70_charges.gbw
Electron density file                           ... 70_charges.scfp.tmp
The origin for moment calculation is the CENTER OF MASS  = (-8.605941,  3.717671 13.414377)

-------------
DIPOLE MOMENT
-------------
                                X             Y             Z
Electronic contribution:      0.98709       1.28362       0.84644
Nuclear contribution   :     -1.59933      -1.72715      -0.66855
                        -----------------------------------------
Total Dipole Moment    :     -0.61224      -0.44353       0.17789
                        -----------------------------------------
Magnitude (a.u.)       :      0.77666
Magnitude (Debye)      :      1.97411



--------------------
Rotational spectrum 
--------------------
 
Rotational constants in cm-1:     4.568601     0.818955     0.788666 
Rotational constants in MHz : 136963.219203 24551.660541 23643.608512 

 Dipole components along the rotational axes: 
x,y,z [a.u.] :     0.439259     0.638264    -0.053575 
x,y,z [Debye]:     1.116507     1.622339    -0.136176 

 
------------------------------------------------------------------------------
                      ORCA CHELPG CHARGES GENERATION
------------------------------------------------------------------------------

GBW file                           ... 70_charges.gbw

Reading the GBW file               ... done

Grid spacing                       ...     0.300000
Point Cut-Off                      ...     2.800000
Van-der-Waals Radii                ...        COSMO
Total charge                       ...            0


Number of points X direction       ...           23
Number of points Y direction       ...           24
Number of points Z direction       ...           27
Maximum number of possible points  ...        14904
Final number of points             ...         5754


CHELPG Charges            
--------------------------------
  0   C   :       0.211363
  1   O   :      -0.620814
  2   H   :       0.389912
  3   H   :      -0.020451
  4   H   :       0.028541
  5   H   :       0.011450
--------------------------------
Total charge:     0.000000
--------------------------------

CHELPG charges calculated...

Timings for individual parts in CHELPG calculation:
Grid generation                 ...        0.002 sec (=   0.000 min)
Potential calculation           ...        0.753 sec (=   0.013 min)
Fit to the potential            ...        0.001 sec (=   0.000 min)
------------------------------------------------------------------------------


Timings for individual modules:

Sum of individual times         ...       39.785 sec (=   0.663 min)
GTO integral calculation        ...        4.169 sec (=   0.069 min)  10.5 %
SCF iterations                  ...       34.798 sec (=   0.580 min)  87.5 %
CHELPG charge generation        ...        0.818 sec (=   0.014 min)   2.1 %
                             ****ORCA TERMINATED NORMALLY****
TOTAL RUN TIME: 0 days 0 hours 0 minutes 41 seconds 668 msec
