
                                 *****************
                                 * O   R   C   A *
                                 *****************

           --- An Ab Initio, DFT and Semiempirical electronic structure package ---

                  #######################################################
                  #                        -***-                        #
                  #          Department of theory and spectroscopy      #
                  #               Directorship: Frank Neese             #
                  #        Max Planck Institute fuer Kohlenforschung    #
                  #                Kaiser Wilhelm Platz 1               #
                  #                 D-45470 Muelheim/Ruhr               #
                  #                      Germany                        #
                  #                                                     #
                  #                  All rights reserved                #
                  #                        -***-                        #
                  #######################################################


                         Program Version 4.1.2  - RELEASE  -


 With contributions from (in alphabetic order):
   Daniel Aravena         : Magnetic Properties
   Michael Atanasov       : Ab Initio Ligand Field Theory
   Alexander A. Auer      : GIAO ZORA
   Ute Becker             : Parallelization
   Giovanni Bistoni       : ED, Open-shell LED
   Martin Brehm           : Molecular dynamics
   Dmytro Bykov           : SCF Hessian
   Vijay G. Chilkuri      : MRCI spin determinant printing
   Dipayan Datta          : RHF DLPNO-CCSD density
   Achintya Kumar Dutta   : EOM-CC, STEOM-CC
   Dmitry Ganyushin       : Spin-Orbit,Spin-Spin,Magnetic field MRCI
   Miquel Garcia          : C-PCM Hessian
   Yang Guo               : DLPNO-NEVPT2, CIM, IAO-localization
   Andreas Hansen         : Spin unrestricted coupled pair/coupled cluster methods
   Benjamin Helmich-Paris : CASSCF linear response (MC-RPA)
   Lee Huntington         : MR-EOM, pCC
   Robert Izsak           : Overlap fitted RIJCOSX, COSX-SCS-MP3, EOM
   Christian Kollmar      : KDIIS, OOCD, Brueckner-CCSD(T), CCSD density
   Simone Kossmann        : Meta GGA functionals, TD-DFT gradient, OOMP2, MP2 Hessian
   Martin Krupicka        : AUTO-CI
   Lucas Lang             : DCDCAS
   Dagmar Lenk            : GEPOL surface, SMD
   Dimitrios Liakos       : Extrapolation schemes; parallel MDCI
   Dimitrios Manganas     : ROCIS; embedding schemes
   Dimitrios Pantazis     : SARC Basis sets
   Taras Petrenko         : DFT Hessian,TD-DFT gradient, ASA, ECA, R-Raman, ABS, FL, XAS/XES, NRVS
   Peter Pinski           : DLPNO-MP2, DLPNO-MP2 Gradient
   Christoph Reimann      : Effective Core Potentials
   Marius Retegan         : Local ZFS, SOC
   Christoph Riplinger    : Optimizer, TS searches, QM/MM, DLPNO-CCSD(T), (RO)-DLPNO pert. Triples
   Tobias Risthaus        : Range-separated hybrids, TD-DFT gradient, RPA, STAB
   Michael Roemelt        : Restricted open shell CIS
   Masaaki Saitow         : Open-shell DLPNO
   Barbara Sandhoefer     : DKH picture change effects
   Avijit Sen             : IP-ROCIS
   Kantharuban Sivalingam : CASSCF convergence, NEVPT2, FIC-MRCI
   Bernardo de Souza      : ESD, SOC TD-DFT
   Georgi Stoychev        : AutoAux, RI-MP2 NMR
   Willem Van den Heuvel  : Paramagnetic NMR
   Boris Wezisla          : Elementary symmetry handling
   Frank Wennmohs         : Technical directorship


 We gratefully acknowledge several colleagues who have allowed us to
 interface, adapt or use parts of their codes:
   Stefan Grimme, W. Hujo, H. Kruse,             : VdW corrections, initial TS optimization,
                  C. Bannwarth                     DFT functionals, gCP, sTDA/sTD-DF
   Ed Valeev                                     : LibInt (2-el integral package), F12 methods
   Garnet Chan, S. Sharma, J. Yang, R. Olivares  : DMRG
   Ulf Ekstrom                                   : XCFun DFT Library
   Mihaly Kallay                                 : mrcc  (arbitrary order and MRCC methods)
   Andreas Klamt, Michael Diedenhofen            : otool_cosmo (COSMO solvation model)
   Jiri Pittner, Ondrej Demel                    : Mk-CCSD
   Frank Weinhold                                : gennbo (NPA and NBO analysis)
   Christopher J. Cramer and Donald G. Truhlar   : smd solvation model
   Lars Goerigk                                  : TD-DFT with DH, B97 family of functionals
   V. Asgeirsson, H. Jonsson                     : NEB implementation
   FAccTs GmbH                                   : IRC, NEB, NEB-TS, Multilevel


 Your calculation uses the libint2 library for the computation of 2-el integrals
 For citations please refer to: http://libint.valeyev.net

 This ORCA versions uses:
   CBLAS   interface :  Fast vector & matrix operations
   LAPACKE interface :  Fast linear algebra routines
   SCALAPACK package :  Parallel linear algebra routines


Your calculation utilizes the atom-pairwise dispersion correction
with the zero-damping scheme (D30)
Cite in your paper:
S.Grimme, J.Antony, S.Ehrlich and H.Krieg, J.Chem.Phys., 132, (2010), 154104 
   

XCFun DFT library Copyright 2009-2010 Ulf Ekstrom and contributors.
See http://admol.org/xcfun for more information. This is free soft-
ware; see the source code for copying conditions. There is ABSOLUTELY
NO WARRANTY; not even for MERCHANTABILITY or FITNESS FOR A PARTICULAR
PURPOSE. For details see the documentation. Scientific users of this 
library should cite U. Ekstrom, L. Visscher, R. Bast, A. J. Thorvald-
sen and K. Ruud; J.Chem.Theor.Comp. 2010, DOI: 10.1021/ct100117s
XCFun Version 0.99 
----- Orbital basis set information -----
Your calculation utilizes the basis: def2-TZVP
   F. Weigend and R. Ahlrichs, Phys. Chem. Chem. Phys. 7, 3297 (2005).

================================================================================
                                        WARNINGS
                       Please study these warnings very carefully!
================================================================================


INFO   : the flag for use of LIBINT has been found!

================================================================================
                                       INPUT FILE
================================================================================
NAME = 164.in
|  1> #Run DFT-D3 single point of the dimer
|  2> ! wB97X-D3 def2-TZVP TIGHTSCF  CHELPG PAL8
|  3> 
|  4> %base "164_charges"
|  5> 
|  6> %scf
|  7> MaxIter 1000
|  8> end
|  9> %output
| 10>   Print[ P_Mayer ] 1
| 11>   Print[ P_NatPop ] 1
| 12>   Print[ P_Hirshfeld ] 1
| 13>   Print[ P_Mulliken ] 1
| 14>   Print [ P_Loewdin ] 1
| 15> end
| 16> 
| 17> * xyz 0 1
| 18>   C                      -10.916770           0.075466             -0.303007           
| 19>   O                      -9.722043            -0.693363            -0.133890           
| 20>   H                      -9.606149            -0.505505            0.780545            
| 21>   H                      -10.700667           1.102500             -0.691226           
| 22>   H                      -11.643613           -0.361264            -1.045425           
| 23>   H                      -11.482279           0.300125             0.650516            
| 24> *
| 25> 
| 26>                          ****END OF INPUT****
================================================================================

                       ****************************
                       * Single Point Calculation *
                       ****************************

---------------------------------
CARTESIAN COORDINATES (ANGSTROEM)
---------------------------------
  C    -10.916770    0.075466   -0.303007
  O     -9.722043   -0.693363   -0.133890
  H     -9.606149   -0.505505    0.780545
  H    -10.700667    1.102500   -0.691226
  H    -11.643613   -0.361264   -1.045425
  H    -11.482279    0.300125    0.650516

----------------------------
CARTESIAN COORDINATES (A.U.)
----------------------------
  NO LB      ZA    FRAG     MASS         X           Y           Z
   0 C     6.0000    0    12.011  -20.629706    0.142610   -0.572600
   1 O     8.0000    0    15.999  -18.371999   -1.310266   -0.253015
   2 H     1.0000    0     1.008  -18.152991   -0.955266    1.475016
   3 H     1.0000    0     1.008  -20.221330    2.083423   -1.306228
   4 H     1.0000    0     1.008  -22.003240   -0.682690   -1.975567
   5 H     1.0000    0     1.008  -21.698363    0.567154    1.229297

--------------------------------
INTERNAL COORDINATES (ANGSTROEM)
--------------------------------
 C      0   0   0     0.000000000000     0.00000000     0.00000000
 O      1   0   0     1.430758957847     0.00000000     0.00000000
 H      2   1   0     0.940698366441    96.34217628     0.00000000
 H      1   2   3     1.119023384799   111.89655804    95.53627821
 H      1   2   3     1.127039629415   114.08917563   214.01288270
 H      1   2   3     1.131140224239   115.12254383   339.78079292

---------------------------
INTERNAL COORDINATES (A.U.)
---------------------------
 C      0   0   0     0.000000000000     0.00000000     0.00000000
 O      1   0   0     2.703742593985     0.00000000     0.00000000
 H      2   1   0     1.777662287201    96.34217628     0.00000000
 H      1   2   3     2.114647734723   111.89655804    95.53627821
 H      1   2   3     2.129796241671   114.08917563   214.01288270
 H      1   2   3     2.137545242874   115.12254383   339.78079292

---------------------
BASIS SET INFORMATION
---------------------
There are 3 groups of distinct atoms

 Group   1 Type C   : 11s6p2d1f contracted to 5s3p2d1f pattern {62111/411/11/1}
 Group   2 Type O   : 11s6p2d1f contracted to 5s3p2d1f pattern {62111/411/11/1}
 Group   3 Type H   : 5s1p contracted to 3s1p pattern {311/1}

Atom   0C    basis set group =>   1
Atom   1O    basis set group =>   2
Atom   2H    basis set group =>   3
Atom   3H    basis set group =>   3
Atom   4H    basis set group =>   3
Atom   5H    basis set group =>   3


           ************************************************************
           *        Program running with 8 parallel MPI-processes     *
           *              working on a common directory               *
           ************************************************************
------------------------------------------------------------------------------
                           ORCA GTO INTEGRAL CALCULATION
------------------------------------------------------------------------------

                         BASIS SET STATISTICS AND STARTUP INFO

 # of primitive gaussian shells          ...   64
 # of primitive gaussian functions       ...  124
 # of contracted shells                  ...   38
 # of contracted basis functions         ...   86
 Highest angular momentum                ...    3
 Maximum contraction depth               ...    6
 Integral package used                   ... LIBINT
 Integral threshhold            Thresh   ...  2.500e-11
 Primitive cut-off              TCut     ...  2.500e-12


------------------------------ INTEGRAL EVALUATION ----------------------------


 * One electron integrals 
 Pre-screening matrix                    ... done
 Shell pair data                         ... done (   0.000 sec)



           ************************************************************
           *        Program running with 8 parallel MPI-processes     *
           *              working on a common directory               *
           ************************************************************
-------------------------------------------------------------------------------
                                 ORCA SCF
-------------------------------------------------------------------------------

------------
SCF SETTINGS
------------
Hamiltonian:
 Density Functional     Method          .... DFT(GTOs)
 Exchange Functional    Exchange        .... WB97X-D3
 Correlation Functional Correlation     .... WB97X-D3
 Gradients option       PostSCFGGA      .... off
 Hybrid DFT is turned on
   Fraction HF Exchange ScalHFX         ....  0.195728
   Scaling of DF-GGA-X  ScalDFX         ....  0.000000
   Scaling of DF-GGA-C  ScalDFC         ....  1.000000
   Scaling of DF-LDA-C  ScalLDAC        ....  1.000000
   Perturbative correction              ....  0.000000
   Density functional embedding theory  .... OFF
 Long-range corrected/Screened/Range-Separated Hybrid DFT is turned on
   Amount of maximum screened exact exchange              ....  0.804272
   Range separation parameter mu (erf(mu*r12)/r12)        ....  0.250000


General Settings:
 Integral files         IntName         .... 164_charges
 Hartree-Fock type      HFTyp           .... RHF
 Total Charge           Charge          ....    0
 Multiplicity           Mult            ....    1
 Number of Electrons    NEL             ....   18
 Basis Dimension        Dim             ....   86
 Nuclear Repulsion      ENuc            ....     39.9570103970 Eh

Convergence Acceleration:
 DIIS                   CNVDIIS         .... on
   Start iteration      DIISMaxIt       ....    12
   Startup error        DIISStart       ....  0.200000
   # of expansion vecs  DIISMaxEq       ....     5
   Bias factor          DIISBfac        ....   1.050
   Max. coefficient     DIISMaxC        ....  10.000
 Newton-Raphson         CNVNR           .... off
 SOSCF                  CNVSOSCF        .... on
   Start iteration      SOSCFMaxIt      ....   150
   Startup grad/error   SOSCFStart      ....  0.003300
 Level Shifting         CNVShift        .... on
   Level shift para.    LevelShift      ....    0.2500
   Turn off err/grad.   ShiftErr        ....    0.0010
 Zerner damping         CNVZerner       .... off
 Static damping         CNVDamp         .... on
   Fraction old density DampFac         ....    0.7000
   Max. Damping (<1)    DampMax         ....    0.9800
   Min. Damping (>=0)   DampMin         ....    0.0000
   Turn off err/grad.   DampErr         ....    0.1000
 Fernandez-Rico         CNVRico         .... off

SCF Procedure:
 Maximum # iterations   MaxIter         ....  1000
 SCF integral mode      SCFMode         .... Direct
   Integral package                     .... LIBINT
 Reset frequency        DirectResetFreq ....    20
 Integral Threshold     Thresh          ....  2.500e-11 Eh
 Primitive CutOff       TCut            ....  2.500e-12 Eh

Convergence Tolerance:
 Convergence Check Mode ConvCheckMode   .... Total+1el-Energy
 Convergence forced     ConvForced      .... 0
 Energy Change          TolE            ....  1.000e-08 Eh
 1-El. energy change                    ....  1.000e-05 Eh
 Orbital Gradient       TolG            ....  1.000e-05
 Orbital Rotation angle TolX            ....  1.000e-05
 DIIS Error             TolErr          ....  5.000e-07


Diagonalization of the overlap matrix:
Smallest eigenvalue                        ... 1.833e-03
Time for diagonalization                   ...    0.804 sec
Threshold for overlap eigenvalues          ... 1.000e-08
Number of eigenvalues below threshold      ... 0
Time for construction of square roots      ...    0.193 sec
Total time needed                          ...    0.997 sec

-------------------
DFT GRID GENERATION
-------------------

General Integration Accuracy     IntAcc      ...  4.340
Radial Grid Type                 RadialGrid  ... Gauss-Chebyshev
Angular Grid (max. acc.)         AngularGrid ... Lebedev-110
Angular grid pruning method      GridPruning ... 3 (G Style)
Weight generation scheme         WeightScheme... Becke
Basis function cutoff            BFCut       ...    1.0000e-11
Integration weight cutoff        WCut        ...    1.0000e-14
Grids for H and He will be reduced by one unit

# of grid points (after initial pruning)     ...   6548 (   0.1 sec)
# of grid points (after weights+screening)   ...   6388 (   3.7 sec)
nearest neighbour list constructed           ...    0.0 sec
Grid point re-assignment to atoms done       ...    0.0 sec
Grid point division into batches done        ...    0.0 sec
Reduced shell lists constructed in    0.0 sec

Total number of grid points                  ...     6388
Total number of batches                      ...      103
Average number of points per batch           ...       62
Average number of grid points per atom       ...     1065
Average number of shells per batch           ...    31.57 (83.08%)
Average number of basis functions per batch  ...    72.29 (84.05%)
Average number of large shells per batch     ...    30.50 (96.61%)
Average number of large basis fcns per batch ...    69.79 (96.54%)
Maximum spatial batch extension              ...  16.23, 19.49, 14.06 au
Average spatial batch extension              ...   0.43,  0.50,  0.41 au

Time for grid setup =    6.846 sec

------------------------------
INITIAL GUESS: MODEL POTENTIAL
------------------------------
Loading Hartree-Fock densities                     ... done
Calculating cut-offs                               ... done
Setting up the integral package                    ... done
Initializing the effective Hamiltonian             ... done
Starting the Coulomb interaction                   ... done (   0.0 sec)
Reading the grid                                   ... done
Mapping shells                                     ... done
Starting the XC term evaluation                    ... done (   0.1 sec)
  promolecular density results
     # of electrons  =     17.998557478
     EX              =    -14.417185431
     EC              =     -0.574125768
     EX+EC           =    -14.991311200
Transforming the Hamiltonian                       ... done (   0.0 sec)
Diagonalizing the Hamiltonian                      ... done (   0.0 sec)
Back transforming the eigenvectors                 ... done (   0.0 sec)
Now organizing SCF variables                       ... done
                      ------------------
                      INITIAL GUESS DONE (   7.4 sec)
                      ------------------
--------------
SCF ITERATIONS
--------------
ITER       Energy         Delta-E        Max-DP      RMS-DP      [F,P]     Damp
               ***  Starting incremental Fock matrix formation  ***
  0   -115.6473559800   0.000000000000 0.03527210  0.00144211  0.2458757 0.7000
  1   -115.6817378893  -0.034381909281 0.02123766  0.00101549  0.1225769 0.7000
                               ***Turning on DIIS***
  2   -115.6974177882  -0.015679898877 0.03107082  0.00182263  0.0476988 0.0000
  3   -115.7229408180  -0.025523029868 0.01675895  0.00067375  0.0581434 0.0000
  4   -115.7271521328  -0.004211314707 0.00396933  0.00013561  0.0057760 0.0000
                      *** Initiating the SOSCF procedure ***
                           *** Shutting down DIIS ***
                      *** Re-Reading the Fockian *** 
                      *** Removing any level shift *** 
ITER      Energy       Delta-E        Grad      Rot      Max-DP    RMS-DP
  5   -115.72724008  -0.0000879466  0.000519  0.000519  0.000694  0.000047
               *** Restarting incremental Fock matrix formation ***
  6   -115.72724815  -0.0000080739  0.000214  0.000235  0.000547  0.000030
  7   -115.72724904  -0.0000008904  0.000058  0.000123  0.000256  0.000014
  8   -115.72724912  -0.0000000730  0.000030  0.000025  0.000042  0.000002
  9   -115.72724913  -0.0000000127  0.000015  0.000013  0.000023  0.000001
 10   -115.72724913  -0.0000000026  0.000003  0.000003  0.000005  0.000000
                  ***Gradient check signals convergence***
              ***Rediagonalizing the Fockian in SOSCF/NRSCF***

               *****************************************************
               *                     SUCCESS                       *
               *           SCF CONVERGED AFTER  11 CYCLES          *
               *****************************************************

Setting up the final grid:

General Integration Accuracy     IntAcc      ...  4.670
Radial Grid Type                 RadialGrid  ... Gauss-Chebyshev
Angular Grid (max. acc.)         AngularGrid ... Lebedev-302
Angular grid pruning method      GridPruning ... 3 (G Style)
Weight generation scheme         WeightScheme... Becke
Basis function cutoff            BFCut       ...    1.0000e-11
Integration weight cutoff        WCut        ...    1.0000e-14
Grids for H and He will be reduced by one unit

# of grid points (after initial pruning)     ...  26000 (   0.0 sec)
# of grid points (after weights+screening)   ...  25207 (   0.0 sec)
nearest neighbour list constructed           ...    0.0 sec
Grid point re-assignment to atoms done       ...    0.0 sec
Grid point division into batches done        ...    0.1 sec
Reduced shell lists constructed in    0.1 sec

Total number of grid points                  ...    25207
Total number of batches                      ...      397
Average number of points per batch           ...       63
Average number of grid points per atom       ...     4201
Average number of shells per batch           ...    31.16 (81.99%)
Average number of basis functions per batch  ...    71.55 (83.20%)
Average number of large shells per batch     ...    30.04 (96.41%)
Average number of large basis fcns per batch ...    69.29 (96.85%)
Maximum spatial batch extension              ...  18.35, 15.68, 14.71 au
Average spatial batch extension              ...   0.33,  0.31,  0.28 au

Final grid set up in    0.1 sec
Final integration                            ... done (   0.1 sec)
Change in XC energy                          ...    -0.000272922
Integrated number of electrons               ...    17.999978768
Previous integrated no of electrons          ...    17.999678314

----------------
TOTAL SCF ENERGY
----------------

Total Energy       :         -115.72752205 Eh           -3149.10597 eV

Components:
Nuclear Repulsion  :           39.95701040 Eh            1087.28553 eV
Electronic Energy  :         -155.68453245 Eh           -4236.39150 eV
One Electron Energy:         -236.27531840 Eh           -6429.37828 eV
Two Electron Energy:           80.59078595 Eh            2192.98678 eV

Virial components:
Potential Energy   :         -230.87527790 Eh           -6282.43570 eV
Kinetic Energy     :          115.14775585 Eh            3133.32973 eV
Virial Ratio       :            2.00503498


DFT components:
N(Alpha)           :        8.999989384017 electrons
N(Beta)            :        8.999989384017 electrons
N(Total)           :       17.999978768034 electrons
E(XC)              :      -10.629819434159 Eh       
DFET-embed. en.    :        0.000000000000 Eh       

---------------
SCF CONVERGENCE
---------------

  Last Energy change         ...   -2.0935e-10  Tolerance :   1.0000e-08
  Last MAX-Density change    ...    2.1153e-06  Tolerance :   1.0000e-07
  Last RMS-Density change    ...    1.0295e-07  Tolerance :   5.0000e-09
  Last Orbital Gradient      ...    1.3212e-06  Tolerance :   1.0000e-05
  Last Orbital Rotation      ...    1.1364e-06  Tolerance :   1.0000e-05

             **** THE GBW FILE WAS UPDATED (164_charges.gbw) ****
             **** DENSITY FILE WAS UPDATED (164_charges.scfp.tmp) ****
             **** ENERGY FILE WAS UPDATED (164_charges.en.tmp) ****
----------------
ORBITAL ENERGIES
----------------

  NO   OCC          E(Eh)            E(eV) 
   0   2.0000     -19.237157      -523.4697 
   1   2.0000     -10.326041      -280.9859 
   2   2.0000      -1.146687       -31.2029 
   3   2.0000      -0.787810       -21.4374 
   4   2.0000      -0.612165       -16.6579 
   5   2.0000      -0.529969       -14.4212 
   6   2.0000      -0.525344       -14.2953 
   7   2.0000      -0.448997       -12.2178 
   8   2.0000      -0.375469       -10.2170 
   9   0.0000       0.112659         3.0656 
  10   0.0000       0.150357         4.0914 
  11   0.0000       0.190104         5.1730 
  12   0.0000       0.202397         5.5075 
  13   0.0000       0.235362         6.4045 
  14   0.0000       0.300508         8.1772 
  15   0.0000       0.317878         8.6499 
  16   0.0000       0.384565        10.4645 
  17   0.0000       0.451790        12.2938 
  18   0.0000       0.493625        13.4322 
  19   0.0000       0.515939        14.0394 
  20   0.0000       0.531712        14.4686 
  21   0.0000       0.552309        15.0291 
  22   0.0000       0.589369        16.0375 
  23   0.0000       0.608816        16.5667 
  24   0.0000       0.690927        18.8011 
  25   0.0000       0.730804        19.8862 
  26   0.0000       0.791364        21.5341 
  27   0.0000       0.860375        23.4120 
  28   0.0000       0.981955        26.7204 
  29   0.0000       1.054121        28.6841 
  30   0.0000       1.103204        30.0197 
  31   0.0000       1.358432        36.9648 
  32   0.0000       1.471919        40.0529 
  33   0.0000       1.567766        42.6611 
  34   0.0000       1.576184        42.8902 
  35   0.0000       1.618507        44.0418 
  36   0.0000       1.624546        44.2061 
  37   0.0000       1.663128        45.2560 
  38   0.0000       1.699433        46.2439 
  39   0.0000       1.787954        48.6527 
  40   0.0000       1.952665        53.1347 
  41   0.0000       2.033868        55.3444 
  42   0.0000       2.039417        55.4953 
  43   0.0000       2.095115        57.0110 
  44   0.0000       2.153727        58.6059 
  45   0.0000       2.213170        60.2234 
  46   0.0000       2.261482        61.5381 
  47   0.0000       2.350633        63.9640 
  48   0.0000       2.426333        66.0239 
  49   0.0000       2.469735        67.2049 
  50   0.0000       2.479823        67.4794 
  51   0.0000       2.559785        69.6553 
  52   0.0000       2.597427        70.6796 
  53   0.0000       2.681787        72.9751 
  54   0.0000       2.829081        76.9832 
  55   0.0000       2.887093        78.5618 
  56   0.0000       2.892994        78.7224 
  57   0.0000       2.951200        80.3062 
  58   0.0000       3.083788        83.9141 
  59   0.0000       3.160504        86.0017 
  60   0.0000       3.188622        86.7668 
  61   0.0000       3.328612        90.5762 
  62   0.0000       3.438536        93.5673 
  63   0.0000       3.487751        94.9065 
  64   0.0000       3.574330        97.2625 
  65   0.0000       3.603552        98.0576 
  66   0.0000       3.651333        99.3578 
  67   0.0000       4.024634       109.5159 
  68   0.0000       4.197697       114.2252 
  69   0.0000       4.265659       116.0745 
  70   0.0000       4.333330       117.9159 
  71   0.0000       4.530229       123.2738 
  72   0.0000       5.361159       145.8846 
  73   0.0000       5.489758       149.3839 
  74   0.0000       5.522677       150.2797 
  75   0.0000       5.667555       154.2220 
  76   0.0000       5.792548       157.6232 
  77   0.0000       6.034690       164.2123 
  78   0.0000       6.366133       173.2313 
  79   0.0000       6.520158       177.4225 
  80   0.0000       6.776883       184.4084 
  81   0.0000       6.813115       185.3943 
  82   0.0000       6.971249       189.6973 
  83   0.0000       7.215876       196.3540 
  84   0.0000      22.239071       605.1559 
  85   0.0000      43.610697      1186.7074 

                    ********************************
                    * MULLIKEN POPULATION ANALYSIS *
                    ********************************

-----------------------
MULLIKEN ATOMIC CHARGES
-----------------------
   0 C :   -0.203578
   1 O :   -0.443748
   2 H :    0.314062
   3 H :    0.103973
   4 H :    0.121442
   5 H :    0.107848
Sum of atomic charges:   -0.0000000

--------------------------------
MULLIKEN REDUCED ORBITAL CHARGES
--------------------------------
  0 C s       :     3.242226  s :     3.242226
      pz      :     1.075901  p :     2.853551
      px      :     0.814385
      py      :     0.963265
      dz2     :     0.008772  d :     0.100428
      dxz     :     0.025370
      dyz     :     0.011374
      dx2y2   :     0.038411
      dxy     :     0.016502
      f0      :     0.000530  f :     0.007372
      f+1     :     0.001107
      f-1     :     0.000324
      f+2     :     0.000312
      f-2     :     0.001289
      f+3     :     0.002577
      f-3     :     0.001234
  1 O s       :     3.814367  s :     3.814367
      pz      :     1.389955  p :     4.595988
      px      :     1.483996
      py      :     1.722037
      dz2     :     0.011849  d :     0.031830
      dxz     :     0.003290
      dyz     :     0.003913
      dx2y2   :     0.004863
      dxy     :     0.007915
      f0      :     0.000499  f :     0.001562
      f+1     :     0.000088
      f-1     :     0.000208
      f+2     :     0.000053
      f-2     :     0.000121
      f+3     :     0.000223
      f-3     :     0.000370
  2 H s       :     0.635207  s :     0.635207
      pz      :     0.019533  p :     0.050730
      px      :     0.014106
      py      :     0.017091
  3 H s       :     0.876468  s :     0.876468
      pz      :     0.005354  p :     0.019559
      px      :     0.002989
      py      :     0.011216
  4 H s       :     0.859451  s :     0.859451
      pz      :     0.007768  p :     0.019107
      px      :     0.006905
      py      :     0.004433
  5 H s       :     0.873842  s :     0.873842
      pz      :     0.008906  p :     0.018310
      px      :     0.005316
      py      :     0.004088


                     *******************************
                     * LOEWDIN POPULATION ANALYSIS *
                     *******************************

----------------------
LOEWDIN ATOMIC CHARGES
----------------------
   0 C :   -0.398989
   1 O :   -0.073860
   2 H :    0.163093
   3 H :    0.097904
   4 H :    0.109778
   5 H :    0.102073

-------------------------------
LOEWDIN REDUCED ORBITAL CHARGES
-------------------------------
  0 C s       :     2.882096  s :     2.882096
      pz      :     1.100953  p :     3.056937
      px      :     0.925264
      py      :     1.030720
      dz2     :     0.042551  d :     0.407593
      dxz     :     0.103031
      dyz     :     0.044702
      dx2y2   :     0.129823
      dxy     :     0.087486
      f0      :     0.004421  f :     0.052363
      f+1     :     0.007638
      f-1     :     0.004211
      f+2     :     0.003083
      f-2     :     0.007021
      f+3     :     0.015588
      f-3     :     0.010401
  1 O s       :     3.387407  s :     3.387407
      pz      :     1.405089  p :     4.613077
      px      :     1.515308
      py      :     1.692680
      dz2     :     0.022631  d :     0.068597
      dxz     :     0.009935
      dyz     :     0.005913
      dx2y2   :     0.013145
      dxy     :     0.016972
      f0      :     0.001491  f :     0.004778
      f+1     :     0.000370
      f-1     :     0.000594
      f+2     :     0.000156
      f-2     :     0.000500
      f+3     :     0.000824
      f-3     :     0.000843
  2 H s       :     0.668128  s :     0.668128
      pz      :     0.079905  p :     0.168778
      px      :     0.039063
      py      :     0.049810
  3 H s       :     0.844640  s :     0.844640
      pz      :     0.015695  p :     0.057456
      px      :     0.009586
      py      :     0.032175
  4 H s       :     0.834576  s :     0.834576
      pz      :     0.022395  p :     0.055647
      px      :     0.019531
      py      :     0.013720
  5 H s       :     0.842034  s :     0.842034
      pz      :     0.027522  p :     0.055893
      px      :     0.016256
      py      :     0.012115


                      *****************************
                      * MAYER POPULATION ANALYSIS *
                      *****************************

  NA   - Mulliken gross atomic population
  ZA   - Total nuclear charge
  QA   - Mulliken gross atomic charge
  VA   - Mayer's total valence
  BVA  - Mayer's bonded valence
  FA   - Mayer's free valence

  ATOM       NA         ZA         QA         VA         BVA        FA
  0 C      6.2036     6.0000    -0.2036     3.9408     3.9408    -0.0000
  1 O      8.4437     8.0000    -0.4437     1.9106     1.9106    -0.0000
  2 H      0.6859     1.0000     0.3141     0.9151     0.9151    -0.0000
  3 H      0.8960     1.0000     0.1040     0.9498     0.9498    -0.0000
  4 H      0.8786     1.0000     0.1214     0.9595     0.9595     0.0000
  5 H      0.8922     1.0000     0.1078     0.9590     0.9590    -0.0000

  Mayer bond orders larger than 0.1
B(  0-C ,  1-O ) :   1.0084 B(  0-C ,  3-H ) :   0.9701 B(  0-C ,  4-H ) :   0.9727 
B(  0-C ,  5-H ) :   0.9788 B(  1-O ,  2-H ) :   0.9066 


------------------
HIRSHFELD ANALYSIS
------------------

Total integrated alpha density =      8.999839157
Total integrated beta density  =      8.999839157

  ATOM     CHARGE      SPIN    
   0 C    0.009497    0.000000
   1 O   -0.245757    0.000000
   2 H    0.153952    0.000000
   3 H    0.018706    0.000000
   4 H    0.034628    0.000000
   5 H    0.029296    0.000000

  TOTAL   0.000322    0.000000

-------
TIMINGS
-------

Total SCF time: 0 days 0 hours 0 min 30 sec 

Total time                  ....      30.112 sec
Sum of individual times     ....      26.630 sec  ( 88.4%)

Fock matrix formation       ....      16.013 sec  ( 53.2%)
  XC integration            ....       3.314 sec  ( 20.7% of F)
    Basis function eval.    ....       0.037 sec  (  1.1% of XC)
    Density eval.           ....       0.040 sec  (  1.2% of XC)
    XC-Functional eval.     ....       0.070 sec  (  2.1% of XC)
    XC-Potential eval.      ....       0.037 sec  (  1.1% of XC)
Diagonalization             ....       0.674 sec  (  2.2%)
Density matrix formation    ....       1.734 sec  (  5.8%)
Population analysis         ....       0.032 sec  (  0.1%)
Initial guess               ....       0.533 sec  (  1.8%)
Orbital Transformation      ....       0.000 sec  (  0.0%)
Orbital Orthonormalization  ....       0.000 sec  (  0.0%)
DIIS solution               ....       0.314 sec  (  1.0%)
SOSCF solution              ....       0.351 sec  (  1.2%)
Grid generation             ....       6.978 sec  ( 23.2%)


-------------------------------------------------------------------------------
                          DFT DISPERSION CORRECTION                            
                                                                               
                              DFTD3 V3.1  Rev 1                                
                              USING zero damping                               
-------------------------------------------------------------------------------
The omegaB97X-D3 functional is recognized. Fit by Chai et al.
Active option DFTDOPT                   ...         3   

molecular C6(AA) [au] = 208.720442 


            DFT-D V3
 parameters
 s6 scaling factor         :     1.0000 
 rs6 scaling factor        :     1.2810 
 s8 scaling factor         :     1.0000 
 rs8 scaling factor        :     1.0940 
 Damping factor alpha6     :    14.0000 
 Damping factor alpha8     :    16.0000 
 ad hoc parameters k1-k3   :    16.0000     1.3333    -4.0000 

 Edisp/kcal,au: -0.159858381680  -0.000254750520 
 E6   /kcal   :  -0.028639080 
 E8   /kcal   :  -0.131219302 
 % E8         :  82.084717915 

-------------------------   ----------------
Dispersion correction           -0.000254751
-------------------------   ----------------


-------------------------   --------------------
FINAL SINGLE POINT ENERGY      -115.727776804956
-------------------------   --------------------


                            ***************************************
                            *     ORCA property calculations      *
                            ***************************************

                                    ---------------------
                                    Active property flags
                                    ---------------------
   (+) Dipole Moment


------------------------------------------------------------------------------
                       ORCA ELECTRIC PROPERTIES CALCULATION
------------------------------------------------------------------------------

Dipole Moment Calculation                       ... on
Quadrupole Moment Calculation                   ... off
Polarizability Calculation                      ... off
GBWName                                         ... 164_charges.gbw
Electron density file                           ... 164_charges.scfp.tmp
The origin for moment calculation is the CENTER OF MASS  = (-19.488469, -0.568920 -0.359141)

-------------
DIPOLE MOMENT
-------------
                                X             Y             Z
Electronic contribution:      1.66000      -1.22020       0.08596
Nuclear contribution   :     -2.03770       1.62671       0.42733
                        -----------------------------------------
Total Dipole Moment    :     -0.37770       0.40651       0.51329
                        -----------------------------------------
Magnitude (a.u.)       :      0.75589
Magnitude (Debye)      :      1.92133



--------------------
Rotational spectrum 
--------------------
 
Rotational constants in cm-1:     4.182111     0.814230     0.778028 
Rotational constants in MHz : 125376.544083 24409.987934 23324.691264 

 Dipole components along the rotational axes: 
x,y,z [a.u.] :     0.446711     0.608845     0.033657 
x,y,z [Debye]:     1.135449     1.547561     0.085550 

 
------------------------------------------------------------------------------
                      ORCA CHELPG CHARGES GENERATION
------------------------------------------------------------------------------

GBW file                           ... 164_charges.gbw

Reading the GBW file               ... done

Grid spacing                       ...     0.300000
Point Cut-Off                      ...     2.800000
Van-der-Waals Radii                ...        COSMO
Total charge                       ...            0


Number of points X direction       ...           25
Number of points Y direction       ...           24
Number of points Z direction       ...           24
Maximum number of possible points  ...        14400
Final number of points             ...         5879


CHELPG Charges            
--------------------------------
  0   C   :       0.080434
  1   O   :      -0.563836
  2   H   :       0.387298
  3   H   :       0.027959
  4   H   :       0.061018
  5   H   :       0.007127
--------------------------------
Total charge:     0.000000
--------------------------------

CHELPG charges calculated...

Timings for individual parts in CHELPG calculation:
Grid generation                 ...        0.002 sec (=   0.000 min)
Potential calculation           ...        0.685 sec (=   0.011 min)
Fit to the potential            ...        0.001 sec (=   0.000 min)
------------------------------------------------------------------------------


Timings for individual modules:

Sum of individual times         ...       39.739 sec (=   0.662 min)
GTO integral calculation        ...        4.139 sec (=   0.069 min)  10.4 %
SCF iterations                  ...       34.854 sec (=   0.581 min)  87.7 %
CHELPG charge generation        ...        0.746 sec (=   0.012 min)   1.9 %
                             ****ORCA TERMINATED NORMALLY****
TOTAL RUN TIME: 0 days 0 hours 0 minutes 41 seconds 706 msec
