
                                 *****************
                                 * O   R   C   A *
                                 *****************

           --- An Ab Initio, DFT and Semiempirical electronic structure package ---

                  #######################################################
                  #                        -***-                        #
                  #          Department of theory and spectroscopy      #
                  #               Directorship: Frank Neese             #
                  #        Max Planck Institute fuer Kohlenforschung    #
                  #                Kaiser Wilhelm Platz 1               #
                  #                 D-45470 Muelheim/Ruhr               #
                  #                      Germany                        #
                  #                                                     #
                  #                  All rights reserved                #
                  #                        -***-                        #
                  #######################################################


                         Program Version 4.1.2  - RELEASE  -


 With contributions from (in alphabetic order):
   Daniel Aravena         : Magnetic Properties
   Michael Atanasov       : Ab Initio Ligand Field Theory
   Alexander A. Auer      : GIAO ZORA
   Ute Becker             : Parallelization
   Giovanni Bistoni       : ED, Open-shell LED
   Martin Brehm           : Molecular dynamics
   Dmytro Bykov           : SCF Hessian
   Vijay G. Chilkuri      : MRCI spin determinant printing
   Dipayan Datta          : RHF DLPNO-CCSD density
   Achintya Kumar Dutta   : EOM-CC, STEOM-CC
   Dmitry Ganyushin       : Spin-Orbit,Spin-Spin,Magnetic field MRCI
   Miquel Garcia          : C-PCM Hessian
   Yang Guo               : DLPNO-NEVPT2, CIM, IAO-localization
   Andreas Hansen         : Spin unrestricted coupled pair/coupled cluster methods
   Benjamin Helmich-Paris : CASSCF linear response (MC-RPA)
   Lee Huntington         : MR-EOM, pCC
   Robert Izsak           : Overlap fitted RIJCOSX, COSX-SCS-MP3, EOM
   Christian Kollmar      : KDIIS, OOCD, Brueckner-CCSD(T), CCSD density
   Simone Kossmann        : Meta GGA functionals, TD-DFT gradient, OOMP2, MP2 Hessian
   Martin Krupicka        : AUTO-CI
   Lucas Lang             : DCDCAS
   Dagmar Lenk            : GEPOL surface, SMD
   Dimitrios Liakos       : Extrapolation schemes; parallel MDCI
   Dimitrios Manganas     : ROCIS; embedding schemes
   Dimitrios Pantazis     : SARC Basis sets
   Taras Petrenko         : DFT Hessian,TD-DFT gradient, ASA, ECA, R-Raman, ABS, FL, XAS/XES, NRVS
   Peter Pinski           : DLPNO-MP2, DLPNO-MP2 Gradient
   Christoph Reimann      : Effective Core Potentials
   Marius Retegan         : Local ZFS, SOC
   Christoph Riplinger    : Optimizer, TS searches, QM/MM, DLPNO-CCSD(T), (RO)-DLPNO pert. Triples
   Tobias Risthaus        : Range-separated hybrids, TD-DFT gradient, RPA, STAB
   Michael Roemelt        : Restricted open shell CIS
   Masaaki Saitow         : Open-shell DLPNO
   Barbara Sandhoefer     : DKH picture change effects
   Avijit Sen             : IP-ROCIS
   Kantharuban Sivalingam : CASSCF convergence, NEVPT2, FIC-MRCI
   Bernardo de Souza      : ESD, SOC TD-DFT
   Georgi Stoychev        : AutoAux, RI-MP2 NMR
   Willem Van den Heuvel  : Paramagnetic NMR
   Boris Wezisla          : Elementary symmetry handling
   Frank Wennmohs         : Technical directorship


 We gratefully acknowledge several colleagues who have allowed us to
 interface, adapt or use parts of their codes:
   Stefan Grimme, W. Hujo, H. Kruse,             : VdW corrections, initial TS optimization,
                  C. Bannwarth                     DFT functionals, gCP, sTDA/sTD-DF
   Ed Valeev                                     : LibInt (2-el integral package), F12 methods
   Garnet Chan, S. Sharma, J. Yang, R. Olivares  : DMRG
   Ulf Ekstrom                                   : XCFun DFT Library
   Mihaly Kallay                                 : mrcc  (arbitrary order and MRCC methods)
   Andreas Klamt, Michael Diedenhofen            : otool_cosmo (COSMO solvation model)
   Jiri Pittner, Ondrej Demel                    : Mk-CCSD
   Frank Weinhold                                : gennbo (NPA and NBO analysis)
   Christopher J. Cramer and Donald G. Truhlar   : smd solvation model
   Lars Goerigk                                  : TD-DFT with DH, B97 family of functionals
   V. Asgeirsson, H. Jonsson                     : NEB implementation
   FAccTs GmbH                                   : IRC, NEB, NEB-TS, Multilevel


 Your calculation uses the libint2 library for the computation of 2-el integrals
 For citations please refer to: http://libint.valeyev.net

 This ORCA versions uses:
   CBLAS   interface :  Fast vector & matrix operations
   LAPACKE interface :  Fast linear algebra routines
   SCALAPACK package :  Parallel linear algebra routines


Your calculation utilizes the atom-pairwise dispersion correction
with the zero-damping scheme (D30)
Cite in your paper:
S.Grimme, J.Antony, S.Ehrlich and H.Krieg, J.Chem.Phys., 132, (2010), 154104 
   

XCFun DFT library Copyright 2009-2010 Ulf Ekstrom and contributors.
See http://admol.org/xcfun for more information. This is free soft-
ware; see the source code for copying conditions. There is ABSOLUTELY
NO WARRANTY; not even for MERCHANTABILITY or FITNESS FOR A PARTICULAR
PURPOSE. For details see the documentation. Scientific users of this 
library should cite U. Ekstrom, L. Visscher, R. Bast, A. J. Thorvald-
sen and K. Ruud; J.Chem.Theor.Comp. 2010, DOI: 10.1021/ct100117s
XCFun Version 0.99 
----- Orbital basis set information -----
Your calculation utilizes the basis: def2-TZVP
   F. Weigend and R. Ahlrichs, Phys. Chem. Chem. Phys. 7, 3297 (2005).

================================================================================
                                        WARNINGS
                       Please study these warnings very carefully!
================================================================================


INFO   : the flag for use of LIBINT has been found!

Your calculation utilizes the atom-pairwise dispersion correction
with the zero-damping scheme (D30)
Cite in your paper:
S.Grimme, J.Antony, S.Ehrlich and H.Krieg, J.Chem.Phys., 132, (2010), 154104 
   

XCFun DFT library Copyright 2009-2010 Ulf Ekstrom and contributors.
See http://admol.org/xcfun for more information. This is free soft-
ware; see the source code for copying conditions. There is ABSOLUTELY
NO WARRANTY; not even for MERCHANTABILITY or FITNESS FOR A PARTICULAR
PURPOSE. For details see the documentation. Scientific users of this 
library should cite U. Ekstrom, L. Visscher, R. Bast, A. J. Thorvald-
sen and K. Ruud; J.Chem.Theor.Comp. 2010, DOI: 10.1021/ct100117s
XCFun Version 0.99 
----- Orbital basis set information -----
Your calculation utilizes the basis: def2-TZVP
   F. Weigend and R. Ahlrichs, Phys. Chem. Chem. Phys. 7, 3297 (2005).

================================================================================
                                        WARNINGS
                       Please study these warnings very carefully!
================================================================================


WARNING: MOInp is set but Guess=PModel. MOInp will be ignored!
         To read the initial guess from a file you must also specify
         'MORead' in the simple input or 'Guess MORead' in the %scf block


INFO   : the flag for use of LIBINT has been found!

Your calculation utilizes the atom-pairwise dispersion correction
with the zero-damping scheme (D30)
Cite in your paper:
S.Grimme, J.Antony, S.Ehrlich and H.Krieg, J.Chem.Phys., 132, (2010), 154104 
   

XCFun DFT library Copyright 2009-2010 Ulf Ekstrom and contributors.
See http://admol.org/xcfun for more information. This is free soft-
ware; see the source code for copying conditions. There is ABSOLUTELY
NO WARRANTY; not even for MERCHANTABILITY or FITNESS FOR A PARTICULAR
PURPOSE. For details see the documentation. Scientific users of this 
library should cite U. Ekstrom, L. Visscher, R. Bast, A. J. Thorvald-
sen and K. Ruud; J.Chem.Theor.Comp. 2010, DOI: 10.1021/ct100117s
XCFun Version 0.99 
----- Orbital basis set information -----
Your calculation utilizes the basis: def2-TZVP
   F. Weigend and R. Ahlrichs, Phys. Chem. Chem. Phys. 7, 3297 (2005).

================================================================================
                                        WARNINGS
                       Please study these warnings very carefully!
================================================================================


WARNING: MOInp is set but Guess=PModel. MOInp will be ignored!
         To read the initial guess from a file you must also specify
         'MORead' in the simple input or 'Guess MORead' in the %scf block


INFO   : the flag for use of LIBINT has been found!

================================================================================
                                       INPUT FILE
================================================================================
NAME = 8-107.in
|  1> #Run DFT-D3 single point of the dimer
|  2> ! wB97X-D3 def2-TZVP TIGHTSCF CHELPG PMODEL PAL8
|  3> 
|  4> %base "8-107_DFT_AB"
|  5> 
|  6> %scf
|  7> MaxIter 1000
|  8> end
|  9> 
| 10> * xyz 0 1
| 11>   C                      6.607193             -4.525845            4.377470            
| 12>   O                      6.373419             -5.532670            3.540175            
| 13>   H                      5.453092             -5.878373            3.648403            
| 14>   H                      6.456532             -4.812050            5.465561            
| 15>   H                      7.700353             -4.239288            4.432152            
| 16>   H                      6.134564             -3.540531            4.143520            
| 17>   C                      6.699430             -5.657267            -0.260360           
| 18>   O                      6.373375             -4.714772            0.735711            
| 19>   H                      6.683855             -5.044267            1.572619            
| 20>   H                      6.083675             -5.429119            -1.111410           
| 21>   H                      7.752837             -5.548398            -0.640329           
| 22>   H                      6.603195             -6.639985            0.122955            
| 23> *
| 24> 
| 25> #Run DFT-D3 single point of the molecule with dimer basis set
| 26> $new_job
| 27> %base "8-107_DFT_A"
| 28> ! wB97X-D3 def2-TZVP TIGHTSCF CHELPG PMODEL
| 29> 
| 30> %scf
| 31> MaxIter 1000
| 32> end
| 33> 
| 34> * xyz 0 1
| 35>   C                      6.607193             -4.525845            4.377470            
| 36>   O                      6.373419             -5.532670            3.540175            
| 37>   H                      5.453092             -5.878373            3.648403            
| 38>   H                      6.456532             -4.812050            5.465561            
| 39>   H                      7.700353             -4.239288            4.432152            
| 40>   H                      6.134564             -3.540531            4.143520            
| 41>   C                    : 6.699430             -5.657267            -0.260360           
| 42>   O                    : 6.373375             -4.714772            0.735711            
| 43>   H                    : 6.683855             -5.044267            1.572619            
| 44>   H                    : 6.083675             -5.429119            -1.111410           
| 45>   H                    : 7.752837             -5.548398            -0.640329           
| 46>   H                    : 6.603195             -6.639985            0.122955            
| 47> *
| 48> 
| 49> #Run DFT-D3 single point of the particle with dimer basis set
| 50> $new_job
| 51> %base "8-107_DFT_B"
| 52> ! wB97X-D3 def2-TZVP TIGHTSCF CHELPG PMODEL
| 53> 
| 54> %scf
| 55> MaxIter 1000
| 56> end
| 57> 
| 58> * xyz 0 1
| 59>   C                    : 6.607193             -4.525845            4.377470            
| 60>   O                    : 6.373419             -5.532670            3.540175            
| 61>   H                    : 5.453092             -5.878373            3.648403            
| 62>   H                    : 6.456532             -4.812050            5.465561            
| 63>   H                    : 7.700353             -4.239288            4.432152            
| 64>   H                    : 6.134564             -3.540531            4.143520            
| 65>   C                      6.699430             -5.657267            -0.260360           
| 66>   O                      6.373375             -4.714772            0.735711            
| 67>   H                      6.683855             -5.044267            1.572619            
| 68>   H                      6.083675             -5.429119            -1.111410           
| 69>   H                      7.752837             -5.548398            -0.640329           
| 70>   H                      6.603195             -6.639985            0.122955            
| 71> *
| 72> 
| 73>                          ****END OF INPUT****
================================================================================


                 $$$$$$$$$$$$$$$$$$$$$$$$$$$$$$$$$$$$$$$$$$$$$$ 
                 $ THERE ARE  3 JOBS TO BE PROCESSED THIS RUN $
                 $$$$$$$$$$$$$$$$$$$$$$$$$$$$$$$$$$$$$$$$$$$$$$ 




                 $$$$$$$$$$$$$$$$  JOB NUMBER  1 $$$$$$$$$$$$$$


                       ****************************
                       * Single Point Calculation *
                       ****************************

---------------------------------
CARTESIAN COORDINATES (ANGSTROEM)
---------------------------------
  C      6.607193   -4.525845    4.377470
  O      6.373419   -5.532670    3.540175
  H      5.453092   -5.878373    3.648403
  H      6.456532   -4.812050    5.465561
  H      7.700353   -4.239288    4.432152
  H      6.134564   -3.540531    4.143520
  C      6.699430   -5.657267   -0.260360
  O      6.373375   -4.714772    0.735711
  H      6.683855   -5.044267    1.572619
  H      6.083675   -5.429119   -1.111410
  H      7.752837   -5.548398   -0.640329
  H      6.603195   -6.639985    0.122955

----------------------------
CARTESIAN COORDINATES (A.U.)
----------------------------
  NO LB      ZA    FRAG     MASS         X           Y           Z
   0 C     6.0000    0    12.011   12.485785   -8.552608    8.272219
   1 O     8.0000    0    15.999   12.044016  -10.455231    6.689961
   2 H     1.0000    0     1.008   10.304850  -11.108515    6.894482
   3 H     1.0000    0     1.008   12.201077   -9.093457   10.328413
   4 H     1.0000    0     1.008   14.551558   -8.011093    8.375553
   5 H     1.0000    0     1.008   11.592646   -6.690634    7.830118
   6 C     6.0000    0    12.011   12.660088  -10.690685   -0.492009
   7 O     8.0000    0    15.999   12.043933   -8.909628    1.390292
   8 H     1.0000    0     1.008   12.630655   -9.532283    2.971819
   9 H     1.0000    0     1.008   11.496480  -10.259548   -2.100261
  10 H     1.0000    0     1.008   14.650739  -10.484953   -1.210046
  11 H     1.0000    0     1.008   12.478230  -12.547753    0.232351

--------------------------------
INTERNAL COORDINATES (ANGSTROEM)
--------------------------------
 C      0   0   0     0.000000000000     0.00000000     0.00000000
 O      1   0   0     1.330191633084     0.00000000     0.00000000
 H      2   1   0     0.989052906129   111.05190981     0.00000000
 H      1   2   3     1.135144952518   112.90463236    57.93968021
 H      1   2   3     1.131416731789   113.07443752   168.54928737
 H      1   2   3     1.117566307982   117.46699039   285.99201408
 C      2   1   3     3.816526414261   129.53244595   124.30656462
 O      7   2   1     1.409526915348    41.81523277   327.95628061
 H      8   7   2     0.951514469616   108.33225561    17.89521282
 H      7   2   1     1.074938059810   137.09993846   273.04599568
 H      7   2   1     1.125120085933   114.40075760    65.77830890
 H      7   2   1     1.059210192537    70.25448077   166.36566743

---------------------------
INTERNAL COORDINATES (A.U.)
---------------------------
 C      0   0   0     0.000000000000     0.00000000     0.00000000
 O      1   0   0     2.513697892162     0.00000000     0.00000000
 H      2   1   0     1.869039124543   111.05190981     0.00000000
 H      1   2   3     2.145113082562   112.90463236    57.93968021
 H      1   2   3     2.138067766418   113.07443752   168.54928737
 H      1   2   3     2.111894258584   117.46699039   285.99201408
 C      2   1   3     7.212189705831   129.53244595   124.30656462
 O      7   2   1     2.663619848399    41.81523277   327.95628061
 H      8   7   2     1.798101760038   108.33225561    17.89521282
 H      7   2   1     2.031338543970   137.09993846   273.04599568
 H      7   2   1     2.126168830188   114.40075760    65.77830890
 H      7   2   1     2.001617182153    70.25448077   166.36566743

---------------------
BASIS SET INFORMATION
---------------------
There are 3 groups of distinct atoms

 Group   1 Type C   : 11s6p2d1f contracted to 5s3p2d1f pattern {62111/411/11/1}
 Group   2 Type O   : 11s6p2d1f contracted to 5s3p2d1f pattern {62111/411/11/1}
 Group   3 Type H   : 5s1p contracted to 3s1p pattern {311/1}

Atom   0C    basis set group =>   1
Atom   1O    basis set group =>   2
Atom   2H    basis set group =>   3
Atom   3H    basis set group =>   3
Atom   4H    basis set group =>   3
Atom   5H    basis set group =>   3
Atom   6C    basis set group =>   1
Atom   7O    basis set group =>   2
Atom   8H    basis set group =>   3
Atom   9H    basis set group =>   3
Atom  10H    basis set group =>   3
Atom  11H    basis set group =>   3


           ************************************************************
           *        Program running with 8 parallel MPI-processes     *
           *              working on a common directory               *
           ************************************************************
------------------------------------------------------------------------------
                           ORCA GTO INTEGRAL CALCULATION
------------------------------------------------------------------------------

                         BASIS SET STATISTICS AND STARTUP INFO

 # of primitive gaussian shells          ...  128
 # of primitive gaussian functions       ...  248
 # of contracted shells                  ...   76
 # of contracted basis functions         ...  172
 Highest angular momentum                ...    3
 Maximum contraction depth               ...    6
 Integral package used                   ... LIBINT
 Integral threshhold            Thresh   ...  2.500e-11
 Primitive cut-off              TCut     ...  2.500e-12


------------------------------ INTEGRAL EVALUATION ----------------------------


 * One electron integrals 
 Pre-screening matrix                    ... done
 Shell pair data                         ... done (   0.001 sec)



           ************************************************************
           *        Program running with 8 parallel MPI-processes     *
           *              working on a common directory               *
           ************************************************************
-------------------------------------------------------------------------------
                                 ORCA SCF
-------------------------------------------------------------------------------

------------
SCF SETTINGS
------------
Hamiltonian:
 Density Functional     Method          .... DFT(GTOs)
 Exchange Functional    Exchange        .... WB97X-D3
 Correlation Functional Correlation     .... WB97X-D3
 Gradients option       PostSCFGGA      .... off
 Hybrid DFT is turned on
   Fraction HF Exchange ScalHFX         ....  0.195728
   Scaling of DF-GGA-X  ScalDFX         ....  0.000000
   Scaling of DF-GGA-C  ScalDFC         ....  1.000000
   Scaling of DF-LDA-C  ScalLDAC        ....  1.000000
   Perturbative correction              ....  0.000000
   Density functional embedding theory  .... OFF
 Long-range corrected/Screened/Range-Separated Hybrid DFT is turned on
   Amount of maximum screened exact exchange              ....  0.804272
   Range separation parameter mu (erf(mu*r12)/r12)        ....  0.250000


General Settings:
 Integral files         IntName         .... 8-107_DFT_AB
 Hartree-Fock type      HFTyp           .... RHF
 Total Charge           Charge          ....    0
 Multiplicity           Mult            ....    1
 Number of Electrons    NEL             ....   36
 Basis Dimension        Dim             ....  172
 Nuclear Repulsion      ENuc            ....    127.9342187124 Eh

Convergence Acceleration:
 DIIS                   CNVDIIS         .... on
   Start iteration      DIISMaxIt       ....    12
   Startup error        DIISStart       ....  0.200000
   # of expansion vecs  DIISMaxEq       ....     5
   Bias factor          DIISBfac        ....   1.050
   Max. coefficient     DIISMaxC        ....  10.000
 Newton-Raphson         CNVNR           .... off
 SOSCF                  CNVSOSCF        .... on
   Start iteration      SOSCFMaxIt      ....   150
   Startup grad/error   SOSCFStart      ....  0.003300
 Level Shifting         CNVShift        .... on
   Level shift para.    LevelShift      ....    0.2500
   Turn off err/grad.   ShiftErr        ....    0.0010
 Zerner damping         CNVZerner       .... off
 Static damping         CNVDamp         .... on
   Fraction old density DampFac         ....    0.7000
   Max. Damping (<1)    DampMax         ....    0.9800
   Min. Damping (>=0)   DampMin         ....    0.0000
   Turn off err/grad.   DampErr         ....    0.1000
 Fernandez-Rico         CNVRico         .... off

SCF Procedure:
 Maximum # iterations   MaxIter         ....  1000
 SCF integral mode      SCFMode         .... Direct
   Integral package                     .... LIBINT
 Reset frequency        DirectResetFreq ....    20
 Integral Threshold     Thresh          ....  2.500e-11 Eh
 Primitive CutOff       TCut            ....  2.500e-12 Eh

Convergence Tolerance:
 Convergence Check Mode ConvCheckMode   .... Total+1el-Energy
 Convergence forced     ConvForced      .... 0
 Energy Change          TolE            ....  1.000e-08 Eh
 1-El. energy change                    ....  1.000e-05 Eh
 Orbital Gradient       TolG            ....  1.000e-05
 Orbital Rotation angle TolX            ....  1.000e-05
 DIIS Error             TolErr          ....  5.000e-07


Diagonalization of the overlap matrix:
Smallest eigenvalue                        ... 1.499e-03
Time for diagonalization                   ...    0.004 sec
Threshold for overlap eigenvalues          ... 1.000e-08
Number of eigenvalues below threshold      ... 0
Time for construction of square roots      ...    0.005 sec
Total time needed                          ...    0.009 sec

-------------------
DFT GRID GENERATION
-------------------

General Integration Accuracy     IntAcc      ...  4.340
Radial Grid Type                 RadialGrid  ... Gauss-Chebyshev
Angular Grid (max. acc.)         AngularGrid ... Lebedev-110
Angular grid pruning method      GridPruning ... 3 (G Style)
Weight generation scheme         WeightScheme... Becke
Basis function cutoff            BFCut       ...    1.0000e-11
Integration weight cutoff        WCut        ...    1.0000e-14
Grids for H and He will be reduced by one unit

# of grid points (after initial pruning)     ...  13096 (   0.0 sec)
# of grid points (after weights+screening)   ...  12539 (   0.0 sec)
nearest neighbour list constructed           ...    0.0 sec
Grid point re-assignment to atoms done       ...    0.0 sec
Grid point division into batches done        ...    0.0 sec
Reduced shell lists constructed in    0.0 sec

Total number of grid points                  ...    12539
Total number of batches                      ...      201
Average number of points per batch           ...       62
Average number of grid points per atom       ...     1045
Average number of shells per batch           ...    56.44 (74.27%)
Average number of basis functions per batch  ...   126.96 (73.82%)
Average number of large shells per batch     ...    46.48 (82.35%)
Average number of large basis fcns per batch ...   103.30 (81.36%)
Maximum spatial batch extension              ...   9.90, 16.04, 10.00 au
Average spatial batch extension              ...   0.27,  0.29,  0.26 au

Time for grid setup =    0.038 sec

------------------------------
INITIAL GUESS: MODEL POTENTIAL
------------------------------
Loading Hartree-Fock densities                     ... done
Calculating cut-offs                               ... done
Setting up the integral package                    ... done
Initializing the effective Hamiltonian             ... done
Starting the Coulomb interaction                   ... done (   0.0 sec)
Reading the grid                                   ... done
Mapping shells                                     ... done
Starting the XC term evaluation                    ... done (   0.0 sec)
  promolecular density results
     # of electrons  =     35.988307388
     EX              =    -28.878770314
     EC              =     -1.157195844
     EX+EC           =    -30.035966159
Transforming the Hamiltonian                       ... done (   0.0 sec)
Diagonalizing the Hamiltonian                      ... done (   0.0 sec)
Back transforming the eigenvectors                 ... done (   0.0 sec)
Now organizing SCF variables                       ... done
                      ------------------
                      INITIAL GUESS DONE (   0.1 sec)
                      ------------------
--------------
SCF ITERATIONS
--------------
ITER       Energy         Delta-E        Max-DP      RMS-DP      [F,P]     Damp
               ***  Starting incremental Fock matrix formation  ***
  0   -231.3002768399   0.000000000000 0.03805429  0.00104568  0.2492457 0.7000
  1   -231.3718834178  -0.071606577972 0.02237836  0.00074378  0.1251764 0.7000
                               ***Turning on DIIS***
  2   -231.4050114278  -0.033128009958 0.03328804  0.00135460  0.0503178 0.0000
  3   -231.4586325558  -0.053621127994 0.01813985  0.00048223  0.0620151 0.0000
  4   -231.4674811839  -0.008848628083 0.00446382  0.00009187  0.0064562 0.0000
                      *** Initiating the SOSCF procedure ***
                           *** Shutting down DIIS ***
                      *** Re-Reading the Fockian *** 
                      *** Removing any level shift *** 
ITER      Energy       Delta-E        Grad      Rot      Max-DP    RMS-DP
  5   -231.46765687  -0.0001756825  0.000427  0.000427  0.000786  0.000032
               *** Restarting incremental Fock matrix formation ***
  6   -231.46767372  -0.0000168561  0.000113  0.000186  0.000550  0.000019
  7   -231.46767533  -0.0000016107  0.000049  0.000096  0.000256  0.000009
  8   -231.46767546  -0.0000001259  0.000029  0.000023  0.000049  0.000002
  9   -231.46767550  -0.0000000411  0.000009  0.000010  0.000018  0.000001
 10   -231.46767550  -0.0000000020  0.000005  0.000005  0.000007  0.000000
                  ***Gradient check signals convergence***
              ***Rediagonalizing the Fockian in SOSCF/NRSCF***

               *****************************************************
               *                     SUCCESS                       *
               *           SCF CONVERGED AFTER  11 CYCLES          *
               *****************************************************

Setting up the final grid:

General Integration Accuracy     IntAcc      ...  4.670
Radial Grid Type                 RadialGrid  ... Gauss-Chebyshev
Angular Grid (max. acc.)         AngularGrid ... Lebedev-302
Angular grid pruning method      GridPruning ... 3 (G Style)
Weight generation scheme         WeightScheme... Becke
Basis function cutoff            BFCut       ...    1.0000e-11
Integration weight cutoff        WCut        ...    1.0000e-14
Grids for H and He will be reduced by one unit

# of grid points (after initial pruning)     ...  52000 (   0.0 sec)
# of grid points (after weights+screening)   ...  49233 (   0.0 sec)
nearest neighbour list constructed           ...    0.0 sec
Grid point re-assignment to atoms done       ...    0.0 sec
Grid point division into batches done        ...    0.2 sec
Reduced shell lists constructed in    0.2 sec

Total number of grid points                  ...    49233
Total number of batches                      ...      775
Average number of points per batch           ...       63
Average number of grid points per atom       ...     4103
Average number of shells per batch           ...    55.27 (72.72%)
Average number of basis functions per batch  ...   122.96 (71.49%)
Average number of large shells per batch     ...    45.44 (82.22%)
Average number of large basis fcns per batch ...   100.44 (81.68%)
Maximum spatial batch extension              ...   9.72, 12.86,  7.08 au
Average spatial batch extension              ...   0.16,  0.16,  0.15 au

Final grid set up in    0.2 sec
Final integration                            ... done (   0.1 sec)
Change in XC energy                          ...    -0.000252464
Integrated number of electrons               ...    35.999990787
Previous integrated no of electrons          ...    35.998785682

----------------
TOTAL SCF ENERGY
----------------

Total Energy       :         -231.46792797 Eh           -6298.56253 eV

Components:
Nuclear Repulsion  :          127.93421871 Eh            3481.26708 eV
Electronic Energy  :         -359.40214668 Eh           -9779.82961 eV
One Electron Energy:         -568.63042028 Eh          -15473.22038 eV
Two Electron Energy:          209.22827360 Eh            5693.39077 eV

Virial components:
Potential Energy   :         -462.00645881 Eh          -12571.83488 eV
Kinetic Energy     :          230.53853085 Eh            6273.27235 eV
Virial Ratio       :            2.00403142


DFT components:
N(Alpha)           :       17.999995393321 electrons
N(Beta)            :       17.999995393321 electrons
N(Total)           :       35.999990786642 electrons
E(XC)              :      -21.318899754384 Eh       
DFET-embed. en.    :        0.000000000000 Eh       

---------------
SCF CONVERGENCE
---------------

  Last Energy change         ...   -9.2768e-10  Tolerance :   1.0000e-08
  Last MAX-Density change    ...    1.5679e-06  Tolerance :   1.0000e-07
  Last RMS-Density change    ...    6.0404e-08  Tolerance :   5.0000e-09
  Last Orbital Gradient      ...    6.9134e-07  Tolerance :   1.0000e-05
  Last Orbital Rotation      ...    7.8799e-07  Tolerance :   1.0000e-05

             **** THE GBW FILE WAS UPDATED (8-107_DFT_AB.gbw) ****
             **** DENSITY FILE WAS UPDATED (8-107_DFT_AB.scfp.tmp) ****
             **** ENERGY FILE WAS UPDATED (8-107_DFT_AB.en.tmp) ****
----------------
ORBITAL ENERGIES
----------------

  NO   OCC          E(Eh)            E(eV) 
   0   2.0000     -19.258389      -524.0474 
   1   2.0000     -19.205762      -522.6153 
   2   2.0000     -10.326245      -280.9914 
   3   2.0000     -10.296559      -280.1836 
   4   2.0000      -1.180608       -32.1260 
   5   2.0000      -1.118185       -30.4274 
   6   2.0000      -0.800354       -21.7787 
   7   2.0000      -0.782427       -21.2909 
   8   2.0000      -0.639277       -17.3956 
   9   2.0000      -0.603252       -16.4153 
  10   2.0000      -0.562885       -15.3169 
  11   2.0000      -0.552710       -15.0400 
  12   2.0000      -0.525807       -14.3079 
  13   2.0000      -0.511640       -13.9224 
  14   2.0000      -0.430395       -11.7116 
  15   2.0000      -0.418538       -11.3890 
  16   2.0000      -0.389059       -10.5868 
  17   2.0000      -0.352424        -9.5899 
  18   0.0000       0.100416         2.7325 
  19   0.0000       0.139651         3.8001 
  20   0.0000       0.149578         4.0702 
  21   0.0000       0.178222         4.8497 
  22   0.0000       0.195509         5.3201 
  23   0.0000       0.201629         5.4866 
  24   0.0000       0.213337         5.8052 
  25   0.0000       0.216065         5.8794 
  26   0.0000       0.225641         6.1400 
  27   0.0000       0.275376         7.4934 
  28   0.0000       0.302288         8.2257 
  29   0.0000       0.308957         8.4071 
  30   0.0000       0.321335         8.7440 
  31   0.0000       0.368883        10.0378 
  32   0.0000       0.410087        11.1590 
  33   0.0000       0.438466        11.9313 
  34   0.0000       0.453627        12.3438 
  35   0.0000       0.469796        12.7838 
  36   0.0000       0.482042        13.1170 
  37   0.0000       0.505336        13.7509 
  38   0.0000       0.520778        14.1711 
  39   0.0000       0.536527        14.5996 
  40   0.0000       0.542737        14.7686 
  41   0.0000       0.556975        15.1560 
  42   0.0000       0.582754        15.8575 
  43   0.0000       0.586130        15.9494 
  44   0.0000       0.598686        16.2911 
  45   0.0000       0.609180        16.5766 
  46   0.0000       0.648729        17.6528 
  47   0.0000       0.662571        18.0295 
  48   0.0000       0.680958        18.5298 
  49   0.0000       0.755555        20.5597 
  50   0.0000       0.799588        21.7579 
  51   0.0000       0.827797        22.5255 
  52   0.0000       0.829933        22.5836 
  53   0.0000       0.864225        23.5168 
  54   0.0000       0.899541        24.4778 
  55   0.0000       0.924348        25.1528 
  56   0.0000       0.980529        26.6815 
  57   0.0000       1.011154        27.5149 
  58   0.0000       1.025190        27.8968 
  59   0.0000       1.062525        28.9128 
  60   0.0000       1.123261        30.5655 
  61   0.0000       1.149908        31.2906 
  62   0.0000       1.379182        37.5295 
  63   0.0000       1.440918        39.2094 
  64   0.0000       1.499855        40.8131 
  65   0.0000       1.537571        41.8394 
  66   0.0000       1.557497        42.3816 
  67   0.0000       1.567128        42.6437 
  68   0.0000       1.588729        43.2315 
  69   0.0000       1.610927        43.8356 
  70   0.0000       1.631981        44.4085 
  71   0.0000       1.637450        44.5573 
  72   0.0000       1.647075        44.8192 
  73   0.0000       1.663027        45.2533 
  74   0.0000       1.676348        45.6157 
  75   0.0000       1.684282        45.8316 
  76   0.0000       1.714168        46.6449 
  77   0.0000       1.741924        47.4002 
  78   0.0000       1.780783        48.4576 
  79   0.0000       1.902440        51.7680 
  80   0.0000       1.965349        53.4799 
  81   0.0000       1.973501        53.7017 
  82   0.0000       2.011792        54.7436 
  83   0.0000       2.032608        55.3101 
  84   0.0000       2.049191        55.7613 
  85   0.0000       2.071978        56.3814 
  86   0.0000       2.084354        56.7182 
  87   0.0000       2.123883        57.7938 
  88   0.0000       2.144058        58.3428 
  89   0.0000       2.173403        59.1413 
  90   0.0000       2.233551        60.7780 
  91   0.0000       2.306053        62.7509 
  92   0.0000       2.324923        63.2644 
  93   0.0000       2.338796        63.6419 
  94   0.0000       2.359575        64.2073 
  95   0.0000       2.390076        65.0373 
  96   0.0000       2.399851        65.3033 
  97   0.0000       2.428552        66.0843 
  98   0.0000       2.443748        66.4978 
  99   0.0000       2.484762        67.6138 
 100   0.0000       2.535136        68.9846 
 101   0.0000       2.560986        69.6880 
 102   0.0000       2.593829        70.5817 
 103   0.0000       2.614508        71.1444 
 104   0.0000       2.653484        72.2050 
 105   0.0000       2.675600        72.8068 
 106   0.0000       2.689859        73.1948 
 107   0.0000       2.743019        74.6413 
 108   0.0000       2.831043        77.0366 
 109   0.0000       2.857641        77.7604 
 110   0.0000       2.907327        79.1124 
 111   0.0000       2.911484        79.2255 
 112   0.0000       2.940217        80.0074 
 113   0.0000       2.950432        80.2853 
 114   0.0000       2.982119        81.1476 
 115   0.0000       3.027559        82.3841 
 116   0.0000       3.109709        84.6195 
 117   0.0000       3.137032        85.3630 
 118   0.0000       3.188312        86.7584 
 119   0.0000       3.218571        87.5818 
 120   0.0000       3.240335        88.1740 
 121   0.0000       3.302047        89.8533 
 122   0.0000       3.328912        90.5843 
 123   0.0000       3.425600        93.2153 
 124   0.0000       3.469390        94.4069 
 125   0.0000       3.481937        94.7483 
 126   0.0000       3.516378        95.6855 
 127   0.0000       3.557804        96.8128 
 128   0.0000       3.633952        98.8849 
 129   0.0000       3.639418        99.0336 
 130   0.0000       3.657841        99.5349 
 131   0.0000       3.666592        99.7731 
 132   0.0000       3.683981       100.2462 
 133   0.0000       3.703481       100.7769 
 134   0.0000       3.959321       107.7386 
 135   0.0000       4.034542       109.7855 
 136   0.0000       4.119266       112.0909 
 137   0.0000       4.234661       115.2310 
 138   0.0000       4.274239       116.3080 
 139   0.0000       4.316331       117.4533 
 140   0.0000       4.375494       119.0632 
 141   0.0000       4.504508       122.5739 
 142   0.0000       4.545738       123.6958 
 143   0.0000       4.595233       125.0426 
 144   0.0000       5.349905       145.5783 
 145   0.0000       5.373782       146.2280 
 146   0.0000       5.430674       147.7762 
 147   0.0000       5.453396       148.3945 
 148   0.0000       5.551784       151.0717 
 149   0.0000       5.600574       152.3994 
 150   0.0000       5.849455       159.1718 
 151   0.0000       5.857123       159.3804 
 152   0.0000       5.917427       161.0214 
 153   0.0000       5.954333       162.0256 
 154   0.0000       6.016258       163.7107 
 155   0.0000       6.060574       164.9166 
 156   0.0000       6.306158       171.5993 
 157   0.0000       6.400719       174.1724 
 158   0.0000       6.544198       178.0767 
 159   0.0000       6.560263       178.5138 
 160   0.0000       6.719320       182.8420 
 161   0.0000       6.785864       184.6527 
 162   0.0000       6.824324       185.6993 
 163   0.0000       6.843843       186.2304 
 164   0.0000       7.038345       191.5231 
 165   0.0000       7.089642       192.9190 
 166   0.0000       7.199977       195.9213 
 167   0.0000       7.277430       198.0289 
 168   0.0000      22.468102       611.3881 
 169   0.0000      22.503139       612.3415 
 170   0.0000      43.696077      1189.0307 
 171   0.0000      43.745800      1190.3837 

                    ********************************
                    * MULLIKEN POPULATION ANALYSIS *
                    ********************************

-----------------------
MULLIKEN ATOMIC CHARGES
-----------------------
   0 C :   -0.166289
   1 O :   -0.487898
   2 H :    0.342779
   3 H :    0.099039
   4 H :    0.117182
   5 H :    0.112015
   6 C :   -0.151353
   7 O :   -0.483245
   8 H :    0.316169
   9 H :    0.114695
  10 H :    0.085066
  11 H :    0.101841
Sum of atomic charges:    0.0000000

--------------------------------
MULLIKEN REDUCED ORBITAL CHARGES
--------------------------------
  0 C s       :     3.213661  s :     3.213661
      pz      :     0.896461  p :     2.836664
      px      :     1.090219
      py      :     0.849984
      dz2     :     0.037201  d :     0.106780
      dxz     :     0.010651
      dyz     :     0.009306
      dx2y2   :     0.026862
      dxy     :     0.022760
      f0      :     0.001157  f :     0.009185
      f+1     :     0.000340
      f-1     :     0.002694
      f+2     :     0.001442
      f-2     :     0.001472
      f+3     :     0.001130
      f-3     :     0.000950
  1 O s       :     3.790879  s :     3.790879
      pz      :     1.669893  p :     4.662837
      px      :     1.440067
      py      :     1.552878
      dz2     :     0.007244  d :     0.032347
      dxz     :     0.003359
      dyz     :     0.007505
      dx2y2   :     0.009113
      dxy     :     0.005126
      f0      :     0.000204  f :     0.001835
      f+1     :     0.000159
      f-1     :     0.000352
      f+2     :     0.000263
      f-2     :     0.000260
      f+3     :     0.000224
      f-3     :     0.000372
  2 H s       :     0.614332  s :     0.614332
      pz      :     0.012173  p :     0.042889
      px      :     0.017526
      py      :     0.013190
  3 H s       :     0.882167  s :     0.882167
      pz      :     0.011517  p :     0.018794
      px      :     0.004322
      py      :     0.002954
  4 H s       :     0.863406  s :     0.863406
      pz      :     0.003682  p :     0.019412
      px      :     0.011853
      py      :     0.003877
  5 H s       :     0.868566  s :     0.868566
      pz      :     0.003159  p :     0.019419
      px      :     0.005500
      py      :     0.010760
  6 C s       :     3.220920  s :     3.220920
      pz      :     0.892810  p :     2.824366
      px      :     1.049359
      py      :     0.882197
      dz2     :     0.025151  d :     0.098284
      dxz     :     0.029113
      dyz     :     0.012966
      dx2y2   :     0.020630
      dxy     :     0.010424
      f0      :     0.001089  f :     0.007783
      f+1     :     0.000661
      f-1     :     0.001206
      f+2     :     0.001962
      f-2     :     0.001561
      f+3     :     0.000599
      f-3     :     0.000704
  7 O s       :     3.786232  s :     3.786232
      pz      :     1.253728  p :     4.665948
      px      :     1.801979
      py      :     1.610241
      dz2     :     0.005002  d :     0.029429
      dxz     :     0.005485
      dyz     :     0.009919
      dx2y2   :     0.004483
      dxy     :     0.004540
      f0      :     0.000229  f :     0.001636
      f+1     :     0.000283
      f-1     :     0.000445
      f+2     :     0.000195
      f-2     :     0.000262
      f+3     :     0.000116
      f-3     :     0.000105
  8 H s       :     0.630928  s :     0.630928
      pz      :     0.023349  p :     0.052904
      px      :     0.016147
      py      :     0.013408
  9 H s       :     0.864951  s :     0.864951
      pz      :     0.009407  p :     0.020354
      px      :     0.007198
      py      :     0.003748
 10 H s       :     0.896253  s :     0.896253
      pz      :     0.004383  p :     0.018681
      px      :     0.011159
      py      :     0.003138
 11 H s       :     0.878149  s :     0.878149
      pz      :     0.004375  p :     0.020011
      px      :     0.004478
      py      :     0.011158


                     *******************************
                     * LOEWDIN POPULATION ANALYSIS *
                     *******************************

----------------------
LOEWDIN ATOMIC CHARGES
----------------------
   0 C :   -0.476522
   1 O :   -0.014245
   2 H :    0.202723
   3 H :    0.102972
   4 H :    0.116409
   5 H :    0.099951
   6 C :   -0.388062
   7 O :   -0.075394
   8 H :    0.147057
   9 H :    0.102163
  10 H :    0.095749
  11 H :    0.087200

-------------------------------
LOEWDIN REDUCED ORBITAL CHARGES
-------------------------------
  0 C s       :     2.856856  s :     2.856856
      pz      :     0.995530  p :     3.067300
      px      :     1.105078
      py      :     0.966692
      dz2     :     0.162683  d :     0.481619
      dxz     :     0.033301
      dyz     :     0.089904
      dx2y2   :     0.111269
      dxy     :     0.084462
      f0      :     0.006577  f :     0.070747
      f+1     :     0.005040
      f-1     :     0.019330
      f+2     :     0.012880
      f-2     :     0.012071
      f+3     :     0.007805
      f-3     :     0.007045
  1 O s       :     3.325108  s :     3.325108
      pz      :     1.641663  p :     4.597428
      px      :     1.411595
      py      :     1.544170
      dz2     :     0.020639  d :     0.085973
      dxz     :     0.008193
      dyz     :     0.018032
      dx2y2   :     0.020684
      dxy     :     0.018425
      f0      :     0.000621  f :     0.005736
      f+1     :     0.000441
      f-1     :     0.001185
      f+2     :     0.000965
      f-2     :     0.000993
      f+3     :     0.000742
      f-3     :     0.000790
  2 H s       :     0.654365  s :     0.654365
      pz      :     0.035006  p :     0.142912
      px      :     0.072909
      py      :     0.034996
  3 H s       :     0.842685  s :     0.842685
      pz      :     0.032251  p :     0.054343
      px      :     0.012654
      py      :     0.009438
  4 H s       :     0.829274  s :     0.829274
      pz      :     0.010100  p :     0.054317
      px      :     0.033791
      py      :     0.010426
  5 H s       :     0.842447  s :     0.842447
      pz      :     0.010187  p :     0.057603
      px      :     0.016915
      py      :     0.030500
  6 C s       :     2.858230  s :     2.858230
      pz      :     0.966377  p :     3.053086
      px      :     1.097592
      py      :     0.989116
      dz2     :     0.081708  d :     0.418611
      dxz     :     0.109033
      dyz     :     0.082877
      dx2y2   :     0.108951
      dxy     :     0.036043
      f0      :     0.009879  f :     0.058134
      f+1     :     0.005625
      f-1     :     0.010254
      f+2     :     0.009769
      f-2     :     0.012605
      f+3     :     0.005415
      f-3     :     0.004587
  7 O s       :     3.356609  s :     3.356609
      pz      :     1.290405  p :     4.643909
      px      :     1.732502
      py      :     1.621002
      dz2     :     0.019218  d :     0.070230
      dxz     :     0.013721
      dyz     :     0.021336
      dx2y2   :     0.008393
      dxy     :     0.007562
      f0      :     0.000504  f :     0.004646
      f+1     :     0.000612
      f-1     :     0.001383
      f+2     :     0.000664
      f-2     :     0.000978
      f+3     :     0.000218
      f-3     :     0.000287
  8 H s       :     0.679396  s :     0.679396
      pz      :     0.074719  p :     0.173547
      px      :     0.052490
      py      :     0.046337
  9 H s       :     0.836074  s :     0.836074
      pz      :     0.026606  p :     0.061763
      px      :     0.022588
      py      :     0.012569
 10 H s       :     0.849373  s :     0.849373
      pz      :     0.012683  p :     0.054878
      px      :     0.032518
      py      :     0.009677
 11 H s       :     0.847074  s :     0.847074
      pz      :     0.015165  p :     0.065726
      px      :     0.015636
      py      :     0.034925


                      *****************************
                      * MAYER POPULATION ANALYSIS *
                      *****************************

  NA   - Mulliken gross atomic population
  ZA   - Total nuclear charge
  QA   - Mulliken gross atomic charge
  VA   - Mayer's total valence
  BVA  - Mayer's bonded valence
  FA   - Mayer's free valence

  ATOM       NA         ZA         QA         VA         BVA        FA
  0 C      6.1663     6.0000    -0.1663     3.9008     3.9008     0.0000
  1 O      8.4879     8.0000    -0.4879     1.8924     1.8924     0.0000
  2 H      0.6572     1.0000     0.3428     0.8902     0.8902     0.0000
  3 H      0.9010     1.0000     0.0990     0.9640     0.9640     0.0000
  4 H      0.8828     1.0000     0.1172     0.9567     0.9567    -0.0000
  5 H      0.8880     1.0000     0.1120     0.9573     0.9573     0.0000
  6 C      6.1514     6.0000    -0.1514     3.9544     3.9544    -0.0000
  7 O      8.4832     8.0000    -0.4832     1.8783     1.8783     0.0000
  8 H      0.6838     1.0000     0.3162     0.9271     0.9271     0.0000
  9 H      0.8853     1.0000     0.1147     0.9569     0.9569    -0.0000
 10 H      0.9149     1.0000     0.0851     0.9572     0.9572    -0.0000
 11 H      0.8982     1.0000     0.1018     0.9628     0.9628     0.0000

  Mayer bond orders larger than 0.1
B(  0-C ,  1-O ) :   0.9772 B(  0-C ,  3-H ) :   0.9748 B(  0-C ,  4-H ) :   0.9707 
B(  0-C ,  5-H ) :   0.9712 B(  1-O ,  2-H ) :   0.8708 B(  6-C ,  7-O ) :   1.0118 
B(  6-C ,  9-H ) :   0.9767 B(  6-C , 10-H ) :   0.9757 B(  6-C , 11-H ) :   0.9822 
B(  7-O ,  8-H ) :   0.8793 

-------
TIMINGS
-------

Total SCF time: 0 days 0 hours 0 min 10 sec 

Total time                  ....      10.614 sec
Sum of individual times     ....      10.332 sec  ( 97.3%)

Fock matrix formation       ....       9.837 sec  ( 92.7%)
  XC integration            ....       0.817 sec  (  8.3% of F)
    Basis function eval.    ....       0.068 sec  (  8.3% of XC)
    Density eval.           ....       0.062 sec  (  7.6% of XC)
    XC-Functional eval.     ....       0.094 sec  ( 11.5% of XC)
    XC-Potential eval.      ....       0.078 sec  (  9.5% of XC)
Diagonalization             ....       0.046 sec  (  0.4%)
Density matrix formation    ....       0.005 sec  (  0.0%)
Population analysis         ....       0.018 sec  (  0.2%)
Initial guess               ....       0.098 sec  (  0.9%)
Orbital Transformation      ....       0.000 sec  (  0.0%)
Orbital Orthonormalization  ....       0.000 sec  (  0.0%)
DIIS solution               ....       0.022 sec  (  0.2%)
SOSCF solution              ....       0.027 sec  (  0.3%)
Grid generation             ....       0.278 sec  (  2.6%)


-------------------------------------------------------------------------------
                          DFT DISPERSION CORRECTION                            
                                                                               
                              DFTD3 V3.1  Rev 1                                
                              USING zero damping                               
-------------------------------------------------------------------------------
The omegaB97X-D3 functional is recognized. Fit by Chai et al.
Active option DFTDOPT                   ...         3   

molecular C6(AA) [au] = 835.062736 


            DFT-D V3
 parameters
 s6 scaling factor         :     1.0000 
 rs6 scaling factor        :     1.2810 
 s8 scaling factor         :     1.0000 
 rs8 scaling factor        :     1.0940 
 Damping factor alpha6     :    14.0000 
 Damping factor alpha8     :    16.0000 
 ad hoc parameters k1-k3   :    16.0000     1.3333    -4.0000 

 Edisp/kcal,au: -1.009398764011  -0.001608579150 
 E6   /kcal   :  -0.450737900 
 E8   /kcal   :  -0.558660864 
 % E8         :  55.345903340 

-------------------------   ----------------
Dispersion correction           -0.001608579
-------------------------   ----------------


-------------------------   --------------------
FINAL SINGLE POINT ENERGY      -231.469536545876
-------------------------   --------------------


                            ***************************************
                            *     ORCA property calculations      *
                            ***************************************

                                    ---------------------
                                    Active property flags
                                    ---------------------
   (+) Dipole Moment


------------------------------------------------------------------------------
                       ORCA ELECTRIC PROPERTIES CALCULATION
------------------------------------------------------------------------------

Dipole Moment Calculation                       ... on
Quadrupole Moment Calculation                   ... off
Polarizability Calculation                      ... off
GBWName                                         ... 8-107_DFT_AB.gbw
Electron density file                           ... 8-107_DFT_AB.scfp.tmp
The origin for moment calculation is the CENTER OF MASS  = (12.298166, -9.663873  3.999643)

-------------
DIPOLE MOMENT
-------------
                                X             Y             Z
Electronic contribution:     -0.94996      -0.24944       0.05365
Nuclear contribution   :      0.75109      -0.20744       0.65859
                        -----------------------------------------
Total Dipole Moment    :     -0.19887      -0.45688       0.71224
                        -----------------------------------------
Magnitude (a.u.)       :      0.86924
Magnitude (Debye)      :      2.20942



--------------------
Rotational spectrum 
--------------------
 
Rotational constants in cm-1:     0.743898     0.068542     0.065424 
Rotational constants in MHz : 22301.504735  2054.848818  1961.358419 

 Dipole components along the rotational axes: 
x,y,z [a.u.] :     0.663996    -0.540174     0.151300 
x,y,z [Debye]:     1.687743    -1.373014     0.384574 

 
------------------------------------------------------------------------------
                      ORCA CHELPG CHARGES GENERATION
------------------------------------------------------------------------------

GBW file                           ... 8-107_DFT_AB.gbw

Reading the GBW file               ... done

Grid spacing                       ...     0.300000
Point Cut-Off                      ...     2.800000
Van-der-Waals Radii                ...        COSMO
Total charge                       ...            0


Number of points X direction       ...           26
Number of points Y direction       ...           28
Number of points Z direction       ...           40
Maximum number of possible points  ...        29120
Final number of points             ...        10096


CHELPG Charges            
--------------------------------
  0   C   :       0.006769
  1   O   :      -0.531843
  2   H   :       0.401835
  3   H   :       0.030629
  4   H   :       0.083163
  5   H   :       0.028201
  6   C   :      -0.045734
  7   O   :      -0.595567
  8   H   :       0.431315
  9   H   :       0.108040
 10   H   :       0.046309
 11   H   :       0.036883
--------------------------------
Total charge:     0.000000
--------------------------------

CHELPG charges calculated...

Timings for individual parts in CHELPG calculation:
Grid generation                 ...        0.001 sec (=   0.000 min)
Potential calculation           ...        2.157 sec (=   0.036 min)
Fit to the potential            ...        0.003 sec (=   0.000 min)
------------------------------------------------------------------------------


Timings for individual modules:

Sum of individual times         ...       17.217 sec (=   0.287 min)
GTO integral calculation        ...        3.477 sec (=   0.058 min)  20.2 %
SCF iterations                  ...       11.544 sec (=   0.192 min)  67.1 %
CHELPG charge generation        ...        2.196 sec (=   0.037 min)  12.8 %


                 $$$$$$$$$$$$$$$$  JOB NUMBER  2 $$$$$$$$$$$$$$


                       ****************************
                       * Single Point Calculation *
                       ****************************

---------------------------------
CARTESIAN COORDINATES (ANGSTROEM)
---------------------------------
  C      6.607193   -4.525845    4.377470
  O      6.373419   -5.532670    3.540175
  H      5.453092   -5.878373    3.648403
  H      6.456532   -4.812050    5.465561
  H      7.700353   -4.239288    4.432152
  H      6.134564   -3.540531    4.143520
  C      6.699430   -5.657267   -0.260360
  O      6.373375   -4.714772    0.735711
  H      6.683855   -5.044267    1.572619
  H      6.083675   -5.429119   -1.111410
  H      7.752837   -5.548398   -0.640329
  H      6.603195   -6.639985    0.122955

----------------------------
CARTESIAN COORDINATES (A.U.)
----------------------------
  NO LB      ZA    FRAG     MASS         X           Y           Z
   0 C     6.0000    0    12.011   12.485785   -8.552608    8.272219
   1 O     8.0000    0    15.999   12.044016  -10.455231    6.689961
   2 H     1.0000    0     1.008   10.304850  -11.108515    6.894482
   3 H     1.0000    0     1.008   12.201077   -9.093457   10.328413
   4 H     1.0000    0     1.008   14.551558   -8.011093    8.375553
   5 H     1.0000    0     1.008   11.592646   -6.690634    7.830118
   6 C     0.0000    0     0.000   12.660088  -10.690685   -0.492009
   7 O     0.0000    0     0.000   12.043933   -8.909628    1.390292
   8 H     0.0000    0     0.000   12.630655   -9.532283    2.971819
   9 H     0.0000    0     0.000   11.496480  -10.259548   -2.100261
  10 H     0.0000    0     0.000   14.650739  -10.484953   -1.210046
  11 H     0.0000    0     0.000   12.478230  -12.547753    0.232351

--------------------------------
INTERNAL COORDINATES (ANGSTROEM)
--------------------------------
 C      0   0   0     0.000000000000     0.00000000     0.00000000
 O      1   0   0     1.330191633084     0.00000000     0.00000000
 H      2   1   0     0.989052906129   111.05190981     0.00000000
 H      1   2   3     1.135144952518   112.90463236    57.93968021
 H      1   2   3     1.131416731789   113.07443752   168.54928737
 H      1   2   3     1.117566307982   117.46699039   285.99201408
 C      2   1   3     3.816526414261   129.53244595   124.30656462
 O      7   2   1     1.409526915348    41.81523277   327.95628061
 H      8   7   2     0.951514469616   108.33225561    17.89521282
 H      7   2   1     1.074938059810   137.09993846   273.04599568
 H      7   2   1     1.125120085933   114.40075760    65.77830890
 H      7   2   1     1.059210192537    70.25448077   166.36566743

---------------------------
INTERNAL COORDINATES (A.U.)
---------------------------
 C      0   0   0     0.000000000000     0.00000000     0.00000000
 O      1   0   0     2.513697892162     0.00000000     0.00000000
 H      2   1   0     1.869039124543   111.05190981     0.00000000
 H      1   2   3     2.145113082562   112.90463236    57.93968021
 H      1   2   3     2.138067766418   113.07443752   168.54928737
 H      1   2   3     2.111894258584   117.46699039   285.99201408
 C      2   1   3     7.212189705831   129.53244595   124.30656462
 O      7   2   1     2.663619848399    41.81523277   327.95628061
 H      8   7   2     1.798101760038   108.33225561    17.89521282
 H      7   2   1     2.031338543970   137.09993846   273.04599568
 H      7   2   1     2.126168830188   114.40075760    65.77830890
 H      7   2   1     2.001617182153    70.25448077   166.36566743

---------------------
BASIS SET INFORMATION
---------------------
There are 3 groups of distinct atoms

 Group   1 Type C   : 11s6p2d1f contracted to 5s3p2d1f pattern {62111/411/11/1}
 Group   2 Type O   : 11s6p2d1f contracted to 5s3p2d1f pattern {62111/411/11/1}
 Group   3 Type H   : 5s1p contracted to 3s1p pattern {311/1}

Atom   0C    basis set group =>   1
Atom   1O    basis set group =>   2
Atom   2H    basis set group =>   3
Atom   3H    basis set group =>   3
Atom   4H    basis set group =>   3
Atom   5H    basis set group =>   3
Atom   6C    basis set group =>   1
Atom   7O    basis set group =>   2
Atom   8H    basis set group =>   3
Atom   9H    basis set group =>   3
Atom  10H    basis set group =>   3
Atom  11H    basis set group =>   3


           ************************************************************
           *        Program running with 8 parallel MPI-processes     *
           *              working on a common directory               *
           ************************************************************
------------------------------------------------------------------------------
                           ORCA GTO INTEGRAL CALCULATION
------------------------------------------------------------------------------

                         BASIS SET STATISTICS AND STARTUP INFO

 # of primitive gaussian shells          ...  128
 # of primitive gaussian functions       ...  248
 # of contracted shells                  ...   76
 # of contracted basis functions         ...  172
 Highest angular momentum                ...    3
 Maximum contraction depth               ...    6
 Integral package used                   ... LIBINT
 Integral threshhold            Thresh   ...  2.500e-11
 Primitive cut-off              TCut     ...  2.500e-12


------------------------------ INTEGRAL EVALUATION ----------------------------


 * One electron integrals 
 Pre-screening matrix                    ... done
 Shell pair data                         ... done (   0.001 sec)



           ************************************************************
           *        Program running with 8 parallel MPI-processes     *
           *              working on a common directory               *
           ************************************************************
-------------------------------------------------------------------------------
                                 ORCA SCF
-------------------------------------------------------------------------------

------------
SCF SETTINGS
------------
Hamiltonian:
 Density Functional     Method          .... DFT(GTOs)
 Exchange Functional    Exchange        .... WB97X-D3
 Correlation Functional Correlation     .... WB97X-D3
 Gradients option       PostSCFGGA      .... off
 Hybrid DFT is turned on
   Fraction HF Exchange ScalHFX         ....  0.195728
   Scaling of DF-GGA-X  ScalDFX         ....  0.000000
   Scaling of DF-GGA-C  ScalDFC         ....  1.000000
   Scaling of DF-LDA-C  ScalLDAC        ....  1.000000
   Perturbative correction              ....  0.000000
   Density functional embedding theory  .... OFF
 Long-range corrected/Screened/Range-Separated Hybrid DFT is turned on
   Amount of maximum screened exact exchange              ....  0.804272
   Range separation parameter mu (erf(mu*r12)/r12)        ....  0.250000


General Settings:
 Integral files         IntName         .... 8-107_DFT_A
 Hartree-Fock type      HFTyp           .... RHF
 Total Charge           Charge          ....    0
 Multiplicity           Mult            ....    1
 Number of Electrons    NEL             ....   18
 Basis Dimension        Dim             ....  172
 Nuclear Repulsion      ENuc            ....     41.1287207947 Eh

Convergence Acceleration:
 DIIS                   CNVDIIS         .... on
   Start iteration      DIISMaxIt       ....    12
   Startup error        DIISStart       ....  0.200000
   # of expansion vecs  DIISMaxEq       ....     5
   Bias factor          DIISBfac        ....   1.050
   Max. coefficient     DIISMaxC        ....  10.000
 Newton-Raphson         CNVNR           .... off
 SOSCF                  CNVSOSCF        .... on
   Start iteration      SOSCFMaxIt      ....   150
   Startup grad/error   SOSCFStart      ....  0.003300
 Level Shifting         CNVShift        .... on
   Level shift para.    LevelShift      ....    0.2500
   Turn off err/grad.   ShiftErr        ....    0.0010
 Zerner damping         CNVZerner       .... off
 Static damping         CNVDamp         .... on
   Fraction old density DampFac         ....    0.7000
   Max. Damping (<1)    DampMax         ....    0.9800
   Min. Damping (>=0)   DampMin         ....    0.0000
   Turn off err/grad.   DampErr         ....    0.1000
 Fernandez-Rico         CNVRico         .... off

SCF Procedure:
 Maximum # iterations   MaxIter         ....  1000
 SCF integral mode      SCFMode         .... Direct
   Integral package                     .... LIBINT
 Reset frequency        DirectResetFreq ....    20
 Integral Threshold     Thresh          ....  2.500e-11 Eh
 Primitive CutOff       TCut            ....  2.500e-12 Eh

Convergence Tolerance:
 Convergence Check Mode ConvCheckMode   .... Total+1el-Energy
 Convergence forced     ConvForced      .... 0
 Energy Change          TolE            ....  1.000e-08 Eh
 1-El. energy change                    ....  1.000e-05 Eh
 Orbital Gradient       TolG            ....  1.000e-05
 Orbital Rotation angle TolX            ....  1.000e-05
 DIIS Error             TolErr          ....  5.000e-07


Diagonalization of the overlap matrix:
Smallest eigenvalue                        ... 1.499e-03
Time for diagonalization                   ...    0.004 sec
Threshold for overlap eigenvalues          ... 1.000e-08
Number of eigenvalues below threshold      ... 0
Time for construction of square roots      ...    0.006 sec
Total time needed                          ...    0.010 sec

-------------------
DFT GRID GENERATION
-------------------

General Integration Accuracy     IntAcc      ...  4.340
Radial Grid Type                 RadialGrid  ... Gauss-Chebyshev
Angular Grid (max. acc.)         AngularGrid ... Lebedev-110
Angular grid pruning method      GridPruning ... 3 (G Style)
Weight generation scheme         WeightScheme... Becke
Basis function cutoff            BFCut       ...    1.0000e-11
Integration weight cutoff        WCut        ...    1.0000e-14
Grids for H and He will be reduced by one unit

# of grid points (after initial pruning)     ...  13096 (   0.0 sec)
# of grid points (after weights+screening)   ...  12539 (   0.0 sec)
nearest neighbour list constructed           ...    0.0 sec
Grid point re-assignment to atoms done       ...    0.0 sec
Grid point division into batches done        ...    0.0 sec
Reduced shell lists constructed in    0.0 sec

Total number of grid points                  ...    12539
Total number of batches                      ...      201
Average number of points per batch           ...       62
Average number of grid points per atom       ...     1045
Average number of shells per batch           ...    56.44 (74.27%)
Average number of basis functions per batch  ...   126.96 (73.82%)
Average number of large shells per batch     ...    46.48 (82.35%)
Average number of large basis fcns per batch ...   103.30 (81.36%)
Maximum spatial batch extension              ...   9.90, 16.04, 10.00 au
Average spatial batch extension              ...   0.27,  0.29,  0.26 au

Time for grid setup =    0.043 sec

------------------------------
INITIAL GUESS: MODEL POTENTIAL
------------------------------
Loading Hartree-Fock densities                     ... done
Calculating cut-offs                               ... done
Setting up the integral package                    ... done
Initializing the effective Hamiltonian             ... done
Starting the Coulomb interaction                   ... done (   0.0 sec)
Reading the grid                                   ... done
Mapping shells                                     ... done
Starting the XC term evaluation                    ... done (   0.0 sec)
  promolecular density results
     # of electrons  =     17.993185241
     EX              =    -14.435052696
     EC              =     -0.576466755
     EX+EC           =    -15.011519451
Transforming the Hamiltonian                       ... done (   0.0 sec)
Diagonalizing the Hamiltonian                      ... done (   0.0 sec)
Back transforming the eigenvectors                 ... done (   0.0 sec)
Now organizing SCF variables                       ... done
                      ------------------
                      INITIAL GUESS DONE (   0.2 sec)
                      ------------------
--------------
SCF ITERATIONS
--------------
ITER       Energy         Delta-E        Max-DP      RMS-DP      [F,P]     Damp
               ***  Starting incremental Fock matrix formation  ***
  0   -115.6389360208   0.000000000000 0.03741363  0.00075551  0.2561227 0.7000
  1   -115.6771400487  -0.038204027890 0.02288022  0.00053496  0.1287064 0.7000
                               ***Turning on DIIS***
  2   -115.6944862204  -0.017346171650 0.03423724  0.00096159  0.0513086 0.0000
  3   -115.7223723390  -0.027886118573 0.01640063  0.00034850  0.0603807 0.0000
  4   -115.7272212348  -0.004848895848 0.00384041  0.00006690  0.0061392 0.0000
                      *** Initiating the SOSCF procedure ***
                           *** Shutting down DIIS ***
                      *** Re-Reading the Fockian *** 
                      *** Removing any level shift *** 
ITER      Energy       Delta-E        Grad      Rot      Max-DP    RMS-DP
  5   -115.72731322  -0.0000919808  0.000406  0.000406  0.000757  0.000023
               *** Restarting incremental Fock matrix formation ***
  6   -115.72732139  -0.0000081760  0.000100  0.000134  0.000420  0.000013
  7   -115.72732210  -0.0000007119  0.000039  0.000082  0.000204  0.000006
  8   -115.72732216  -0.0000000520  0.000024  0.000020  0.000040  0.000001
  9   -115.72732218  -0.0000000215  0.000006  0.000006  0.000011  0.000000
 10   -115.72732218  -0.0000000005  0.000003  0.000002  0.000005  0.000000
                 **** Energy Check signals convergence ****
              ***Rediagonalizing the Fockian in SOSCF/NRSCF***

               *****************************************************
               *                     SUCCESS                       *
               *           SCF CONVERGED AFTER  11 CYCLES          *
               *****************************************************

Setting up the final grid:

General Integration Accuracy     IntAcc      ...  4.670
Radial Grid Type                 RadialGrid  ... Gauss-Chebyshev
Angular Grid (max. acc.)         AngularGrid ... Lebedev-302
Angular grid pruning method      GridPruning ... 3 (G Style)
Weight generation scheme         WeightScheme... Becke
Basis function cutoff            BFCut       ...    1.0000e-11
Integration weight cutoff        WCut        ...    1.0000e-14
Grids for H and He will be reduced by one unit

# of grid points (after initial pruning)     ...  52000 (   0.0 sec)
# of grid points (after weights+screening)   ...  49233 (   0.0 sec)
nearest neighbour list constructed           ...    0.0 sec
Grid point re-assignment to atoms done       ...    0.0 sec
Grid point division into batches done        ...    0.2 sec
Reduced shell lists constructed in    0.2 sec

Total number of grid points                  ...    49233
Total number of batches                      ...      775
Average number of points per batch           ...       63
Average number of grid points per atom       ...     4103
Average number of shells per batch           ...    55.27 (72.72%)
Average number of basis functions per batch  ...   122.96 (71.49%)
Average number of large shells per batch     ...    45.44 (82.22%)
Average number of large basis fcns per batch ...   100.44 (81.68%)
Maximum spatial batch extension              ...   9.72, 12.86,  7.08 au
Average spatial batch extension              ...   0.16,  0.16,  0.15 au

Final grid set up in    0.2 sec
Final integration                            ... done (   0.1 sec)
Change in XC energy                          ...    -0.000001928
Integrated number of electrons               ...    17.999993913
Previous integrated no of electrons          ...    17.999141283

----------------
TOTAL SCF ENERGY
----------------

Total Energy       :         -115.72732411 Eh           -3149.10059 eV

Components:
Nuclear Repulsion  :           41.12872079 Eh            1119.16939 eV
Electronic Energy  :         -156.85604490 Eh           -4268.26998 eV
One Electron Energy:         -238.58466589 Eh           -6492.21882 eV
Two Electron Energy:           81.72862099 Eh            2223.94884 eV

Virial components:
Potential Energy   :         -230.94459227 Eh           -6284.32184 eV
Kinetic Energy     :          115.21726816 Eh            3135.22126 eV
Virial Ratio       :            2.00442691


DFT components:
N(Alpha)           :        8.999996956487 electrons
N(Beta)            :        8.999996956487 electrons
N(Total)           :       17.999993912974 electrons
E(XC)              :      -10.646362565728 Eh       
DFET-embed. en.    :        0.000000000000 Eh       

---------------
SCF CONVERGENCE
---------------

  Last Energy change         ...   -4.3332e-10  Tolerance :   1.0000e-08
  Last MAX-Density change    ...    1.1561e-06  Tolerance :   1.0000e-07
  Last RMS-Density change    ...    3.6385e-08  Tolerance :   5.0000e-09
  Last Orbital Gradient      ...    4.8319e-07  Tolerance :   1.0000e-05
  Last Orbital Rotation      ...    1.1042e-06  Tolerance :   1.0000e-05

             **** THE GBW FILE WAS UPDATED (8-107_DFT_A.gbw) ****
             **** DENSITY FILE WAS UPDATED (8-107_DFT_A.scfp.tmp) ****
             **** ENERGY FILE WAS UPDATED (8-107_DFT_A.en.tmp) ****
----------------
ORBITAL ENERGIES
----------------

  NO   OCC          E(Eh)            E(eV) 
   0   2.0000     -19.238982      -523.5193 
   1   2.0000     -10.316363      -280.7225 
   2   2.0000      -1.162074       -31.6217 
   3   2.0000      -0.787507       -21.4291 
   4   2.0000      -0.623928       -16.9780 
   5   2.0000      -0.551299       -15.0016 
   6   2.0000      -0.537003       -14.6126 
   7   2.0000      -0.411008       -11.1841 
   8   2.0000      -0.373669       -10.1680 
   9   0.0000       0.096811         2.6344 
  10   0.0000       0.119690         3.2569 
  11   0.0000       0.145871         3.9694 
  12   0.0000       0.191133         5.2010 
  13   0.0000       0.198759         5.4085 
  14   0.0000       0.206588         5.6215 
  15   0.0000       0.210046         5.7156 
  16   0.0000       0.218603         5.9485 
  17   0.0000       0.238437         6.4882 
  18   0.0000       0.306681         8.3452 
  19   0.0000       0.311805         8.4846 
  20   0.0000       0.331012         9.0073 
  21   0.0000       0.343230         9.3398 
  22   0.0000       0.344905         9.3853 
  23   0.0000       0.411953        11.2098 
  24   0.0000       0.437964        11.9176 
  25   0.0000       0.464830        12.6487 
  26   0.0000       0.487515        13.2660 
  27   0.0000       0.496526        13.5112 
  28   0.0000       0.503309        13.6957 
  29   0.0000       0.535927        14.5833 
  30   0.0000       0.559260        15.2183 
  31   0.0000       0.568723        15.4757 
  32   0.0000       0.594260        16.1706 
  33   0.0000       0.612015        16.6538 
  34   0.0000       0.657539        17.8925 
  35   0.0000       0.675486        18.3809 
  36   0.0000       0.724054        19.7025 
  37   0.0000       0.734327        19.9821 
  38   0.0000       0.778015        21.1709 
  39   0.0000       0.805489        21.9185 
  40   0.0000       0.834444        22.7064 
  41   0.0000       0.844943        22.9921 
  42   0.0000       0.894234        24.3334 
  43   0.0000       0.951772        25.8990 
  44   0.0000       1.015632        27.6368 
  45   0.0000       1.040807        28.3218 
  46   0.0000       1.063605        28.9422 
  47   0.0000       1.135618        30.9017 
  48   0.0000       1.158307        31.5191 
  49   0.0000       1.181526        32.1509 
  50   0.0000       1.202868        32.7317 
  51   0.0000       1.233938        33.5772 
  52   0.0000       1.244367        33.8609 
  53   0.0000       1.381918        37.6039 
  54   0.0000       1.406840        38.2821 
  55   0.0000       1.449474        39.4422 
  56   0.0000       1.499265        40.7971 
  57   0.0000       1.560233        42.4561 
  58   0.0000       1.569324        42.7035 
  59   0.0000       1.581170        43.0258 
  60   0.0000       1.608838        43.7787 
  61   0.0000       1.638812        44.5943 
  62   0.0000       1.657694        45.1081 
  63   0.0000       1.687180        45.9105 
  64   0.0000       1.704186        46.3733 
  65   0.0000       1.790764        48.7292 
  66   0.0000       1.829380        49.7800 
  67   0.0000       1.945551        52.9411 
  68   0.0000       1.965604        53.4868 
  69   0.0000       1.986845        54.0648 
  70   0.0000       2.031506        55.2801 
  71   0.0000       2.054110        55.8952 
  72   0.0000       2.093343        56.9628 
  73   0.0000       2.147879        58.4468 
  74   0.0000       2.161257        58.8108 
  75   0.0000       2.212181        60.1965 
  76   0.0000       2.222155        60.4679 
  77   0.0000       2.242459        61.0204 
  78   0.0000       2.265270        61.6411 
  79   0.0000       2.324102        63.2420 
  80   0.0000       2.346598        63.8542 
  81   0.0000       2.356324        64.1188 
  82   0.0000       2.417603        65.7863 
  83   0.0000       2.455786        66.8253 
  84   0.0000       2.536101        69.0108 
  85   0.0000       2.559944        69.6596 
  86   0.0000       2.565406        69.8082 
  87   0.0000       2.619049        71.2679 
  88   0.0000       2.686660        73.1077 
  89   0.0000       2.695087        73.3371 
  90   0.0000       2.698403        73.4273 
  91   0.0000       2.714268        73.8590 
  92   0.0000       2.850532        77.5669 
  93   0.0000       2.885542        78.5196 
  94   0.0000       2.912810        79.2616 
  95   0.0000       2.929458        79.7146 
  96   0.0000       2.987494        81.2938 
  97   0.0000       3.028019        82.3966 
  98   0.0000       3.050552        83.0097 
  99   0.0000       3.122577        84.9696 
 100   0.0000       3.146330        85.6160 
 101   0.0000       3.191796        86.8532 
 102   0.0000       3.212758        87.4236 
 103   0.0000       3.228321        87.8471 
 104   0.0000       3.274124        89.0935 
 105   0.0000       3.307266        89.9953 
 106   0.0000       3.315206        90.2114 
 107   0.0000       3.336049        90.7785 
 108   0.0000       3.430197        93.3404 
 109   0.0000       3.495215        95.1096 
 110   0.0000       3.532510        96.1245 
 111   0.0000       3.646554        99.2278 
 112   0.0000       3.651728        99.3686 
 113   0.0000       3.668155        99.8156 
 114   0.0000       3.677945       100.0820 
 115   0.0000       3.715358       101.1000 
 116   0.0000       3.791370       103.1684 
 117   0.0000       3.974547       108.1529 
 118   0.0000       4.125396       112.2577 
 119   0.0000       4.146456       112.8308 
 120   0.0000       4.200990       114.3147 
 121   0.0000       4.246153       115.5437 
 122   0.0000       4.276314       116.3644 
 123   0.0000       4.302358       117.0731 
 124   0.0000       4.365956       118.8037 
 125   0.0000       4.387937       119.4018 
 126   0.0000       4.535850       123.4267 
 127   0.0000       4.549133       123.7882 
 128   0.0000       4.562716       124.1578 
 129   0.0000       4.580008       124.6283 
 130   0.0000       4.612688       125.5176 
 131   0.0000       5.032525       136.9420 
 132   0.0000       5.080757       138.2544 
 133   0.0000       5.132271       139.6562 
 134   0.0000       5.367210       146.0492 
 135   0.0000       5.411180       147.2457 
 136   0.0000       5.453054       148.3851 
 137   0.0000       5.465644       148.7277 
 138   0.0000       5.573082       151.6513 
 139   0.0000       5.785440       157.4298 
 140   0.0000       5.936893       161.5511 
 141   0.0000       5.973381       162.5440 
 142   0.0000       6.049896       164.6260 
 143   0.0000       6.078985       165.4176 
 144   0.0000       6.116876       166.4487 
 145   0.0000       6.324508       172.0986 
 146   0.0000       6.548579       178.1959 
 147   0.0000       6.624790       180.2697 
 148   0.0000       6.730217       183.1385 
 149   0.0000       6.745249       183.5475 
 150   0.0000       6.840800       186.1476 
 151   0.0000       6.904503       187.8811 
 152   0.0000       7.060718       192.1319 
 153   0.0000       7.157758       194.7725 
 154   0.0000       7.219965       196.4652 
 155   0.0000       7.278323       198.0532 
 156   0.0000       7.472209       203.3292 
 157   0.0000       8.187910       222.8044 
 158   0.0000       8.925541       242.8763 
 159   0.0000       9.351141       254.4575 
 160   0.0000       9.576069       260.5781 
 161   0.0000       9.634719       262.1740 
 162   0.0000       9.808718       266.9088 
 163   0.0000       9.924171       270.0504 
[...]
  82   0.0000       2.413746        65.6814 
  83   0.0000       2.478311        67.4383 
  84   0.0000       2.481652        67.5292 
  85   0.0000       2.552581        69.4593 
  86   0.0000       2.584351        70.3238 
  87   0.0000       2.590715        70.4969 
  88   0.0000       2.628653        71.5293 
  89   0.0000       2.642947        71.9182 
  90   0.0000       2.683605        73.0246 
  91   0.0000       2.720056        74.0165 
  92   0.0000       2.833122        77.0932 
  93   0.0000       2.852020        77.6074 
  94   0.0000       2.885991        78.5318 
  95   0.0000       2.919043        79.4312 
  96   0.0000       2.942947        80.0817 
  97   0.0000       2.989196        81.3401 
  98   0.0000       3.035810        82.6086 
  99   0.0000       3.107605        84.5622 
 100   0.0000       3.118621        84.8620 
 101   0.0000       3.167007        86.1786 
 102   0.0000       3.201558        87.1188 
 103   0.0000       3.256866        88.6238 
 104   0.0000       3.313965        90.1776 
 105   0.0000       3.385134        92.1142 
 106   0.0000       3.411989        92.8449 
 107   0.0000       3.422968        93.1437 
 108   0.0000       3.459849        94.1473 
 109   0.0000       3.477296        94.6220 
 110   0.0000       3.542406        96.3938 
 111   0.0000       3.590450        97.7011 
 112   0.0000       3.620063        98.5069 
 113   0.0000       3.651121        99.3521 
 114   0.0000       3.669576        99.8542 
 115   0.0000       3.680268       100.1452 
 116   0.0000       3.704720       100.8106 
 117   0.0000       4.010997       109.1448 
 118   0.0000       4.045802       110.0919 
 119   0.0000       4.058604       110.4402 
 120   0.0000       4.256147       115.8157 
 121   0.0000       4.265618       116.0734 
 122   0.0000       4.297497       116.9408 
 123   0.0000       4.352119       118.4272 
 124   0.0000       4.405378       119.8764 
 125   0.0000       4.483050       121.9900 
 126   0.0000       4.501978       122.5050 
 127   0.0000       4.550828       123.8343 
 128   0.0000       4.582099       124.6852 
 129   0.0000       4.601107       125.2025 
 130   0.0000       4.630625       126.0057 
 131   0.0000       4.957446       134.8990 
 132   0.0000       5.022212       136.6613 
 133   0.0000       5.106398       138.9521 
 134   0.0000       5.239359       142.5702 
 135   0.0000       5.352630       145.6525 
 136   0.0000       5.431141       147.7889 
 137   0.0000       5.506847       149.8489 
 138   0.0000       5.579943       151.8380 
 139   0.0000       5.618319       152.8822 
 140   0.0000       5.756897       156.6531 
 141   0.0000       5.830827       158.6649 
 142   0.0000       5.838475       158.8730 
 143   0.0000       5.937928       161.5792 
 144   0.0000       6.000160       163.2726 
 145   0.0000       6.401742       174.2003 
 146   0.0000       6.529263       177.6703 
 147   0.0000       6.623588       180.2370 
 148   0.0000       6.721792       182.9093 
 149   0.0000       6.765832       184.1076 
 150   0.0000       6.812756       185.3845 
 151   0.0000       6.865523       186.8204 
 152   0.0000       7.069143       192.3612 
 153   0.0000       7.249186       197.2604 
 154   0.0000       7.258052       197.5016 
 155   0.0000       7.426636       202.0890 
 156   0.0000       7.607743       207.0172 
 157   0.0000       8.048428       219.0089 
 158   0.0000       8.956082       243.7074 
 159   0.0000       9.323096       253.6943 
 160   0.0000       9.524460       259.1737 
 161   0.0000       9.580158       260.6894 
 162   0.0000       9.824391       267.3353 
 163   0.0000       9.878321       268.8028 
 164   0.0000       9.983684       271.6699 
 165   0.0000      10.204842       277.6879 
 166   0.0000      11.348958       308.8209 
 167   0.0000      19.128257       520.5063 
 168   0.0000      22.456708       611.0781 
 169   0.0000      43.722511      1189.7500 
 170   0.0000      66.015352      1796.3691 
 171   0.0000     126.467985      3441.3688 

                    ********************************
                    * MULLIKEN POPULATION ANALYSIS *
                    ********************************

-----------------------
MULLIKEN ATOMIC CHARGES
-----------------------
   0 C :   -0.000022
   1 O :   -0.002712
   2 H :   -0.001156
   3 H :    0.000088
   4 H :   -0.000264
   5 H :   -0.000272
   6 C :   -0.159223
   7 O :   -0.467305
   8 H :    0.308637
   9 H :    0.122437
  10 H :    0.092508
  11 H :    0.107284
Sum of atomic charges:    0.0000000

--------------------------------
MULLIKEN REDUCED ORBITAL CHARGES
--------------------------------
  0 C s       :     0.000188  s :     0.000188
      pz      :    -0.000160  p :    -0.000155
      px      :    -0.000419
      py      :     0.000424
      dz2     :    -0.000009  d :    -0.000012
      dxz     :    -0.000016
      dyz     :     0.000019
      dx2y2   :    -0.000003
      dxy     :    -0.000003
      f0      :     0.000001  f :     0.000000
      f+1     :    -0.000001
      f-1     :     0.000000
      f+2     :     0.000000
      f-2     :    -0.000000
      f+3     :     0.000000
      f-3     :    -0.000000
  1 O s       :    -0.000585  s :    -0.000585
      pz      :     0.002480  p :     0.003409
      px      :     0.000883
      py      :     0.000046
      dz2     :    -0.000081  d :    -0.000108
      dxz     :    -0.000015
      dyz     :    -0.000008
      dx2y2   :     0.000000
      dxy     :    -0.000004
      f0      :    -0.000002  f :    -0.000003
      f+1     :    -0.000001
      f-1     :    -0.000001
      f+2     :    -0.000000
      f-2     :    -0.000000
      f+3     :    -0.000000
      f-3     :    -0.000000
  2 H s       :     0.001171  s :     0.001171
      pz      :    -0.000012  p :    -0.000015
      px      :    -0.000000
      py      :    -0.000002
  3 H s       :    -0.000088  s :    -0.000088
      pz      :     0.000000  p :    -0.000000
      px      :     0.000000
      py      :    -0.000000
  4 H s       :     0.000264  s :     0.000264
      pz      :    -0.000000  p :    -0.000000
      px      :    -0.000000
      py      :    -0.000000
  5 H s       :     0.000271  s :     0.000271
      pz      :     0.000000  p :     0.000001
      px      :     0.000001
      py      :     0.000000
  6 C s       :     3.225022  s :     3.225022
      pz      :     0.894001  p :     2.829330
      px      :     1.054822
      py      :     0.880506
      dz2     :     0.024631  d :     0.097119
      dxz     :     0.028892
      dyz     :     0.013375
      dx2y2   :     0.019925
      dxy     :     0.010296
      f0      :     0.001033  f :     0.007753
      f+1     :     0.000660
      f-1     :     0.001208
      f+2     :     0.001964
      f-2     :     0.001569
      f+3     :     0.000600
      f-3     :     0.000719
  7 O s       :     3.791263  s :     3.791263
      pz      :     1.236542  p :     4.643867
      px      :     1.801743
      py      :     1.605582
      dz2     :     0.005343  d :     0.030483
      dxz     :     0.005750
      dyz     :     0.010184
      dx2y2   :     0.004569
      dxy     :     0.004636
      f0      :     0.000238  f :     0.001693
      f+1     :     0.000301
      f-1     :     0.000464
      f+2     :     0.000193
      f-2     :     0.000272
      f+3     :     0.000117
      f-3     :     0.000108
  8 H s       :     0.642847  s :     0.642847
      pz      :     0.017945  p :     0.048515
      px      :     0.017020
      py      :     0.013551
  9 H s       :     0.857119  s :     0.857119
      pz      :     0.009483  p :     0.020444
      px      :     0.007247
      py      :     0.003714
 10 H s       :     0.888793  s :     0.888793
      pz      :     0.004386  p :     0.018700
      px      :     0.011197
      py      :     0.003116
 11 H s       :     0.872753  s :     0.872753
      pz      :     0.004274  p :     0.019963
      px      :     0.004504
      py      :     0.011185


                     *******************************
                     * LOEWDIN POPULATION ANALYSIS *
                     *******************************

----------------------
LOEWDIN ATOMIC CHARGES
----------------------
   0 C :   -0.004207
   1 O :   -0.014977
   2 H :   -0.001964
   3 H :   -0.000061
   4 H :   -0.000225
   5 H :   -0.000299
   6 C :   -0.381069
   7 O :   -0.059419
   8 H :    0.169037
   9 H :    0.105678
  10 H :    0.098547
  11 H :    0.088959

-------------------------------
LOEWDIN REDUCED ORBITAL CHARGES
-------------------------------
  0 C s       :     0.000639  s :     0.000639
      pz      :     0.002893  p :     0.003494
      px      :     0.000196
      py      :     0.000405
      dz2     :     0.000039  d :     0.000073
      dxz     :     0.000014
      dyz     :     0.000007
      dx2y2   :     0.000006
      dxy     :     0.000007
      f0      :     0.000001  f :     0.000002
      f+1     :     0.000000
      f-1     :     0.000000
      f+2     :     0.000000
      f-2     :     0.000000
      f+3     :     0.000000
      f-3     :     0.000000
  1 O s       :     0.001809  s :     0.001809
      pz      :     0.010981  p :     0.012772
      px      :     0.001113
      py      :     0.000677
      dz2     :     0.000283  d :     0.000387
      dxz     :     0.000046
      dyz     :     0.000051
      dx2y2   :     0.000001
      dxy     :     0.000006
      f0      :     0.000006  f :     0.000010
      f+1     :     0.000002
      f-1     :     0.000002
      f+2     :     0.000000
      f-2     :     0.000001
      f+3     :     0.000000
      f-3     :     0.000000
  2 H s       :     0.001951  s :     0.001951
      pz      :     0.000010  p :     0.000012
      px      :     0.000001
      py      :     0.000001
  3 H s       :     0.000059  s :     0.000059
      pz      :     0.000001  p :     0.000001
      px      :     0.000000
      py      :     0.000000
  4 H s       :     0.000223  s :     0.000223
      pz      :     0.000001  p :     0.000002
      px      :     0.000000
      py      :     0.000000
  5 H s       :     0.000297  s :     0.000297
      pz      :     0.000001  p :     0.000002
      px      :     0.000000
      py      :     0.000000
  6 C s       :     2.858388  s :     2.858388
      pz      :     0.963983  p :     3.050193
      px      :     1.099722
      py      :     0.986488
      dz2     :     0.079703  d :     0.414472
      dxz     :     0.107794
      dyz     :     0.083661
      dx2y2   :     0.107511
      dxy     :     0.035803
      f0      :     0.009780  f :     0.058016
      f+1     :     0.005606
      f-1     :     0.010170
      f+2     :     0.009827
      f-2     :     0.012655
      f+3     :     0.005379
      f-3     :     0.004598
  7 O s       :     3.357899  s :     3.357899
      pz      :     1.273293  p :     4.624933
      px      :     1.732904
      py      :     1.618735
      dz2     :     0.019932  d :     0.071862
      dxz     :     0.014129
      dyz     :     0.021661
      dx2y2   :     0.008454
      dxy     :     0.007686
      f0      :     0.000507  f :     0.004725
      f+1     :     0.000636
      f-1     :     0.001422
      f+2     :     0.000660
      f-2     :     0.000990
      f+3     :     0.000219
      f-3     :     0.000290
  8 H s       :     0.667838  s :     0.667838
      pz      :     0.064173  p :     0.163125
      px      :     0.052940
      py      :     0.046011
  9 H s       :     0.832279  s :     0.832279
      pz      :     0.026868  p :     0.062043
      px      :     0.022715
      py      :     0.012460
 10 H s       :     0.846372  s :     0.846372
      pz      :     0.012731  p :     0.055081
      px      :     0.032730
      py      :     0.009621
 11 H s       :     0.845169  s :     0.845169
      pz      :     0.015028  p :     0.065872
      px      :     0.015720
      py      :     0.035125


                      *****************************
                      * MAYER POPULATION ANALYSIS *
                      *****************************

  NA   - Mulliken gross atomic population
  ZA   - Total nuclear charge
  QA   - Mulliken gross atomic charge
  VA   - Mayer's total valence
  BVA  - Mayer's bonded valence
  FA   - Mayer's free valence

  ATOM       NA         ZA         QA         VA         BVA        FA
  0 C      0.0000     0.0000    -0.0000     0.0000     0.0000     0.0000
  1 O      0.0027     0.0000    -0.0027     0.0054     0.0054    -0.0000
  2 H      0.0012     0.0000    -0.0012     0.0023     0.0023    -0.0000
  3 H     -0.0001     0.0000     0.0001    -0.0002    -0.0002     0.0000
  4 H      0.0003     0.0000    -0.0003     0.0005     0.0005     0.0000
  5 H      0.0003     0.0000    -0.0003     0.0005     0.0005     0.0000
  6 C      6.1592     6.0000    -0.1592     3.9391     3.9391    -0.0000
  7 O      8.4673     8.0000    -0.4673     1.8974     1.8974     0.0000
  8 H      0.6914     1.0000     0.3086     0.9151     0.9151     0.0000
  9 H      0.8776     1.0000     0.1224     0.9589     0.9589    -0.0000
 10 H      0.9075     1.0000     0.0925     0.9570     0.9570     0.0000
 11 H      0.8927     1.0000     0.1073     0.9616     0.9616     0.0000

  Mayer bond orders larger than 0.1
B(  6-C ,  7-O ) :   0.9982 B(  6-C ,  9-H ) :   0.9754 B(  6-C , 10-H ) :   0.9751 
B(  6-C , 11-H ) :   0.9812 B(  7-O ,  8-H ) :   0.9061 

-------
TIMINGS
-------

Total SCF time: 0 days 0 hours 0 min 9 sec 

Total time                  ....       9.918 sec
Sum of individual times     ....       9.596 sec  ( 96.8%)

Fock matrix formation       ....       9.075 sec  ( 91.5%)
  XC integration            ....       1.585 sec  ( 17.5% of F)
    Basis function eval.    ....       0.060 sec  (  3.8% of XC)
    Density eval.           ....       0.051 sec  (  3.2% of XC)
    XC-Functional eval.     ....       0.080 sec  (  5.1% of XC)
    XC-Potential eval.      ....       0.067 sec  (  4.2% of XC)
Diagonalization             ....       0.045 sec  (  0.5%)
Density matrix formation    ....       0.004 sec  (  0.0%)
Population analysis         ....       0.017 sec  (  0.2%)
Initial guess               ....       0.111 sec  (  1.1%)
Orbital Transformation      ....       0.000 sec  (  0.0%)
Orbital Orthonormalization  ....       0.000 sec  (  0.0%)
DIIS solution               ....       0.024 sec  (  0.2%)
SOSCF solution              ....       0.020 sec  (  0.2%)
Grid generation             ....       0.300 sec  (  3.0%)


-------------------------------------------------------------------------------
                          DFT DISPERSION CORRECTION                            
                                                                               
                              DFTD3 V3.1  Rev 1                                
                              USING zero damping                               
-------------------------------------------------------------------------------
The omegaB97X-D3 functional is recognized. Fit by Chai et al.
Active option DFTDOPT                   ...         3   

molecular C6(AA) [au] = 208.700348 


            DFT-D V3
 parameters
 s6 scaling factor         :     1.0000 
 rs6 scaling factor        :     1.2810 
 s8 scaling factor         :     1.0000 
 rs8 scaling factor        :     1.0940 
 Damping factor alpha6     :    14.0000 
 Damping factor alpha8     :    16.0000 
 ad hoc parameters k1-k3   :    16.0000     1.3333    -4.0000 

 Edisp/kcal,au: -0.146695271606  -0.000233773771 
 E6   /kcal   :  -0.028634646 
 E8   /kcal   :  -0.118060626 
 % E8         :  80.480184843 

-------------------------   ----------------
Dispersion correction           -0.000233774
-------------------------   ----------------


-------------------------   --------------------
FINAL SINGLE POINT ENERGY      -115.734767574104
-------------------------   --------------------


                            ***************************************
                            *     ORCA property calculations      *
                            ***************************************

                                    ---------------------
                                    Active property flags
                                    ---------------------
   (+) Dipole Moment


------------------------------------------------------------------------------
                       ORCA ELECTRIC PROPERTIES CALCULATION
------------------------------------------------------------------------------

Dipole Moment Calculation                       ... on
Quadrupole Moment Calculation                   ... off
Polarizability Calculation                      ... off
GBWName                                         ... 8-107_DFT_B.gbw
Electron density file                           ... 8-107_DFT_B.scfp.tmp
The origin for moment calculation is the CENTER OF MASS  = (12.371804, -9.803323  0.506422)

-------------
DIPOLE MOMENT
-------------
                                X             Y             Z
Electronic contribution:     -0.56832       1.19556       1.18280
Nuclear contribution   :      0.87562      -1.78585      -1.05145
                        -----------------------------------------
Total Dipole Moment    :      0.30730      -0.59029       0.13135
                        -----------------------------------------
Magnitude (a.u.)       :      0.67832
Magnitude (Debye)      :      1.72416



--------------------
Rotational spectrum 
--------------------
 
Rotational constants in cm-1:     4.328913     0.843515     0.808239 
Rotational constants in MHz : 129777.541019 25287.955581 24230.396137 

 Dipole components along the rotational axes: 
x,y,z [a.u.] :    -0.340218    -0.586834    -0.000690 
x,y,z [Debye]:    -0.864766    -1.491613    -0.001753 

 
------------------------------------------------------------------------------
                      ORCA CHELPG CHARGES GENERATION
------------------------------------------------------------------------------

GBW file                           ... 8-107_DFT_B.gbw

Reading the GBW file               ... done

Grid spacing                       ...     0.300000
Point Cut-Off                      ...     2.800000
Van-der-Waals Radii                ...        COSMO
Total charge                       ...            0


Number of points X direction       ...           26
Number of points Y direction       ...           28
Number of points Z direction       ...           40
Maximum number of possible points  ...        29120
Final number of points             ...         5949


CHELPG Charges            
--------------------------------
  0   C   :       0.003907
  1   O   :       0.002289
  2   H   :      -0.000864
  3   H   :      -0.008590
  4   H   :       0.000411
  5   H   :      -0.007913
  6   C   :      -0.014245
  7   O   :      -0.574884
  8   H   :       0.404697
  9   H   :       0.108341
 10   H   :       0.041314
 11   H   :       0.045536
--------------------------------
Total charge:    -0.000000
--------------------------------

CHELPG charges calculated...

Timings for individual parts in CHELPG calculation:
Grid generation                 ...        0.001 sec (=   0.000 min)
Potential calculation           ...        1.246 sec (=   0.021 min)
Fit to the potential            ...        0.002 sec (=   0.000 min)
------------------------------------------------------------------------------


Timings for individual modules:

Sum of individual times         ...       12.548 sec (=   0.209 min)
GTO integral calculation        ...        0.794 sec (=   0.013 min)   6.3 %
SCF iterations                  ...       10.475 sec (=   0.175 min)  83.5 %
CHELPG charge generation        ...        1.279 sec (=   0.021 min)  10.2 %



                             ****ORCA TERMINATED NORMALLY****
TOTAL RUN TIME: 0 days 0 hours 0 minutes 46 seconds 923 msec
