LAMMPS data file via vdw_self_gen.py, on 2021-08-05 13:24:50.801147

6500 atoms
5 atom types
6000 bonds
4 bond types
10000 angles
6 angle types
6000 dihedrals
3 dihedral types

-42.3414709361723567  42.3414709361723638 xlo xhi
-42.3414709361723567  42.3414709361723638 ylo yhi
-42.3414709361723567  42.3414709361723638 zlo zhi

Masses

1  1.007940
2  1.007940
3  12.011000
4  12.011000
5  15.999400

Atoms

1         0    3    0.0494510000000000  -33.8108937742836488  23.3678422551873552 -21.8771553503518277 0 0 0
2         0    5   -0.3683210000000000  -32.8523736343282380  22.6807915288872692 -22.6701962608289520 0 0 0
3         0    4    0.5224280000000000  -31.9301081050109303  23.5786841202638193 -23.2766069619088150 0 0 0
4         0    5   -0.3683210000000000  -32.5299503818292166  24.3953497579302976 -24.2759628571214527 0 0 0
5         0    3    0.0494510000000000  -32.9583633408227570  23.6284536585107325 -25.3933671217729966 0 0 0
6         0    1    0.0319320000000000  -34.4892211592741376  22.6280213236188388 -21.4437846490059059 0 0 0
7         0    1    0.0319320000000000  -34.3993482786620532  24.0601817508588560 -22.4864183551453998 0 0 0
8         0    1    0.0319320000000000  -33.3188252853419939  23.9067786806873137 -21.0615830659036583 0 0 0
9         0    2   -0.0381400000000000  -31.1139054143414633  22.9943072035300595 -23.7157121846432624 0 0 0
10        0    2   -0.0381400000000000  -31.4867919213821459  24.2300943943032223 -22.5143698911698458 0 0 0
11        0    1    0.0319320000000000  -33.3626358656417707  24.3136470100124136 -26.1433976779734465 0 0 0
12        0    1    0.0319320000000000  -33.7491210687095204  22.9296628759923138 -25.1043501033213943 0 0 0
13        0    1    0.0319320000000000  -32.1177790138926227  23.0856977570179751 -25.8366078376534212 0 0 0
14        1    3    0.0494510000000000  -15.6705569944766090 -24.5532251967506632  14.2563887390979520 0 0 0
15        1    5   -0.3683210000000000  -14.3466931076271624 -24.6431517245785834  13.7474574337249233 0 0 0
16        1    4    0.5224280000000000  -13.4006400737943281 -24.0591701091594174  14.6354145726838443 0 0 0
17        1    5   -0.3683210000000000  -13.5288263636129784 -22.6447299026487023  14.7270273633216355 0 0 0
18        1    3    0.0494510000000000  -13.2000310244542689 -22.0070756626246720  13.5000186932109116 0 0 0
19        1    1    0.0319320000000000  -16.3473074500779916 -25.0132791763858187  13.5313836539673922 0 0 0
20        1    1    0.0319320000000000  -15.9680291463641630 -23.5091830298674118  14.3916675719621612 0 0 0
21        1    1    0.0319320000000000  -15.7555225854786460 -25.0959745976618827  15.2029329566896028 0 0 0
22        1    2   -0.0381400000000000  -12.3937448306225253 -24.3188546402245471  14.2901284256934353 0 0 0
23        1    2   -0.0381400000000000  -13.5175606437435754 -24.4851961548003807  15.6387596402245563 0 0 0
24        1    1    0.0319320000000000  -13.2688979730715229 -20.9258838127677826  13.6475095935783131 0 0 0
25        1    1    0.0319320000000000  -13.9048683059070477 -22.2923144399952768  12.7132656026809983 0 0 0
26        1    1    0.0319320000000000  -12.1770288908493711 -22.2514738693352285  13.1977531432445190 0 0 0
27        2    3    0.0494510000000000  -15.7066269477561171  23.9725176389940060  33.8074541466047194 0 0 0
28        2    5   -0.3683210000000000  -14.3171889525266263  23.8373390353110892  34.0737289058647619 0 0 0
29        2    4    0.5224280000000000  -13.5248294565438130  24.3679670663130210  33.0177369208379474 0 0 0
30        2    5   -0.3683210000000000  -13.6169226253910605  23.6041506131116279  31.8204195025354721 0 0 0
31        2    3    0.0494510000000000  -13.0517336395444090  22.3096210133008057  31.9785779891596995 0 0 0
32        2    1    0.0319320000000000  -16.2588935530998313  23.5455037725805525  34.6488422682898047 0 0 0
33        2    1    0.0319320000000000  -15.9861508043978411  23.4291223025820301  32.9000391302346742 0 0 0
34        2    1    0.0319320000000000  -15.9785833077640778  25.0285081913491041  33.7143643443275707 0 0 0
35        2    2   -0.0381400000000000  -12.4823315789306264  24.4089086128420050  33.3524286814772282 0 0 0
36        2    2   -0.0381400000000000  -13.8342017535517385  25.3967571516591342  32.7992199239301883 0 0 0
37        2    1    0.0319320000000000  -13.1073374543256573  21.7925592922330189  31.0167945255421387 0 0 0
38        2    1    0.0319320000000000  -13.6143668623355669  21.7277254503896131  32.7147699406070771 0 0 0
39        2    1    0.0319320000000000  -12.0005404539128246  22.3788321761344626  32.2749409641092200 0 0 0
40        3    3    0.0494510000000000  -33.1315720705417434 -25.1927291811567535  14.9368881157118896 0 0 0
41        3    5   -0.3683210000000000  -33.8560419113614586 -24.2909687051575141  14.1112459786038755 0 0 0
42        3    4    0.5224280000000000  -33.0294003657455946 -23.7196849266269822  13.1038645463500867 0 0 0
43        3    5   -0.3683210000000000  -32.0501661455433791 -22.8314739420282429  13.6307870405777312 0 0 0
44        3    3    0.0494510000000000  -32.6445979019033032 -21.6739057502108139  14.2025792665858983 0 0 0
45        3    1    0.0319320000000000  -33.8167424717650817 -25.5931710089513622  15.6888595783618747 0 0 0
46        3    1    0.0319320000000000  -32.3141123527917600 -24.6806440639032303  15.4529719582641967 0 0 0
47        3    1    0.0319320000000000  -32.7412135367295321 -26.0261728778129005  14.3446602547629816 0 0 0
48        3    2   -0.0381400000000000  -33.6684129656115942 -23.1867621846990204  12.3910161346604184 0 0 0
49        3    2   -0.0381400000000000  -32.5166388743805896 -24.5128307487614734  12.5472090931263267 0 0 0
50        3    1    0.0319320000000000  -31.8442082456466835 -21.0113601778169858  14.5429934278053565 0 0 0
51        3    1    0.0319320000000000  -33.2609595744048079 -21.9404852076109265  15.0663910866389781 0 0 0
52        3    1    0.0319320000000000  -33.2452508270949778 -21.1393235420641652  13.4602409086306203 0 0 0
53        4    3    0.0494510000000000   5.4225804523791039   6.4291457887504162   23.3984975333487100 0 0 0
54        4    5   -0.3683210000000000   4.6672794651046798   5.5045249436175707   22.6275823912817557 0 0 0
55        4    4    0.5224280000000000   3.6857811724598468   4.8405858640221577   23.4152147615670785 0 0 0
56        4    5   -0.3683210000000000   4.2531401947770222   3.9517472889382077   24.3710052476768837 0 0 0
57        4    3    0.0494510000000000   4.9065730752779544   2.8553800821311315   23.7454942566317264 0 0 0
58        4    1    0.0319320000000000   6.1579324771478845   6.9013432860233381   22.7415651623715753 0 0 0
59        4    1    0.0319320000000000   5.9576417468183207   5.9207315157888063   24.2059864981289969 0 0 0
60        4    1    0.0319320000000000   4.7725370066076609   7.2085247712582863   23.8080752914540383 0 0 0
61        4    2   -0.0381400000000000   3.0182210209989790   4.2877677748349692   22.7449519667254059 0 0 0
62        4    2   -0.0381400000000000   3.0719235512248293   5.5774872104764759   23.9462751745574565 0 0 0
63        4    1    0.0319320000000000   5.2761903596310500   2.1864544204606444   24.5274108511391873 0 0 0
64        4    1    0.0319320000000000   5.7609982593545181   3.1985841385961393   23.1544733100133335 0 0 0
65        4    1    0.0319320000000000   4.2091036815782550   2.2976253784619631   23.1129798719043187 0 0 0
66        5    3    0.0494510000000000   6.5667582049765016  -32.7994190152794047  33.0728859395216901 0 0 0
67        5    5   -0.3683210000000000   5.5372855508698580  -32.6994596566219045  32.0982538930736894 0 0 0
68        5    4    0.5224280000000000   4.4036087016139076  -32.0011092550381306  32.5998536026717858 0 0 0
69        5    5   -0.3683210000000000   3.7106994461479053  -32.7257951600160624  33.6098896559470361 0 0 0
70        5    3    0.0494510000000000   3.1124572318865855  -33.9066243404339787  33.0921944935693446 0 0 0
71        5    1    0.0319320000000000   7.4039136486946600  -33.3462010331323242  32.6307621957510818 0 0 0
72        5    1    0.0319320000000000   6.2210757146249884  -33.3503353859789726  33.9525499994670668 0 0 0
73        5    1    0.0319320000000000   6.9175576329556936  -31.8044612849987693  33.3639888353923340 0 0 0
74        5    2   -0.0381400000000000   3.7272189197145114  -31.7908647386732284  31.7639165739545604 0 0 0
75        5    2   -0.0381400000000000   4.7135859420102664  -31.0349453224767089  33.0149575675453022 0 0 0
76        5    1    0.0319320000000000   2.5567051337658908  -34.3905907649611677  33.8998999744624854 0 0 0
77        5    1    0.0319320000000000   3.8760149411118006  -34.6038422362842866  32.7344180140617880 0 0 0
78        5    1    0.0319320000000000   2.4130213949875352  -33.6656690496255635  32.2857464981023412 0 0 0
79        6    3    0.0494510000000000  -15.8712410989924670  13.8056567955421219  32.3652072294155602 0 0 0
80        6    5   -0.3683210000000000  -14.8905154795521248  13.2466064450930290  33.2285457551029708 0 0 0
81        6    4    0.5224280000000000  -14.1924661743624103  14.2525168788642418  33.9533837489708290 0 0 0
82        6    5   -0.3683210000000000  -13.3568055889787871  15.0518534440210576  33.1238066472258623 0 0 0
83        6    3    0.0494510000000000  -12.2835022007393526  14.2973133402461396  32.5770446789169057 0 0 0
84        6    1    0.0319320000000000  -16.3675542643845802  12.9873622407788236  31.8366805221403339 0 0 0
85        6    1    0.0319320000000000  -15.4103369772148913  14.4654888052765020  31.6242597282669813 0 0 0
86        6    1    0.0319320000000000  -16.6234825578180931  14.3525171852674394  32.9421114861803801 0 0 0
87        6    2   -0.0381400000000000  -13.5898603547927053  13.7668916273119244  34.7289680132358285 0 0 0
88        6    2   -0.0381400000000000  -14.9069405756056987  14.9089866826836790  34.4637205617144531 0 0 0
89        6    1    0.0319320000000000  -11.6529057605811595  14.9734222756769952  31.9933522294279875 0 0 0
90        6    1    0.0319320000000000  -12.6588968497713097  13.5155384827851623  31.9099284157213106 0 0 0
91        6    1    0.0319320000000000  -11.6751995072866102  13.8555531865331325  33.3723082272011169 0 0 0
92        7    3    0.0494510000000000  -33.4458222579849007 -23.6573624748009657  34.7275914770606633 0 0 0
93        7    5   -0.3683210000000000  -33.4018303680310211 -22.7037441710713210  33.6747903138251345 0 0 0
94        7    4    0.5224280000000000  -33.8016109100441824 -23.2718184798957637  32.4330230858466706 0 0 0
95        7    5   -0.3683210000000000  -32.8686678043578553 -24.2244362064381491  31.9354265075530321 0 0 0
96        7    3    0.0494510000000000  -31.6325547578713930 -23.6159363866183156  31.5861242215811515 0 0 0
97        7    1    0.0319320000000000  -33.1260066750632518 -23.1638206478163937  35.6492246333312153 0 0 0
98        7    1    0.0319320000000000  -32.7661702571327638 -24.4913478891338023  34.5292090775949845 0 0 0
99        7    1    0.0319320000000000  -34.4663158699737053 -24.0268698840327417  34.8683006882476505 0 0 0
100       7    2   -0.0381400000000000  -33.9290073794878850 -22.4623721486232064  31.7056556504588301 0 0 0
101       7    2   -0.0381400000000000  -34.7755711661029920 -23.7628728672035194  32.5431908856961130 0 0 0
102       7    1    0.0319320000000000  -30.9792144350948284 -24.3856723848180863  31.1664517847811844 0 0 0
103       7    1    0.0319320000000000  -31.1439105401722003 -23.1946248334760874  32.4697873828581365 0 0 0
104       7    1    0.0319320000000000  -31.7826348222035300 -22.8386339428720255  30.8305415346857288 0 0 0
105       8    3    0.0494510000000000  -13.4428277799230393 -3.8689582968745526   12.5787403892906333 0 0 0
106       8    5   -0.3683210000000000  -12.9978877373102559 -4.3561630671220577   13.8374593075673928 0 0 0
107       8    4    0.5224280000000000  -13.6032793050858380 -5.6018218606835539   14.1635788719746252 0 0 0
108       8    5   -0.3683210000000000  -14.9969139036655061 -5.4863483558758279   14.4279918093076560 0 0 0
109       8    3    0.0494510000000000  -15.2471677435110671 -4.7304669102545756   15.6053939654157858 0 0 0
110       8    1    0.0319320000000000  -12.9475217198591590 -2.9131871193500416   12.3878305155873409 0 0 0
111       8    1    0.0319320000000000  -14.5240341405221347 -3.7022666125388186   12.5832986974592203 0 0 0
112       8    1    0.0319320000000000  -13.1713486910929376 -4.5658374621332687   11.7797406689801107 0 0 0
113       8    2   -0.0381400000000000  -13.0926898367868603 -6.0175251648174148   15.0393561082021741 0 0 0
114       8    2   -0.0381400000000000  -13.4626135605546757 -6.3123385795274114   13.3406274296896896 0 0 0
115       8    1    0.0319320000000000  -16.3261813382025380 -4.7196190005143137   15.7817005841947324 0 0 0
116       8    1    0.0319320000000000  -14.9084551693850464 -3.6973350068471555   15.4827178015097751 0 0 0
117       8    1    0.0319320000000000  -14.7587864641811439 -5.1880350268210398   16.4712712409011104 0 0 0
118       9    3    0.0494510000000000  -22.6430518515025661  32.3509441492912302 -34.4790989514702915 0 0 0
119       9    5   -0.3683210000000000  -23.4627623507372896  31.8429747949939745 -33.4351855080090061 0 0 0
120       9    4    0.5224280000000000  -24.5215641862771214  32.7377887174613136 -33.1146149731557244 0 0 0
121       9    5   -0.3683210000000000  -24.0641887087236697  33.9375498510261338 -32.5007366293285500 0 0 0
122       9    3    0.0494510000000000  -23.5016141034592145  33.6902395893140394 -31.2190943120795339 0 0 0
123       9    1    0.0319320000000000  -21.8505073733207809  31.6239602821582224 -34.6756718993341977 0 0 0
124       9    1    0.0319320000000000  -22.1783437540556179  33.2972323495014706 -34.1868676795124600 0 0 0
125       9    1    0.0319320000000000  -23.2267588704878563  32.4837368896416763 -35.3952835528457541 0 0 0
126       9    2   -0.0381400000000000  -25.2214361225581527  32.2229410301620902 -32.4470764039412671 0 0 0
127       9    2   -0.0381400000000000  -25.0762575521517768  33.0008414383258213 -34.0229037332427495 0 0 0
128       9    1    0.0319320000000000  -23.2160431184072884  34.6500703134997963 -30.7801794776235589 0 0 0
129       9    1    0.0319320000000000  -22.6043336315193351  33.0696634846063731 -31.3022221163402996 0 0 0
130       9    1    0.0319320000000000  -24.2326506935997195  33.2113743535383747 -30.5603820066371163 0 0 0
131       10   3    0.0494510000000000   34.5808616720153452 -4.9217314677031929  -24.3832604514339621 0 0 0
132       10   5   -0.3683210000000000   33.8546165030419814 -3.9453583898702922  -23.6491099135154990 0 0 0
133       10   4    0.5224280000000000   33.1781365769675816 -4.5189857488318266  -22.5365249445044995 0 0 0
134       10   5   -0.3683210000000000   32.1093352512979706 -5.3761385807107160  -22.9217761289918158 0 0 0
135       10   3    0.0494510000000000   31.0596708477209944 -4.6553367202577522  -23.5533684810915851 0 0 0
136       10   1    0.0319320000000000   35.0726294114826729 -4.4223528460553343  -25.2223425090780822 0 0 0
137       10   1    0.0319320000000000   33.9114351402952536 -5.6891575633280045  -24.7829345641598842 0 0 0
138       10   1    0.0319320000000000   35.3496963021860680 -5.3812915876472474  -23.7544203864673200 0 0 0
139       10   2   -0.0381400000000000   32.7949785326508660 -3.7081034079612181  -21.9071154180119372 0 0 0
140       10   2   -0.0381400000000000   33.8839332743382897 -5.0949113489932625  -21.9265817825137361 0 0 0
141       10   1    0.0319320000000000   30.2515546614361313 -5.3562689741957623  -23.7794530744494423 0 0 0
142       10   1    0.0319320000000000   31.4035226093924251 -4.2124390724357985  -24.4929134871712542 0 0 0
143       10   1    0.0319320000000000   30.6689464606949258 -3.8778267553696226  -22.8897111754113354 0 0 0
144       11   3    0.0494510000000000   5.8348359448390159   22.4117699831258008 -5.7009467157677172  0 0 0
145       11   5   -0.3683210000000000   5.6769129623603876   22.8991022436247995 -4.3753219406590125  0 0 0
146       11   4    0.5224280000000000   4.3113095050423693   22.9047464208298344 -3.9758046178496378  0 0 0
147       11   5   -0.3683210000000000   3.5333839295056162   23.8655858901463596 -4.6808471975775179  0 0 0
148       11   3    0.0494510000000000   3.9283464269886617   25.1941808701934953 -4.3660463304003692  0 0 0
149       11   1    0.0319320000000000   6.8993172248463841   22.4354168182960798 -5.9491273928969290  0 0 0
150       11   1    0.0319320000000000   5.2997333679650200   23.0429364340793583 -6.4165640949680034  0 0 0
151       11   1    0.0319320000000000   5.4847252677587663   21.3774337692937380 -5.7738379378040952  0 0 0
152       11   2   -0.0381400000000000   4.2649041615917289   23.1070644473136078 -2.8999744407496744  0 0 0
153       11   2   -0.0381400000000000   3.8708093269423953   21.9138784888369464 -4.1370816163398993  0 0 0
154       11   1    0.0319320000000000   3.2653363616317916   25.8827187832710166 -4.8968996378124352  0 0 0
155       11   1    0.0319320000000000   4.9545825480486307   25.3824314569870069 -4.6954978735803925  0 0 0
156       11   1    0.0319320000000000   3.8357054358393228   25.3822467108024128 -3.2919526669543289  0 0 0
157       12   3    0.0494510000000000  -6.3126327344809372   14.6518223381115273  33.7258796197801587 0 0 0
158       12   5   -0.3683210000000000  -5.8000575685459665   13.6225333245220561  32.8906884616188862 0 0 0
159       12   4    0.5224280000000000  -4.5216740157179824   13.1770538606666534  33.3286408445808036 0 0 0
160       12   5   -0.3683210000000000  -3.5053513938425609   14.1580285729963471  33.1547366521818248 0 0 0
161       12   3    0.0494510000000000  -3.2600140158074038   14.4219710192651984  31.7798171863961301 0 0 0
162       12   1    0.0319320000000000  -7.2894134652778968   14.9523277983400682  33.3374609164243552 0 0 0
163       12   1    0.0319320000000000  -5.6548262161887051   15.5259238204116237  33.7187190937513748 0 0 0
164       12   1    0.0319320000000000  -6.4439166553550224   14.2861377433505385  34.7490029402916250 0 0 0
165       12   2   -0.0381400000000000  -4.2606451551538642   12.2697872017522656  32.7725583387645187 0 0 0
166       12   2   -0.0381400000000000  -4.5644497443358052   12.9041539171771316  34.3895677005348901 0 0 0
167       12   1    0.0319320000000000  -2.4401290545850833   15.1420589526495295  31.7110127021254371 0 0 0
168       12   1    0.0319320000000000  -4.1430928773959836   14.8600582254410174  31.3050661959806327 0 0 0
169       12   1    0.0319320000000000  -2.9636995666727906   13.5078506153962756  31.2561665910898903 0 0 0
170       13   3    0.0494510000000000   13.4397774829475587 -21.8957229325064553  5.3390597236990311  0 0 0
171       13   5   -0.3683210000000000   14.4539109827792664 -22.8458051049872353  5.6367013789714555  0 0 0
172       13   4    0.5224280000000000   15.0960308390381979 -23.3170825724350230  4.4576770410233255  0 0 0
173       13   5   -0.3683210000000000   14.2439587745601806 -24.1188752399765178  3.6473885483783555  0 0 0
174       13   3    0.0494510000000000   13.9008516295606857 -25.3381375226253240  4.2923199823775748  0 0 0
175       13   1    0.0319320000000000   12.9840859784388929 -21.5762388965674283  6.2800955467678197  0 0 0
176       13   1    0.0319320000000000   12.6606999591707794 -22.3381959920419888  4.7113098582820099  0 0 0
177       13   1    0.0319320000000000   13.8689989406624647 -21.0179441604340838  4.8460938149018773  0 0 0
178       13   2   -0.0381400000000000   15.9801688292156836 -23.8941426955353258  4.7505904042425122  0 0 0
179       13   2   -0.0381400000000000   15.4481744392358067 -22.4685465723662148  3.8594701560520051  0 0 0
180       13   1    0.0319320000000000   13.2898349948375785 -25.9286094902435842  3.6042258274476926  0 0 0
181       13   1    0.0319320000000000   13.3141907026241793 -25.1475478882142909  5.1960022976638047  0 0 0
182       13   1    0.0319320000000000   14.7990238370089866 -25.9126632488668953  4.5389678835526226  0 0 0
183       14   3    0.0494510000000000  -23.5742243432451595  32.6987338842443052 -12.2569784192574147 0 0 0
184       14   5   -0.3683210000000000  -22.8845609959814702  32.2083234531540796 -13.3987207375670039 0 0 0
185       14   4    0.5224280000000000  -22.5602074527253755  33.2542501670277630 -14.3072089536615419 0 0 0
186       14   5   -0.3683210000000000  -23.7067673229341622  33.8127730718666584 -14.9388087912938232 0 0 0
187       14   3    0.0494510000000000  -24.3420313928613936  32.8753549087755417 -15.7978468174407105 0 0 0
188       14   1    0.0319320000000000  -23.7974231691289049  31.8517513195465902 -11.6027032202606879 0 0 0
189       14   1    0.0319320000000000  -24.5182777119776958  33.1717956671886540 -12.5429677136414028 0 0 0
190       14   1    0.0319320000000000  -22.9483840550556302  33.4072806494344476 -11.7055915905088259 0 0 0
191       14   2   -0.0381400000000000  -21.8760189845147117  32.8565145356558048 -15.0649616291465538 0 0 0
192       14   2   -0.0381400000000000  -22.0280247532455569  34.0549653004033601 -13.7804198256817863 0 0 0
193       14   1    0.0319320000000000  -25.1811181156161794  33.3756822432816733 -16.2888438322408255 0 0 0
194       14   1    0.0319320000000000  -24.7334661759209311  32.0283886482052580 -15.2263889073836971 0 0 0
195       14   1    0.0319320000000000  -23.6490078435931856  32.5235033947363945 -16.5682669519959269 0 0 0
196       15   3    0.0494510000000000   6.5749433461688023  -23.4403178706592783  4.7099633672787480  0 0 0
197       15   5   -0.3683210000000000   5.5188706914843113  -24.1960579735602757  4.1326585173122359  0 0 0
198       15   4    0.5224280000000000   4.4418530643587921  -23.3639193267864513  3.7178126977522910  0 0 0
199       15   5   -0.3683210000000000   3.7472094504822815  -22.7735017523797261  4.8106727361983204  0 0 0
200       15   3    0.0494510000000000   3.0697179420503877  -23.7493145987232275  5.5910919352917627  0 0 0
201       15   1    0.0319320000000000   7.3661176237426211  -24.1326127132609969  5.0100372418706884  0 0 0
202       15   1    0.0319320000000000   6.2314741356403944  -22.9029008305854447  5.5987973880369886  0 0 0
203       15   1    0.0319320000000000   6.9877708024724239  -22.7375814069851110  3.9795682867609528  0 0 0
204       15   2   -0.0381400000000000   3.7488156544669526  -23.9653453425733858  3.1190786117633094  0 0 0
205       15   2   -0.0381400000000000   4.8167374287173299  -22.5630057841687304  3.0698395915117400  0 0 0
206       15   1    0.0319320000000000   2.5176328521100779  -23.2323785997736003  6.3806812367362244  0 0 0
207       15   1    0.0319320000000000   3.7824282847947757  -24.4334945615247499  6.0612822422378851  0 0 0
208       15   1    0.0319320000000000   2.3563311868709542  -24.3090815558193754  4.9784186106089452  0 0 0
209       16   3    0.0494510000000000   31.5320196828055224 -24.7604427533647566  32.8173647033830704 0 0 0
210       16   5   -0.3683210000000000   32.9027926706292746 -24.6296817501257834  32.4658018771560890 0 0 0
211       16   4    0.5224280000000000   33.6532382218249637 -24.0006493039706825  33.4981140426248274 0 0 0
212       16   5   -0.3683210000000000   33.3156012280042972 -22.6286991548517378  33.6690519694762003 0 0 0
213       16   3    0.0494510000000000   33.6822809332014188 -21.8525604365042483  32.5361732182064785 0 0 0
214       16   1    0.0319320000000000   31.0110372042851026 -25.2446923561355554  31.9870919794597484 0 0 0
215       16   1    0.0319320000000000   31.0758492469444008 -23.7805445689844817  32.9862497876697134 0 0 0
216       16   1    0.0319320000000000   31.4223324017230539 -25.3868278045732474  33.7080680702181041 0 0 0
217       16   2   -0.0381400000000000   34.7184984063075035 -24.0935827304728036  33.2591983100017927 0 0 0
218       16   2   -0.0381400000000000   33.4892782988049476 -24.5207892370176310  34.4491353512678984 0 0 0
219       16   1    0.0319320000000000   33.4443730587683064 -20.8064237717032228  32.7470522364650662 0 0 0
220       16   1    0.0319320000000000   33.1155085398527405 -22.1627804270839484  31.6531840956899302 0 0 0
221       16   1    0.0319320000000000   34.7565073503689845 -21.9318380220122791  32.3428316019016151 0 0 0
222       17   3    0.0494510000000000  -5.3154698055433318   23.7637381006184540  34.6855201649220461 0 0 0
223       17   5   -0.3683210000000000  -4.3720987782649123   24.3119926987430865  33.7749261580084976 0 0 0
224       17   4    0.5224280000000000  -4.9094741306996807   24.4202132492785182  32.4619011035493514 0 0 0
225       17   5   -0.3683210000000000  -5.1297248339307764   23.1547562541689267  31.8490602209750762 0 0 0
226       17   3    0.0494510000000000  -3.9082580975403634   22.4711718092679220  31.6020968634073682 0 0 0
227       17   1    0.0319320000000000  -4.8443967369817553   23.7030144379678624  35.6702414542574076 0 0 0
228       17   1    0.0319320000000000  -5.6120641831075382   22.7553244981369502  34.3822910905779651 0 0 0
229       17   1    0.0319320000000000  -6.1956707976242091   24.4096615847787888  34.7614878281084643 0 0 0
230       17   2   -0.0381400000000000  -4.2188948536155984   25.0128107539501947  31.8516347115376881 0 0 0
231       17   2   -0.0381400000000000  -5.8613491221996679   24.9632900231496073  32.4914231976257923 0 0 0
232       17   1    0.0319320000000000  -4.1388898360316464   21.5340254295897573  31.0882508721253537 0 0 0
233       17   1    0.0319320000000000  -3.4003538428476872   22.2323072834214734  32.5413062038939458 0 0 0
234       17   1    0.0319320000000000  -3.2532574449728724   23.0672061937289392  30.9591773745315351 0 0 0
235       18   3    0.0494510000000000  -33.7389303413619501 -14.5124462729825812  25.1648071928855295 0 0 0
236       18   5   -0.3683210000000000  -33.0823827614517114 -15.1643355921784799  24.0860583640415165 0 0 0
237       18   4    0.5224280000000000  -31.9532867934505411 -14.4260723733315128  23.6336995845962221 0 0 0
238       18   5   -0.3683210000000000  -32.3109120825058937 -13.2047994312463484  22.9964694223638233 0 0 0
239       18   3    0.0494510000000000  -33.0093479133571535 -13.4322818987381964  21.7796297868461011 0 0 0
240       18   1    0.0319320000000000  -34.5949337158849133 -15.1235609283874748  25.4632536999092949 0 0 0
241       18   1    0.0319320000000000  -34.1070233733866175 -13.5278410460545384  24.8616996923500650 0 0 0
242       18   1    0.0319320000000000  -33.0656169146703434 -14.4165636933187251  26.0222438261441020 0 0 0
243       18   2   -0.0381400000000000  -31.3832171161550164 -15.0536202262681655  22.9396528534586288 0 0 0
244       18   2   -0.0381400000000000  -31.2932686644181857 -14.1977448986054196  24.4787513992406396 0 0 0
245       18   1    0.0319320000000000  -33.2114859877739121 -12.4632752680846508  21.3152609817778149 0 0 0
246       18   1    0.0319320000000000  -33.9656502404652798 -13.9293941096020202  21.9680508256864400 0 0 0
247       18   1    0.0319320000000000  -32.4032613386389556 -14.0277716512820767  21.0899346875002998 0 0 0
248       19   3    0.0494510000000000  -32.7318610579353617  6.3339584182843218   24.4230868030031232 0 0 0
249       19   5   -0.3683210000000000  -33.0679225418517078  4.9781415020086888   24.6848817866616841 0 0 0
250       19   4    0.5224280000000000  -32.2348254555620883  4.0801484098973475   23.9609505731226662 0 0 0
251       19   5   -0.3683210000000000  -32.4676074449621197  4.1202234156518145   22.5575004438253117 0 0 0
252       19   3    0.0494510000000000  -33.7629133647402142  3.6379530999067784   22.2260528640498869 0 0 0
253       19   1    0.0319320000000000  -33.4057386341728559  6.9709579782058784   25.0022187307225785 0 0 0
254       19   1    0.0319320000000000  -32.8592071769619736  6.5712744347268384   23.3627669624320298 0 0 0
255       19   1    0.0319320000000000  -31.7039415542631460  6.5418559555397815   24.7359799599646735 0 0 0
256       19   2   -0.0381400000000000  -32.4081758911284723  3.0657209733911124   24.3369601637614394 0 0 0
257       19   2   -0.0381400000000000  -31.1805658561596317  4.3171046189342892   24.1460407886031270 0 0 0
258       19   1    0.0319320000000000  -33.8626451743424255  3.6467589844459249   21.1372700293895726 0 0 0
259       19   1    0.0319320000000000  -34.5377440300529770  4.2853711895372193   22.6475080054472357 0 0 0
260       19   1    0.0319320000000000  -33.8961690613875035  2.6104334828301048   22.5782952058171382 0 0 0
261       20   3    0.0494510000000000  -13.9915651644518562 -21.7676881420607877 -5.3439990585910024  0 0 0
262       20   5   -0.3683210000000000  -13.1682042650324878 -22.9018180389916495 -5.1083305390663680  0 0 0
263       20   4    0.5224280000000000  -13.8108858346403416 -24.1093327666890040 -5.4999774886017665  0 0 0
264       20   5   -0.3683210000000000  -14.9196494726855970 -24.4391055396370014 -4.6709064185053260  0 0 0
265       20   3    0.0494510000000000  -14.5103052988645640 -24.7504364547618714 -3.3458517064099089  0 0 0
266       20   1    0.0319320000000000  -13.4464945072390147 -20.8767085706030286 -5.0210027758097056  0 0 0
267       20   1    0.0319320000000000  -14.9199679727405918 -21.8314502674406903 -4.7688323810716753  0 0 0
268       20   1    0.0319320000000000  -14.2141459316116681 -21.6701176525343158 -6.4110884744152337  0 0 0
269       20   2   -0.0381400000000000  -13.0738288774949272 -24.9196038009676926 -5.4734350201315696  0 0 0
270       20   2   -0.0381400000000000  -14.1624119202350442 -24.0266860809099398 -6.5350952945911107  0 0 0
271       20   1    0.0319320000000000  -15.3955765691180151 -25.0420505734647456 -2.7742504272502284  0 0 0