
                                 *****************
                                 * O   R   C   A *
                                 *****************

           --- An Ab Initio, DFT and Semiempirical electronic structure package ---

                  #######################################################
                  #                        -***-                        #
                  #          Department of theory and spectroscopy      #
                  #               Directorship: Frank Neese             #
                  #        Max Planck Institute fuer Kohlenforschung    #
                  #                Kaiser Wilhelm Platz 1               #
                  #                 D-45470 Muelheim/Ruhr               #
                  #                      Germany                        #
                  #                                                     #
                  #                  All rights reserved                #
                  #                        -***-                        #
                  #######################################################


                         Program Version 4.1.2  - RELEASE  -


 With contributions from (in alphabetic order):
   Daniel Aravena         : Magnetic Properties
   Michael Atanasov       : Ab Initio Ligand Field Theory
   Alexander A. Auer      : GIAO ZORA
   Ute Becker             : Parallelization
   Giovanni Bistoni       : ED, Open-shell LED
   Martin Brehm           : Molecular dynamics
   Dmytro Bykov           : SCF Hessian
   Vijay G. Chilkuri      : MRCI spin determinant printing
   Dipayan Datta          : RHF DLPNO-CCSD density
   Achintya Kumar Dutta   : EOM-CC, STEOM-CC
   Dmitry Ganyushin       : Spin-Orbit,Spin-Spin,Magnetic field MRCI
   Miquel Garcia          : C-PCM Hessian
   Yang Guo               : DLPNO-NEVPT2, CIM, IAO-localization
   Andreas Hansen         : Spin unrestricted coupled pair/coupled cluster methods
   Benjamin Helmich-Paris : CASSCF linear response (MC-RPA)
   Lee Huntington         : MR-EOM, pCC
   Robert Izsak           : Overlap fitted RIJCOSX, COSX-SCS-MP3, EOM
   Christian Kollmar      : KDIIS, OOCD, Brueckner-CCSD(T), CCSD density
   Simone Kossmann        : Meta GGA functionals, TD-DFT gradient, OOMP2, MP2 Hessian
   Martin Krupicka        : AUTO-CI
   Lucas Lang             : DCDCAS
   Dagmar Lenk            : GEPOL surface, SMD
   Dimitrios Liakos       : Extrapolation schemes; parallel MDCI
   Dimitrios Manganas     : ROCIS; embedding schemes
   Dimitrios Pantazis     : SARC Basis sets
   Taras Petrenko         : DFT Hessian,TD-DFT gradient, ASA, ECA, R-Raman, ABS, FL, XAS/XES, NRVS
   Peter Pinski           : DLPNO-MP2, DLPNO-MP2 Gradient
   Christoph Reimann      : Effective Core Potentials
   Marius Retegan         : Local ZFS, SOC
   Christoph Riplinger    : Optimizer, TS searches, QM/MM, DLPNO-CCSD(T), (RO)-DLPNO pert. Triples
   Tobias Risthaus        : Range-separated hybrids, TD-DFT gradient, RPA, STAB
   Michael Roemelt        : Restricted open shell CIS
   Masaaki Saitow         : Open-shell DLPNO
   Barbara Sandhoefer     : DKH picture change effects
   Avijit Sen             : IP-ROCIS
   Kantharuban Sivalingam : CASSCF convergence, NEVPT2, FIC-MRCI
   Bernardo de Souza      : ESD, SOC TD-DFT
   Georgi Stoychev        : AutoAux, RI-MP2 NMR
   Willem Van den Heuvel  : Paramagnetic NMR
   Boris Wezisla          : Elementary symmetry handling
   Frank Wennmohs         : Technical directorship


 We gratefully acknowledge several colleagues who have allowed us to
 interface, adapt or use parts of their codes:
   Stefan Grimme, W. Hujo, H. Kruse,             : VdW corrections, initial TS optimization,
                  C. Bannwarth                     DFT functionals, gCP, sTDA/sTD-DF
   Ed Valeev                                     : LibInt (2-el integral package), F12 methods
   Garnet Chan, S. Sharma, J. Yang, R. Olivares  : DMRG
   Ulf Ekstrom                                   : XCFun DFT Library
   Mihaly Kallay                                 : mrcc  (arbitrary order and MRCC methods)
   Andreas Klamt, Michael Diedenhofen            : otool_cosmo (COSMO solvation model)
   Jiri Pittner, Ondrej Demel                    : Mk-CCSD
   Frank Weinhold                                : gennbo (NPA and NBO analysis)
   Christopher J. Cramer and Donald G. Truhlar   : smd solvation model
   Lars Goerigk                                  : TD-DFT with DH, B97 family of functionals
   V. Asgeirsson, H. Jonsson                     : NEB implementation
   FAccTs GmbH                                   : IRC, NEB, NEB-TS, Multilevel


 Your calculation uses the libint2 library for the computation of 2-el integrals
 For citations please refer to: http://libint.valeyev.net

 This ORCA versions uses:
   CBLAS   interface :  Fast vector & matrix operations
   LAPACKE interface :  Fast linear algebra routines
   SCALAPACK package :  Parallel linear algebra routines


Your calculation utilizes the atom-pairwise dispersion correction
with the zero-damping scheme (D30)
Cite in your paper:
S.Grimme, J.Antony, S.Ehrlich and H.Krieg, J.Chem.Phys., 132, (2010), 154104 
   

XCFun DFT library Copyright 2009-2010 Ulf Ekstrom and contributors.
See http://admol.org/xcfun for more information. This is free soft-
ware; see the source code for copying conditions. There is ABSOLUTELY
NO WARRANTY; not even for MERCHANTABILITY or FITNESS FOR A PARTICULAR
PURPOSE. For details see the documentation. Scientific users of this 
library should cite U. Ekstrom, L. Visscher, R. Bast, A. J. Thorvald-
sen and K. Ruud; J.Chem.Theor.Comp. 2010, DOI: 10.1021/ct100117s
XCFun Version 0.99 
----- Orbital basis set information -----
Your calculation utilizes the basis: def2-TZVP
   F. Weigend and R. Ahlrichs, Phys. Chem. Chem. Phys. 7, 3297 (2005).

================================================================================
                                        WARNINGS
                       Please study these warnings very carefully!
================================================================================


INFO   : the flag for use of LIBINT has been found!

Your calculation utilizes the atom-pairwise dispersion correction
with the zero-damping scheme (D30)
Cite in your paper:
S.Grimme, J.Antony, S.Ehrlich and H.Krieg, J.Chem.Phys., 132, (2010), 154104 
   

XCFun DFT library Copyright 2009-2010 Ulf Ekstrom and contributors.
See http://admol.org/xcfun for more information. This is free soft-
ware; see the source code for copying conditions. There is ABSOLUTELY
NO WARRANTY; not even for MERCHANTABILITY or FITNESS FOR A PARTICULAR
PURPOSE. For details see the documentation. Scientific users of this 
library should cite U. Ekstrom, L. Visscher, R. Bast, A. J. Thorvald-
sen and K. Ruud; J.Chem.Theor.Comp. 2010, DOI: 10.1021/ct100117s
XCFun Version 0.99 
----- Orbital basis set information -----
Your calculation utilizes the basis: def2-TZVP
   F. Weigend and R. Ahlrichs, Phys. Chem. Chem. Phys. 7, 3297 (2005).

================================================================================
                                        WARNINGS
                       Please study these warnings very carefully!
================================================================================


WARNING: MOInp is set but Guess=PModel. MOInp will be ignored!
         To read the initial guess from a file you must also specify
         'MORead' in the simple input or 'Guess MORead' in the %scf block


INFO   : the flag for use of LIBINT has been found!

Your calculation utilizes the atom-pairwise dispersion correction
with the zero-damping scheme (D30)
Cite in your paper:
S.Grimme, J.Antony, S.Ehrlich and H.Krieg, J.Chem.Phys., 132, (2010), 154104 
   

XCFun DFT library Copyright 2009-2010 Ulf Ekstrom and contributors.
See http://admol.org/xcfun for more information. This is free soft-
ware; see the source code for copying conditions. There is ABSOLUTELY
NO WARRANTY; not even for MERCHANTABILITY or FITNESS FOR A PARTICULAR
PURPOSE. For details see the documentation. Scientific users of this 
library should cite U. Ekstrom, L. Visscher, R. Bast, A. J. Thorvald-
sen and K. Ruud; J.Chem.Theor.Comp. 2010, DOI: 10.1021/ct100117s
XCFun Version 0.99 
----- Orbital basis set information -----
Your calculation utilizes the basis: def2-TZVP
   F. Weigend and R. Ahlrichs, Phys. Chem. Chem. Phys. 7, 3297 (2005).

================================================================================
                                        WARNINGS
                       Please study these warnings very carefully!
================================================================================


WARNING: MOInp is set but Guess=PModel. MOInp will be ignored!
         To read the initial guess from a file you must also specify
         'MORead' in the simple input or 'Guess MORead' in the %scf block


INFO   : the flag for use of LIBINT has been found!

================================================================================
                                       INPUT FILE
================================================================================
NAME = 4-117.in
|  1> #Run DFT-D3 single point of the dimer
|  2> ! wB97X-D3 def2-TZVP TIGHTSCF CHELPG PMODEL PAL8
|  3> 
|  4> %base "4-117_DFT_AB"
|  5> 
|  6> %scf
|  7> MaxIter 1000
|  8> end
|  9> 
| 10> * xyz 0 1
| 11>   C                      3.525039             -9.013006            5.976572            
| 12>   O                      4.752287             -9.411188            6.515313            
| 13>   H                      4.589304             -9.839890            7.341963            
| 14>   H                      2.971183             -8.294431            6.716489            
| 15>   H                      3.600566             -8.576698            4.959692            
| 16>   H                      2.900982             -9.866116            5.721810            
| 17>   C                      2.765020             -4.179074            5.805482            
| 18>   O                      3.311683             -5.446056            6.177687            
| 19>   H                      3.331339             -5.364676            7.148464            
| 20>   H                      2.715584             -4.021929            4.701500            
| 21>   H                      1.758848             -4.116859            6.285104            
| 22>   H                      3.338024             -3.374553            6.326295            
| 23> *
| 24> 
| 25> #Run DFT-D3 single point of the molecule with dimer basis set
| 26> $new_job
| 27> %base "4-117_DFT_A"
| 28> ! wB97X-D3 def2-TZVP TIGHTSCF CHELPG PMODEL
| 29> 
| 30> %scf
| 31> MaxIter 1000
| 32> end
| 33> 
| 34> * xyz 0 1
| 35>   C                      3.525039             -9.013006            5.976572            
| 36>   O                      4.752287             -9.411188            6.515313            
| 37>   H                      4.589304             -9.839890            7.341963            
| 38>   H                      2.971183             -8.294431            6.716489            
| 39>   H                      3.600566             -8.576698            4.959692            
| 40>   H                      2.900982             -9.866116            5.721810            
| 41>   C                    : 2.765020             -4.179074            5.805482            
| 42>   O                    : 3.311683             -5.446056            6.177687            
| 43>   H                    : 3.331339             -5.364676            7.148464            
| 44>   H                    : 2.715584             -4.021929            4.701500            
| 45>   H                    : 1.758848             -4.116859            6.285104            
| 46>   H                    : 3.338024             -3.374553            6.326295            
| 47> *
| 48> 
| 49> #Run DFT-D3 single point of the particle with dimer basis set
| 50> $new_job
| 51> %base "4-117_DFT_B"
| 52> ! wB97X-D3 def2-TZVP TIGHTSCF CHELPG PMODEL
| 53> 
| 54> %scf
| 55> MaxIter 1000
| 56> end
| 57> 
| 58> * xyz 0 1
| 59>   C                    : 3.525039             -9.013006            5.976572            
| 60>   O                    : 4.752287             -9.411188            6.515313            
| 61>   H                    : 4.589304             -9.839890            7.341963            
| 62>   H                    : 2.971183             -8.294431            6.716489            
| 63>   H                    : 3.600566             -8.576698            4.959692            
| 64>   H                    : 2.900982             -9.866116            5.721810            
| 65>   C                      2.765020             -4.179074            5.805482            
| 66>   O                      3.311683             -5.446056            6.177687            
| 67>   H                      3.331339             -5.364676            7.148464            
| 68>   H                      2.715584             -4.021929            4.701500            
| 69>   H                      1.758848             -4.116859            6.285104            
| 70>   H                      3.338024             -3.374553            6.326295            
| 71> *
| 72> 
| 73>                          ****END OF INPUT****
================================================================================


                 $$$$$$$$$$$$$$$$$$$$$$$$$$$$$$$$$$$$$$$$$$$$$$ 
                 $ THERE ARE  3 JOBS TO BE PROCESSED THIS RUN $
                 $$$$$$$$$$$$$$$$$$$$$$$$$$$$$$$$$$$$$$$$$$$$$$ 




                 $$$$$$$$$$$$$$$$  JOB NUMBER  1 $$$$$$$$$$$$$$


                       ****************************
                       * Single Point Calculation *
                       ****************************

---------------------------------
CARTESIAN COORDINATES (ANGSTROEM)
---------------------------------
  C      3.525039   -9.013006    5.976572
  O      4.752287   -9.411188    6.515313
  H      4.589304   -9.839890    7.341963
  H      2.971183   -8.294431    6.716489
  H      3.600566   -8.576698    4.959692
  H      2.900982   -9.866116    5.721810
  C      2.765020   -4.179074    5.805482
  O      3.311683   -5.446056    6.177687
  H      3.331339   -5.364676    7.148464
  H      2.715584   -4.021929    4.701500
  H      1.758848   -4.116859    6.285104
  H      3.338024   -3.374553    6.326295

----------------------------
CARTESIAN COORDINATES (A.U.)
----------------------------
  NO LB      ZA    FRAG     MASS         X           Y           Z
   0 C     6.0000    0    12.011    6.661358  -17.032113   11.294084
   1 O     8.0000    0    15.999    8.980521  -17.784568   12.312157
   2 H     1.0000    0     1.008    8.672528  -18.594697   13.874299
   3 H     1.0000    0     1.008    5.614722  -15.674203   12.692325
   4 H     1.0000    0     1.008    6.804084  -16.207610    9.372460
   5 H     1.0000    0     1.008    5.482061  -18.644257   10.812654
   6 C     6.0000    0    12.011    5.225131   -7.897305   10.970771
   7 O     8.0000    0    15.999    6.258174  -10.291554   11.674137
   8 H     1.0000    0     1.008    6.295318  -10.137768   13.508639
   9 H     1.0000    0     1.008    5.131710   -7.600344    8.884547
  10 H     1.0000    0     1.008    3.323741   -7.779736   11.877125
  11 H     1.0000    0     1.008    6.307951   -6.376981   11.954965

--------------------------------
INTERNAL COORDINATES (ANGSTROEM)
--------------------------------
 C      0   0   0     0.000000000000     0.00000000     0.00000000
 O      1   0   0     1.398187549547     0.00000000     0.00000000
 H      2   1   0     0.945356591765   108.34567747     0.00000000
 H      1   2   3     1.170719294387   110.27480521    58.52027691
 H      1   2   3     1.109105014412   113.92451680   185.08037337
 H      1   2   3     1.087266061272   111.75439407   294.56808644
 C      4   1   2     4.220023717240   119.02816256   106.69568345
 O      7   4   1     1.429202709876    20.04641676   290.43358551
 H      8   7   4     0.974380339736   101.13617224   261.99721502
 H      7   4   1     1.116205503232   110.66908490    32.62647716
 H      7   4   1     1.116373621461    90.32269554   146.53226511
 H      7   4   1     1.116617125261   125.23063852   252.53719319

---------------------------
INTERNAL COORDINATES (A.U.)
---------------------------
 C      0   0   0     0.000000000000     0.00000000     0.00000000
 O      1   0   0     2.642191552503     0.00000000     0.00000000
 H      2   1   0     1.786465057333   108.34567747     0.00000000
 H      1   2   3     2.212338846089   110.27480521    58.52027691
 H      1   2   3     2.095904730997   113.92451680   185.08037337
 H      1   2   3     2.054635090511   111.75439407   294.56808644
 C      4   1   2     7.974689104236   119.02816256   106.69568345
 O      7   4   1     2.700801711524    20.04641676   290.43358551
 H      8   7   4     1.841311992379   101.13617224   261.99721502
 H      7   4   1     2.109322710284   110.66908490    32.62647716
 H      7   4   1     2.109640407694    90.32269554   146.53226511
 H      7   4   1     2.110100563190   125.23063852   252.53719319

---------------------
BASIS SET INFORMATION
---------------------
There are 3 groups of distinct atoms

 Group   1 Type C   : 11s6p2d1f contracted to 5s3p2d1f pattern {62111/411/11/1}
 Group   2 Type O   : 11s6p2d1f contracted to 5s3p2d1f pattern {62111/411/11/1}
 Group   3 Type H   : 5s1p contracted to 3s1p pattern {311/1}

Atom   0C    basis set group =>   1
Atom   1O    basis set group =>   2
Atom   2H    basis set group =>   3
Atom   3H    basis set group =>   3
Atom   4H    basis set group =>   3
Atom   5H    basis set group =>   3
Atom   6C    basis set group =>   1
Atom   7O    basis set group =>   2
Atom   8H    basis set group =>   3
Atom   9H    basis set group =>   3
Atom  10H    basis set group =>   3
Atom  11H    basis set group =>   3


           ************************************************************
           *        Program running with 8 parallel MPI-processes     *
           *              working on a common directory               *
           ************************************************************
------------------------------------------------------------------------------
                           ORCA GTO INTEGRAL CALCULATION
------------------------------------------------------------------------------

                         BASIS SET STATISTICS AND STARTUP INFO

 # of primitive gaussian shells          ...  128
 # of primitive gaussian functions       ...  248
 # of contracted shells                  ...   76
 # of contracted basis functions         ...  172
 Highest angular momentum                ...    3
 Maximum contraction depth               ...    6
 Integral package used                   ... LIBINT
 Integral threshhold            Thresh   ...  2.500e-11
 Primitive cut-off              TCut     ...  2.500e-12


------------------------------ INTEGRAL EVALUATION ----------------------------


 * One electron integrals 
 Pre-screening matrix                    ... done
 Shell pair data                         ... done (   0.001 sec)



           ************************************************************
           *        Program running with 8 parallel MPI-processes     *
           *              working on a common directory               *
           ************************************************************
-------------------------------------------------------------------------------
                                 ORCA SCF
-------------------------------------------------------------------------------

------------
SCF SETTINGS
------------
Hamiltonian:
 Density Functional     Method          .... DFT(GTOs)
 Exchange Functional    Exchange        .... WB97X-D3
 Correlation Functional Correlation     .... WB97X-D3
 Gradients option       PostSCFGGA      .... off
 Hybrid DFT is turned on
   Fraction HF Exchange ScalHFX         ....  0.195728
   Scaling of DF-GGA-X  ScalDFX         ....  0.000000
   Scaling of DF-GGA-C  ScalDFC         ....  1.000000
   Scaling of DF-LDA-C  ScalLDAC        ....  1.000000
   Perturbative correction              ....  0.000000
   Density functional embedding theory  .... OFF
 Long-range corrected/Screened/Range-Separated Hybrid DFT is turned on
   Amount of maximum screened exact exchange              ....  0.804272
   Range separation parameter mu (erf(mu*r12)/r12)        ....  0.250000


General Settings:
 Integral files         IntName         .... 4-117_DFT_AB
 Hartree-Fock type      HFTyp           .... RHF
 Total Charge           Charge          ....    0
 Multiplicity           Mult            ....    1
 Number of Electrons    NEL             ....   36
 Basis Dimension        Dim             ....  172
 Nuclear Repulsion      ENuc            ....    118.2830772367 Eh

Convergence Acceleration:
 DIIS                   CNVDIIS         .... on
   Start iteration      DIISMaxIt       ....    12
   Startup error        DIISStart       ....  0.200000
   # of expansion vecs  DIISMaxEq       ....     5
   Bias factor          DIISBfac        ....   1.050
   Max. coefficient     DIISMaxC        ....  10.000
 Newton-Raphson         CNVNR           .... off
 SOSCF                  CNVSOSCF        .... on
   Start iteration      SOSCFMaxIt      ....   150
   Startup grad/error   SOSCFStart      ....  0.003300
 Level Shifting         CNVShift        .... on
   Level shift para.    LevelShift      ....    0.2500
   Turn off err/grad.   ShiftErr        ....    0.0010
 Zerner damping         CNVZerner       .... off
 Static damping         CNVDamp         .... on
   Fraction old density DampFac         ....    0.7000
   Max. Damping (<1)    DampMax         ....    0.9800
   Min. Damping (>=0)   DampMin         ....    0.0000
   Turn off err/grad.   DampErr         ....    0.1000
 Fernandez-Rico         CNVRico         .... off

SCF Procedure:
 Maximum # iterations   MaxIter         ....  1000
 SCF integral mode      SCFMode         .... Direct
   Integral package                     .... LIBINT
 Reset frequency        DirectResetFreq ....    20
 Integral Threshold     Thresh          ....  2.500e-11 Eh
 Primitive CutOff       TCut            ....  2.500e-12 Eh

Convergence Tolerance:
 Convergence Check Mode ConvCheckMode   .... Total+1el-Energy
 Convergence forced     ConvForced      .... 0
 Energy Change          TolE            ....  1.000e-08 Eh
 1-El. energy change                    ....  1.000e-05 Eh
 Orbital Gradient       TolG            ....  1.000e-05
 Orbital Rotation angle TolX            ....  1.000e-05
 DIIS Error             TolErr          ....  5.000e-07


Diagonalization of the overlap matrix:
Smallest eigenvalue                        ... 1.699e-03
Time for diagonalization                   ...    0.004 sec
Threshold for overlap eigenvalues          ... 1.000e-08
Number of eigenvalues below threshold      ... 0
Time for construction of square roots      ...    0.005 sec
Total time needed                          ...    0.009 sec

-------------------
DFT GRID GENERATION
-------------------

General Integration Accuracy     IntAcc      ...  4.340
Radial Grid Type                 RadialGrid  ... Gauss-Chebyshev
Angular Grid (max. acc.)         AngularGrid ... Lebedev-110
Angular grid pruning method      GridPruning ... 3 (G Style)
Weight generation scheme         WeightScheme... Becke
Basis function cutoff            BFCut       ...    1.0000e-11
Integration weight cutoff        WCut        ...    1.0000e-14
Grids for H and He will be reduced by one unit

# of grid points (after initial pruning)     ...  13096 (   0.0 sec)
# of grid points (after weights+screening)   ...  12570 (   0.0 sec)
nearest neighbour list constructed           ...    0.0 sec
Grid point re-assignment to atoms done       ...    0.0 sec
Grid point division into batches done        ...    0.0 sec
Reduced shell lists constructed in    0.0 sec

Total number of grid points                  ...    12570
Total number of batches                      ...      202
Average number of points per batch           ...       62
Average number of grid points per atom       ...     1048
Average number of shells per batch           ...    47.22 (62.13%)
Average number of basis functions per batch  ...   103.81 (60.36%)
Average number of large shells per batch     ...    38.37 (81.25%)
Average number of large basis fcns per batch ...    85.41 (82.27%)
Maximum spatial batch extension              ...  13.18, 15.82, 14.90 au
Average spatial batch extension              ...   0.37,  0.40,  0.38 au

Time for grid setup =    0.036 sec

------------------------------
INITIAL GUESS: MODEL POTENTIAL
------------------------------
Loading Hartree-Fock densities                     ... done
Calculating cut-offs                               ... done
Setting up the integral package                    ... done
Initializing the effective Hamiltonian             ... done
Starting the Coulomb interaction                   ... done (   0.0 sec)
Reading the grid                                   ... done
Mapping shells                                     ... done
Starting the XC term evaluation                    ... done (   0.0 sec)
  promolecular density results
     # of electrons  =     35.998611057
     EX              =    -28.838686923
     EC              =     -1.149238706
     EX+EC           =    -29.987925629
Transforming the Hamiltonian                       ... done (   0.0 sec)
Diagonalizing the Hamiltonian                      ... done (   0.0 sec)
Back transforming the eigenvectors                 ... done (   0.0 sec)
Now organizing SCF variables                       ... done
                      ------------------
                      INITIAL GUESS DONE (   0.1 sec)
                      ------------------
--------------
SCF ITERATIONS
--------------
ITER       Energy         Delta-E        Max-DP      RMS-DP      [F,P]     Damp
               ***  Starting incremental Fock matrix formation  ***
  0   -231.2916441305   0.000000000000 0.03703059  0.00106875  0.2507620 0.7000
  1   -231.3641054384  -0.072461307863 0.02176557  0.00075699  0.1256159 0.7000
                               ***Turning on DIIS***
  2   -231.3970539933  -0.032948554909 0.03433414  0.00135737  0.0521058 0.0000
  3   -231.4504825833  -0.053428590061 0.01756305  0.00049984  0.0608067 0.0000
  4   -231.4594586487  -0.008976065347 0.00410490  0.00010184  0.0061584 0.0000
                      *** Initiating the SOSCF procedure ***
                           *** Shutting down DIIS ***
                      *** Re-Reading the Fockian *** 
                      *** Removing any level shift *** 
ITER      Energy       Delta-E        Grad      Rot      Max-DP    RMS-DP
  5   -231.45964071  -0.0001820582  0.000472  0.000472  0.000826  0.000037
               *** Restarting incremental Fock matrix formation ***
  6   -231.45965794  -0.0000172376  0.000140  0.000193  0.000598  0.000023
  7   -231.45965970  -0.0000017523  0.000056  0.000119  0.000306  0.000011
  8   -231.45965982  -0.0000001242  0.000049  0.000027  0.000070  0.000002
  9   -231.45965988  -0.0000000546  0.000011  0.000009  0.000022  0.000001
                  ***Gradient check signals convergence***
              ***Rediagonalizing the Fockian in SOSCF/NRSCF***

               *****************************************************
               *                     SUCCESS                       *
               *           SCF CONVERGED AFTER  10 CYCLES          *
               *****************************************************

Setting up the final grid:

General Integration Accuracy     IntAcc      ...  4.670
Radial Grid Type                 RadialGrid  ... Gauss-Chebyshev
Angular Grid (max. acc.)         AngularGrid ... Lebedev-302
Angular grid pruning method      GridPruning ... 3 (G Style)
Weight generation scheme         WeightScheme... Becke
Basis function cutoff            BFCut       ...    1.0000e-11
Integration weight cutoff        WCut        ...    1.0000e-14
Grids for H and He will be reduced by one unit

# of grid points (after initial pruning)     ...  52000 (   0.0 sec)
# of grid points (after weights+screening)   ...  49424 (   0.0 sec)
nearest neighbour list constructed           ...    0.0 sec
Grid point re-assignment to atoms done       ...    0.0 sec
Grid point division into batches done        ...    0.2 sec
Reduced shell lists constructed in    0.2 sec

Total number of grid points                  ...    49424
Total number of batches                      ...      779
Average number of points per batch           ...       63
Average number of grid points per atom       ...     4119
Average number of shells per batch           ...    45.31 (59.62%)
Average number of basis functions per batch  ...    99.09 (57.61%)
Average number of large shells per batch     ...    36.33 (80.18%)
Average number of large basis fcns per batch ...    81.28 (82.03%)
Maximum spatial batch extension              ...  15.72, 17.16, 14.53 au
Average spatial batch extension              ...   0.24,  0.26,  0.25 au

Final grid set up in    0.3 sec
Final integration                            ... done (   0.1 sec)
Change in XC energy                          ...    -0.000416393
Integrated number of electrons               ...    36.000009060
Previous integrated no of electrons          ...    35.999591511

----------------
TOTAL SCF ENERGY
----------------

Total Energy       :         -231.46007627 Eh           -6298.34888 eV

Components:
Nuclear Repulsion  :          118.28307724 Eh            3218.64616 eV
Electronic Energy  :         -349.74315351 Eh           -9516.99504 eV
One Electron Energy:         -549.58324556 Eh          -14954.92041 eV
Two Electron Energy:          199.84009205 Eh            5437.92536 eV

Virial components:
Potential Energy   :         -461.78458375 Eh          -12565.79736 eV
Kinetic Energy     :          230.32450747 Eh            6267.44848 eV
Virial Ratio       :            2.00493030


DFT components:
N(Alpha)           :       18.000004529903 electrons
N(Beta)            :       18.000004529903 electrons
N(Total)           :       36.000009059806 electrons
E(XC)              :      -21.268814954575 Eh       
DFET-embed. en.    :        0.000000000000 Eh       

---------------
SCF CONVERGENCE
---------------

  Last Energy change         ...   -3.2386e-09  Tolerance :   1.0000e-08
  Last MAX-Density change    ...    5.9556e-06  Tolerance :   1.0000e-07
  Last RMS-Density change    ...    2.0918e-07  Tolerance :   5.0000e-09
  Last Orbital Gradient      ...    2.3332e-06  Tolerance :   1.0000e-05
  Last Orbital Rotation      ...    3.0291e-06  Tolerance :   1.0000e-05

             **** THE GBW FILE WAS UPDATED (4-117_DFT_AB.gbw) ****
             **** DENSITY FILE WAS UPDATED (4-117_DFT_AB.scfp.tmp) ****
             **** ENERGY FILE WAS UPDATED (4-117_DFT_AB.en.tmp) ****
----------------
ORBITAL ENERGIES
----------------

  NO   OCC          E(Eh)            E(eV) 
   0   2.0000     -19.232886      -523.3534 
   1   2.0000     -19.221260      -523.0371 
   2   2.0000     -10.322768      -280.8968 
   3   2.0000     -10.308467      -280.5077 
   4   2.0000      -1.135451       -30.8972 
   5   2.0000      -1.134579       -30.8735 
   6   2.0000      -0.786236       -21.3946 
   7   2.0000      -0.780594       -21.2410 
   8   2.0000      -0.607435       -16.5292 
   9   2.0000      -0.602476       -16.3942 
  10   2.0000      -0.536194       -14.5906 
  11   2.0000      -0.534196       -14.5362 
  12   2.0000      -0.527536       -14.3550 
  13   2.0000      -0.513316       -13.9680 
  14   2.0000      -0.443822       -12.0770 
  15   2.0000      -0.415400       -11.3036 
  16   2.0000      -0.369902       -10.0655 
  17   2.0000      -0.361856        -9.8466 
  18   0.0000       0.102624         2.7925 
  19   0.0000       0.126831         3.4513 
  20   0.0000       0.152841         4.1590 
  21   0.0000       0.168408         4.5826 
  22   0.0000       0.191741         5.2175 
  23   0.0000       0.196964         5.3597 
  24   0.0000       0.211263         5.7488 
  25   0.0000       0.215455         5.8628 
  26   0.0000       0.225615         6.1393 
  27   0.0000       0.237309         6.4575 
  28   0.0000       0.301143         8.1945 
  29   0.0000       0.308800         8.4029 
  30   0.0000       0.328880         8.9493 
  31   0.0000       0.351016         9.5516 
  32   0.0000       0.398238        10.8366 
  33   0.0000       0.417157        11.3514 
  34   0.0000       0.442054        12.0289 
  35   0.0000       0.465525        12.6676 
  36   0.0000       0.485066        13.1993 
  37   0.0000       0.511140        13.9088 
  38   0.0000       0.521144        14.1811 
  39   0.0000       0.534424        14.5424 
  40   0.0000       0.545262        14.8373 
  41   0.0000       0.553618        15.0647 
  42   0.0000       0.573421        15.6036 
  43   0.0000       0.579163        15.7598 
  44   0.0000       0.597773        16.2662 
  45   0.0000       0.611366        16.6361 
  46   0.0000       0.629075        17.1180 
  47   0.0000       0.658896        17.9295 
  48   0.0000       0.676436        18.4067 
  49   0.0000       0.719701        19.5841 
  50   0.0000       0.784341        21.3430 
  51   0.0000       0.806335        21.9415 
  52   0.0000       0.813169        22.1275 
  53   0.0000       0.849795        23.1241 
  54   0.0000       0.866674        23.5834 
  55   0.0000       0.931494        25.3472 
  56   0.0000       0.981579        26.7101 
  57   0.0000       1.009354        27.4659 
  58   0.0000       1.017805        27.6959 
  59   0.0000       1.045984        28.4627 
  60   0.0000       1.113712        30.3057 
  61   0.0000       1.146054        31.1857 
  62   0.0000       1.369644        37.2699 
  63   0.0000       1.403002        38.1776 
  64   0.0000       1.486525        40.4504 
  65   0.0000       1.520962        41.3875 
  66   0.0000       1.551585        42.2208 
  67   0.0000       1.565690        42.6046 
  68   0.0000       1.578750        42.9600 
  69   0.0000       1.609315        43.7917 
  70   0.0000       1.618649        44.0457 
  71   0.0000       1.634754        44.4839 
  72   0.0000       1.643838        44.7311 
  73   0.0000       1.655621        45.0517 
  74   0.0000       1.671957        45.4963 
  75   0.0000       1.696957        46.1765 
  76   0.0000       1.703961        46.3671 
  77   0.0000       1.739699        47.3396 
  78   0.0000       1.799200        48.9587 
  79   0.0000       1.808317        49.2068 
  80   0.0000       1.966624        53.5146 
  81   0.0000       1.994913        54.2843 
  82   0.0000       2.001130        54.4535 
  83   0.0000       2.015478        54.8439 
  84   0.0000       2.042234        55.5720 
  85   0.0000       2.067488        56.2592 
  86   0.0000       2.099964        57.1429 
  87   0.0000       2.113128        57.5011 
  88   0.0000       2.132663        58.0327 
  89   0.0000       2.162936        58.8565 
  90   0.0000       2.224839        60.5410 
  91   0.0000       2.274563        61.8940 
  92   0.0000       2.321303        63.1659 
  93   0.0000       2.338326        63.6291 
  94   0.0000       2.343422        63.7678 
  95   0.0000       2.358793        64.1860 
  96   0.0000       2.365322        64.3637 
  97   0.0000       2.383406        64.8558 
  98   0.0000       2.413831        65.6837 
  99   0.0000       2.480225        67.4904 
 100   0.0000       2.484263        67.6002 
 101   0.0000       2.508609        68.2627 
 102   0.0000       2.588726        70.4428 
 103   0.0000       2.593038        70.5601 
 104   0.0000       2.606802        70.9347 
 105   0.0000       2.697890        73.4133 
 106   0.0000       2.733567        74.3841 
 107   0.0000       2.756861        75.0180 
 108   0.0000       2.807620        76.3992 
 109   0.0000       2.824693        76.8638 
 110   0.0000       2.845151        77.4205 
 111   0.0000       2.898751        78.8790 
 112   0.0000       2.904009        79.0221 
 113   0.0000       2.928715        79.6944 
 114   0.0000       2.984035        81.1997 
 115   0.0000       3.021185        82.2106 
 116   0.0000       3.091610        84.1270 
 117   0.0000       3.117139        84.8217 
 118   0.0000       3.134022        85.2811 
 119   0.0000       3.167716        86.1979 
 120   0.0000       3.262987        88.7904 
 121   0.0000       3.282548        89.3227 
 122   0.0000       3.365559        91.5815 
 123   0.0000       3.376950        91.8915 
 124   0.0000       3.421979        93.1168 
 125   0.0000       3.436006        93.4985 
 126   0.0000       3.476643        94.6043 
 127   0.0000       3.490247        94.9745 
 128   0.0000       3.588123        97.6378 
 129   0.0000       3.609736        98.2259 
 130   0.0000       3.626884        98.6925 
 131   0.0000       3.656776        99.5059 
 132   0.0000       3.665011        99.7300 
 133   0.0000       3.699469       100.6677 
 134   0.0000       4.024698       109.5176 
 135   0.0000       4.042409       109.9996 
 136   0.0000       4.086733       111.2056 
 137   0.0000       4.153394       113.0196 
 138   0.0000       4.235099       115.2429 
 139   0.0000       4.324162       117.6664 
 140   0.0000       4.393047       119.5409 
 141   0.0000       4.406302       119.9016 
 142   0.0000       4.565671       124.2382 
 143   0.0000       4.594039       125.0102 
 144   0.0000       5.358352       145.8082 
 145   0.0000       5.361533       145.8947 
 146   0.0000       5.451978       148.3559 
 147   0.0000       5.472276       148.9082 
 148   0.0000       5.517230       150.1315 
 149   0.0000       5.569511       151.5541 
 150   0.0000       5.718529       155.6091 
 151   0.0000       5.794932       157.6881 
 152   0.0000       5.846311       159.0862 
 153   0.0000       5.856232       159.3562 
 154   0.0000       5.996709       163.1787 
 155   0.0000       6.018861       163.7815 
 156   0.0000       6.293695       171.2602 
 157   0.0000       6.414433       174.5456 
 158   0.0000       6.536071       177.8555 
 159   0.0000       6.542342       178.0262 
 160   0.0000       6.758163       183.8990 
 161   0.0000       6.785302       184.6375 
 162   0.0000       6.807047       185.2292 
 163   0.0000       6.827523       185.7863 
 164   0.0000       7.018571       190.9850 
 165   0.0000       7.048320       191.7945 
 166   0.0000       7.234038       196.8482 
 167   0.0000       7.241675       197.0560 
 168   0.0000      22.271382       606.0351 
 169   0.0000      22.354533       608.2978 
 170   0.0000      43.637693      1187.4420 
 171   0.0000      43.711653      1189.4546 

                    ********************************
                    * MULLIKEN POPULATION ANALYSIS *
                    ********************************

-----------------------
MULLIKEN ATOMIC CHARGES
-----------------------
   0 C :   -0.156258
   1 O :   -0.467285
   2 H :    0.312922
   3 H :    0.085022
   4 H :    0.122244
   5 H :    0.096512
   6 C :   -0.182258
   7 O :   -0.457607
   8 H :    0.314972
   9 H :    0.128076
  10 H :    0.101020
  11 H :    0.102639
Sum of atomic charges:    0.0000000

--------------------------------
MULLIKEN REDUCED ORBITAL CHARGES
--------------------------------
  0 C s       :     3.227688  s :     3.227688
      pz      :     1.031133  p :     2.823676
      px      :     0.763921
      py      :     1.028622
      dz2     :     0.022915  d :     0.097029
      dxz     :     0.017773
      dyz     :     0.012460
      dx2y2   :     0.015667
      dxy     :     0.028215
      f0      :     0.000475  f :     0.007865
      f+1     :     0.001498
      f-1     :     0.000569
      f+2     :     0.001095
      f-2     :     0.001165
      f+3     :     0.001801
      f-3     :     0.001261
  1 O s       :     3.787356  s :     3.787356
      pz      :     1.418824  p :     4.647754
      px      :     1.477080
      py      :     1.751850
      dz2     :     0.006909  d :     0.030457
      dxz     :     0.006120
      dyz     :     0.004848
      dx2y2   :     0.007169
      dxy     :     0.005411
      f0      :     0.000181  f :     0.001719
      f+1     :     0.000147
      f-1     :     0.000546
      f+2     :     0.000209
      f-2     :     0.000249
      f+3     :     0.000176
      f-3     :     0.000211
  2 H s       :     0.637993  s :     0.637993
      pz      :     0.018875  p :     0.049085
      px      :     0.011722
      py      :     0.018488
  3 H s       :     0.897683  s :     0.897683
      pz      :     0.005884  p :     0.017294
      px      :     0.004455
      py      :     0.006956
  4 H s       :     0.857706  s :     0.857706
      pz      :     0.011421  p :     0.020051
      px      :     0.002721
      py      :     0.005908
  5 H s       :     0.883554  s :     0.883554
      pz      :     0.005155  p :     0.019934
      px      :     0.006031
      py      :     0.008748
  6 C s       :     3.246456  s :     3.246456
      pz      :     1.071898  p :     2.832459
      px      :     0.998426
      py      :     0.762134
      dz2     :     0.015855  d :     0.095992
      dxz     :     0.010303
      dyz     :     0.021474
      dx2y2   :     0.026066
      dxy     :     0.022294
      f0      :     0.001258  f :     0.007351
      f+1     :     0.000214
      f-1     :     0.000975
      f+2     :     0.000704
      f-2     :     0.000657
      f+3     :     0.001475
      f-3     :     0.002068
  7 O s       :     3.814749  s :     3.814749
      pz      :     1.320089  p :     4.610147
      px      :     1.827547
      py      :     1.462510
      dz2     :     0.013039  d :     0.031160
      dxz     :     0.001323
      dyz     :     0.004215
      dx2y2   :     0.006324
      dxy     :     0.006259
      f0      :     0.000610  f :     0.001551
      f+1     :     0.000082
      f-1     :     0.000080
      f+2     :     0.000103
      f-2     :     0.000112
      f+3     :     0.000318
      f-3     :     0.000246
  8 H s       :     0.639342  s :     0.639342
      pz      :     0.018113  p :     0.045686
      px      :     0.016004
      py      :     0.011569
  9 H s       :     0.852584  s :     0.852584
      pz      :     0.012841  p :     0.019340
      px      :     0.003728
      py      :     0.002771
 10 H s       :     0.880236  s :     0.880236
      pz      :     0.004866  p :     0.018744
      px      :     0.010722
      py      :     0.003156
 11 H s       :     0.878622  s :     0.878622
      pz      :     0.005235  p :     0.018738
      px      :     0.006027
      py      :     0.007477


                     *******************************
                     * LOEWDIN POPULATION ANALYSIS *
                     *******************************

----------------------
LOEWDIN ATOMIC CHARGES
----------------------
   0 C :   -0.411464
   1 O :   -0.061061
   2 H :    0.159973
   3 H :    0.103068
   4 H :    0.113757
   5 H :    0.088008
   6 C :   -0.386532
   7 O :   -0.093360
   8 H :    0.179809
   9 H :    0.112641
  10 H :    0.097340
  11 H :    0.097823

-------------------------------
LOEWDIN REDUCED ORBITAL CHARGES
-------------------------------
  0 C s       :     2.874933  s :     2.874933
      pz      :     1.061275  p :     3.055760
      px      :     0.904131
      py      :     1.090355
      dz2     :     0.077335  d :     0.422165
      dxz     :     0.085792
      dyz     :     0.056060
      dx2y2   :     0.071225
      dxy     :     0.131753
      f0      :     0.005168  f :     0.058605
      f+1     :     0.012244
      f-1     :     0.002897
      f+2     :     0.009587
      f-2     :     0.006442
      f+3     :     0.013159
      f-3     :     0.009109
  1 O s       :     3.351404  s :     3.351404
      pz      :     1.416417  p :     4.630964
      px      :     1.541961
      py      :     1.672586
      dz2     :     0.017467  d :     0.073811
      dxz     :     0.014531
      dyz     :     0.012198
      dx2y2   :     0.015837
      dxy     :     0.013778
      f0      :     0.000375  f :     0.004882
      f+1     :     0.000933
      f-1     :     0.000906
      f+2     :     0.000612
      f-2     :     0.000628
      f+3     :     0.000713
      f-3     :     0.000716
  2 H s       :     0.675917  s :     0.675917
      pz      :     0.071540  p :     0.164111
      px      :     0.037630
      py      :     0.054941
  3 H s       :     0.847827  s :     0.847827
      pz      :     0.017475  p :     0.049105
      px      :     0.012348
      py      :     0.019282
  4 H s       :     0.828152  s :     0.828152
      pz      :     0.032855  p :     0.058091
      px      :     0.008387
      py      :     0.016849
  5 H s       :     0.849847  s :     0.849847
      pz      :     0.015747  p :     0.062145
      px      :     0.018527
      py      :     0.027871
  6 C s       :     2.884979  s :     2.884979
      pz      :     1.090706  p :     3.045658
      px      :     1.063809
      py      :     0.891144
      dz2     :     0.081869  d :     0.401506
      dxz     :     0.031135
      dyz     :     0.070236
      dx2y2   :     0.115626
      dxy     :     0.102640
      f0      :     0.004924  f :     0.054388
      f+1     :     0.001650
      f-1     :     0.007005
      f+2     :     0.009071
      f-2     :     0.008757
      f+3     :     0.010717
      f-3     :     0.012264
  7 O s       :     3.395988  s :     3.395988
      pz      :     1.339430  p :     4.623550
      px      :     1.758437
      py      :     1.525682
      dz2     :     0.026603  d :     0.069262
      dxz     :     0.002760
      dyz     :     0.010604
      dx2y2   :     0.014568
      dxy     :     0.014727
      f0      :     0.001547  f :     0.004560
      f+1     :     0.000110
      f-1     :     0.000627
      f+2     :     0.000341
      f-2     :     0.000371
      f+3     :     0.000731
      f-3     :     0.000833
  8 H s       :     0.669203  s :     0.669203
      pz      :     0.075908  p :     0.150989
      px      :     0.041969
      py      :     0.033111
  9 H s       :     0.830698  s :     0.830698
      pz      :     0.037194  p :     0.056661
      px      :     0.011075
      py      :     0.008392
 10 H s       :     0.845493  s :     0.845493
      pz      :     0.015788  p :     0.057167
      px      :     0.032001
      py      :     0.009378
 11 H s       :     0.844890  s :     0.844890
      pz      :     0.016558  p :     0.057287
      px      :     0.018209
      py      :     0.022520


                      *****************************
                      * MAYER POPULATION ANALYSIS *
                      *****************************

  NA   - Mulliken gross atomic population
  ZA   - Total nuclear charge
  QA   - Mulliken gross atomic charge
  VA   - Mayer's total valence
  BVA  - Mayer's bonded valence
  FA   - Mayer's free valence

  ATOM       NA         ZA         QA         VA         BVA        FA
  0 C      6.1563     6.0000    -0.1563     3.9251     3.9251     0.0000
  1 O      8.4673     8.0000    -0.4673     1.8903     1.8903     0.0000
  2 H      0.6871     1.0000     0.3129     0.9130     0.9130    -0.0000
  3 H      0.9150     1.0000     0.0850     0.9784     0.9784     0.0000
  4 H      0.8778     1.0000     0.1222     0.9613     0.9613     0.0000
  5 H      0.9035     1.0000     0.0965     0.9500     0.9500     0.0000
  6 C      6.1823     6.0000    -0.1823     3.9258     3.9258     0.0000
  7 O      8.4576     8.0000    -0.4576     1.8895     1.8895    -0.0000
  8 H      0.6850     1.0000     0.3150     0.9087     0.9087     0.0000
  9 H      0.8719     1.0000     0.1281     0.9651     0.9651    -0.0000
 10 H      0.8990     1.0000     0.1010     0.9596     0.9596    -0.0000
 11 H      0.8974     1.0000     0.1026     0.9595     0.9595    -0.0000

  Mayer bond orders larger than 0.1
B(  0-C ,  1-O ) :   0.9967 B(  0-C ,  3-H ) :   0.9769 B(  0-C ,  4-H ) :   0.9720 
B(  0-C ,  5-H ) :   0.9721 B(  1-O ,  2-H ) :   0.9010 B(  6-C ,  7-O ) :   0.9881 
B(  6-C ,  9-H ) :   0.9689 B(  6-C , 10-H ) :   0.9789 B(  6-C , 11-H ) :   0.9770 
B(  7-O ,  8-H ) :   0.8983 

-------
TIMINGS
-------

Total SCF time: 0 days 0 hours 0 min 22 sec 

Total time                  ....      22.927 sec
Sum of individual times     ....      22.497 sec  ( 98.1%)

Fock matrix formation       ....      21.818 sec  ( 95.2%)
  XC integration            ....      12.902 sec  ( 59.1% of F)
    Basis function eval.    ....       0.059 sec  (  0.5% of XC)
    Density eval.           ....       0.215 sec  (  1.7% of XC)
    XC-Functional eval.     ....       0.135 sec  (  1.0% of XC)
    XC-Potential eval.      ....       0.064 sec  (  0.5% of XC)
Diagonalization             ....       0.107 sec  (  0.5%)
Density matrix formation    ....       0.009 sec  (  0.0%)
Population analysis         ....       0.031 sec  (  0.1%)
Initial guess               ....       0.094 sec  (  0.4%)
Orbital Transformation      ....       0.000 sec  (  0.0%)
Orbital Orthonormalization  ....       0.000 sec  (  0.0%)
DIIS solution               ....       0.064 sec  (  0.3%)
SOSCF solution              ....       0.077 sec  (  0.3%)
Grid generation             ....       0.297 sec  (  1.3%)


-------------------------------------------------------------------------------
                          DFT DISPERSION CORRECTION                            
                                                                               
                              DFTD3 V3.1  Rev 1                                
                              USING zero damping                               
-------------------------------------------------------------------------------
The omegaB97X-D3 functional is recognized. Fit by Chai et al.
Active option DFTDOPT                   ...         3   

molecular C6(AA) [au] = 835.304023 


            DFT-D V3
 parameters
 s6 scaling factor         :     1.0000 
 rs6 scaling factor        :     1.2810 
 s8 scaling factor         :     1.0000 
 rs8 scaling factor        :     1.0940 
 Damping factor alpha6     :    14.0000 
 Damping factor alpha8     :    16.0000 
 ad hoc parameters k1-k3   :    16.0000     1.3333    -4.0000 

 Edisp/kcal,au: -0.781164472090  -0.001244864693 
 E6   /kcal   :  -0.364675036 
 E8   /kcal   :  -0.416489436 
 % E8         :  53.316484618 

-------------------------   ----------------
Dispersion correction           -0.001244865
-------------------------   ----------------


-------------------------   --------------------
FINAL SINGLE POINT ENERGY      -231.461321136829
-------------------------   --------------------


                            ***************************************
                            *     ORCA property calculations      *
                            ***************************************

                                    ---------------------
                                    Active property flags
                                    ---------------------
   (+) Dipole Moment


------------------------------------------------------------------------------
                       ORCA ELECTRIC PROPERTIES CALCULATION
------------------------------------------------------------------------------

Dipole Moment Calculation                       ... on
Quadrupole Moment Calculation                   ... off
Polarizability Calculation                      ... off
GBWName                                         ... 4-117_DFT_AB.gbw
Electron density file                           ... 4-117_DFT_AB.scfp.tmp
The origin for moment calculation is the CENTER OF MASS  = ( 6.781500, -13.270720 11.623818)

-------------
DIPOLE MOMENT
-------------
                                X             Y             Z
Electronic contribution:      2.51464      -2.07983       0.70552
Nuclear contribution   :     -3.27341       2.54485      -0.00093
                        -----------------------------------------
Total Dipole Moment    :     -0.75877       0.46502       0.70459
                        -----------------------------------------
Magnitude (a.u.)       :      1.13508
Magnitude (Debye)      :      2.88515



--------------------
Rotational spectrum 
--------------------
 
Rotational constants in cm-1:     0.781453     0.046717     0.045261 
Rotational constants in MHz : 23427.365005  1400.528860  1356.889867 

 Dipole components along the rotational axes: 
x,y,z [a.u.] :    -0.596436    -0.090767    -0.961476 
x,y,z [Debye]:    -1.516019    -0.230711    -2.443878 

 
------------------------------------------------------------------------------
                      ORCA CHELPG CHARGES GENERATION
------------------------------------------------------------------------------

GBW file                           ... 4-117_DFT_AB.gbw

Reading the GBW file               ... done

Grid spacing                       ...     0.300000
Point Cut-Off                      ...     2.800000
Van-der-Waals Radii                ...        COSMO
Total charge                       ...            0


Number of points X direction       ...           28
Number of points Y direction       ...           40
Number of points Z direction       ...           27
Maximum number of possible points  ...        30240
Final number of points             ...        10671


CHELPG Charges            
--------------------------------
  0   C   :       0.075580
  1   O   :      -0.616576
  2   H   :       0.414781
  3   H   :      -0.007737
  4   H   :       0.111507
  5   H   :       0.009489
  6   C   :      -0.117630
  7   O   :      -0.536901
  8   H   :       0.416054
  9   H   :       0.140510
 10   H   :       0.054629
 11   H   :       0.056294
--------------------------------
Total charge:     0.000000
--------------------------------

CHELPG charges calculated...

Timings for individual parts in CHELPG calculation:
Grid generation                 ...        0.001 sec (=   0.000 min)
Potential calculation           ...        2.183 sec (=   0.036 min)
Fit to the potential            ...        0.004 sec (=   0.000 min)
------------------------------------------------------------------------------


Timings for individual modules:

Sum of individual times         ...       29.130 sec (=   0.486 min)
GTO integral calculation        ...        2.735 sec (=   0.046 min)   9.4 %
SCF iterations                  ...       23.960 sec (=   0.399 min)  82.3 %
CHELPG charge generation        ...        2.435 sec (=   0.041 min)   8.4 %


                 $$$$$$$$$$$$$$$$  JOB NUMBER  2 $$$$$$$$$$$$$$


                       ****************************
                       * Single Point Calculation *
                       ****************************

---------------------------------
CARTESIAN COORDINATES (ANGSTROEM)
---------------------------------
  C      3.525039   -9.013006    5.976572
  O      4.752287   -9.411188    6.515313
  H      4.589304   -9.839890    7.341963
  H      2.971183   -8.294431    6.716489
  H      3.600566   -8.576698    4.959692
  H      2.900982   -9.866116    5.721810
  C      2.765020   -4.179074    5.805482
  O      3.311683   -5.446056    6.177687
  H      3.331339   -5.364676    7.148464
  H      2.715584   -4.021929    4.701500
  H      1.758848   -4.116859    6.285104
  H      3.338024   -3.374553    6.326295

----------------------------
CARTESIAN COORDINATES (A.U.)
----------------------------
  NO LB      ZA    FRAG     MASS         X           Y           Z
   0 C     6.0000    0    12.011    6.661358  -17.032113   11.294084
   1 O     8.0000    0    15.999    8.980521  -17.784568   12.312157
   2 H     1.0000    0     1.008    8.672528  -18.594697   13.874299
   3 H     1.0000    0     1.008    5.614722  -15.674203   12.692325
   4 H     1.0000    0     1.008    6.804084  -16.207610    9.372460
   5 H     1.0000    0     1.008    5.482061  -18.644257   10.812654
   6 C     0.0000    0     0.000    5.225131   -7.897305   10.970771
   7 O     0.0000    0     0.000    6.258174  -10.291554   11.674137
   8 H     0.0000    0     0.000    6.295318  -10.137768   13.508639
   9 H     0.0000    0     0.000    5.131710   -7.600344    8.884547
  10 H     0.0000    0     0.000    3.323741   -7.779736   11.877125
  11 H     0.0000    0     0.000    6.307951   -6.376981   11.954965

--------------------------------
INTERNAL COORDINATES (ANGSTROEM)
--------------------------------
 C      0   0   0     0.000000000000     0.00000000     0.00000000
 O      1   0   0     1.398187549547     0.00000000     0.00000000
 H      2   1   0     0.945356591765   108.34567747     0.00000000
 H      1   2   3     1.170719294387   110.27480521    58.52027691
 H      1   2   3     1.109105014412   113.92451680   185.08037337
 H      1   2   3     1.087266061272   111.75439407   294.56808644
 C      4   1   2     4.220023717240   119.02816256   106.69568345
 O      7   4   1     1.429202709876    20.04641676   290.43358551
 H      8   7   4     0.974380339736   101.13617224   261.99721502
 H      7   4   1     1.116205503232   110.66908490    32.62647716
 H      7   4   1     1.116373621461    90.32269554   146.53226511
 H      7   4   1     1.116617125261   125.23063852   252.53719319

---------------------------
INTERNAL COORDINATES (A.U.)
---------------------------
 C      0   0   0     0.000000000000     0.00000000     0.00000000
 O      1   0   0     2.642191552503     0.00000000     0.00000000
 H      2   1   0     1.786465057333   108.34567747     0.00000000
 H      1   2   3     2.212338846089   110.27480521    58.52027691
 H      1   2   3     2.095904730997   113.92451680   185.08037337
 H      1   2   3     2.054635090511   111.75439407   294.56808644
 C      4   1   2     7.974689104236   119.02816256   106.69568345
 O      7   4   1     2.700801711524    20.04641676   290.43358551
 H      8   7   4     1.841311992379   101.13617224   261.99721502
 H      7   4   1     2.109322710284   110.66908490    32.62647716
 H      7   4   1     2.109640407694    90.32269554   146.53226511
 H      7   4   1     2.110100563190   125.23063852   252.53719319

---------------------
BASIS SET INFORMATION
---------------------
There are 3 groups of distinct atoms

 Group   1 Type C   : 11s6p2d1f contracted to 5s3p2d1f pattern {62111/411/11/1}
 Group   2 Type O   : 11s6p2d1f contracted to 5s3p2d1f pattern {62111/411/11/1}
 Group   3 Type H   : 5s1p contracted to 3s1p pattern {311/1}

Atom   0C    basis set group =>   1
Atom   1O    basis set group =>   2
Atom   2H    basis set group =>   3
Atom   3H    basis set group =>   3
Atom   4H    basis set group =>   3
Atom   5H    basis set group =>   3
Atom   6C    basis set group =>   1
Atom   7O    basis set group =>   2
Atom   8H    basis set group =>   3
Atom   9H    basis set group =>   3
Atom  10H    basis set group =>   3
Atom  11H    basis set group =>   3


           ************************************************************
           *        Program running with 8 parallel MPI-processes     *
           *              working on a common directory               *
           ************************************************************
------------------------------------------------------------------------------
                           ORCA GTO INTEGRAL CALCULATION
------------------------------------------------------------------------------

                         BASIS SET STATISTICS AND STARTUP INFO

 # of primitive gaussian shells          ...  128
 # of primitive gaussian functions       ...  248
 # of contracted shells                  ...   76
 # of contracted basis functions         ...  172
 Highest angular momentum                ...    3
 Maximum contraction depth               ...    6
 Integral package used                   ... LIBINT
 Integral threshhold            Thresh   ...  2.500e-11
 Primitive cut-off              TCut     ...  2.500e-12


------------------------------ INTEGRAL EVALUATION ----------------------------


 * One electron integrals 
 Pre-screening matrix                    ... done
 Shell pair data                         ... done (   0.001 sec)



           ************************************************************
           *        Program running with 8 parallel MPI-processes     *
           *              working on a common directory               *
           ************************************************************
-------------------------------------------------------------------------------
                                 ORCA SCF
-------------------------------------------------------------------------------

------------
SCF SETTINGS
------------
Hamiltonian:
 Density Functional     Method          .... DFT(GTOs)
 Exchange Functional    Exchange        .... WB97X-D3
 Correlation Functional Correlation     .... WB97X-D3
 Gradients option       PostSCFGGA      .... off
 Hybrid DFT is turned on
   Fraction HF Exchange ScalHFX         ....  0.195728
   Scaling of DF-GGA-X  ScalDFX         ....  0.000000
   Scaling of DF-GGA-C  ScalDFC         ....  1.000000
   Scaling of DF-LDA-C  ScalLDAC        ....  1.000000
   Perturbative correction              ....  0.000000
   Density functional embedding theory  .... OFF
 Long-range corrected/Screened/Range-Separated Hybrid DFT is turned on
   Amount of maximum screened exact exchange              ....  0.804272
   Range separation parameter mu (erf(mu*r12)/r12)        ....  0.250000


General Settings:
 Integral files         IntName         .... 4-117_DFT_A
 Hartree-Fock type      HFTyp           .... RHF
 Total Charge           Charge          ....    0
 Multiplicity           Mult            ....    1
 Number of Electrons    NEL             ....   18
 Basis Dimension        Dim             ....  172
 Nuclear Repulsion      ENuc            ....     40.3809733117 Eh

Convergence Acceleration:
 DIIS                   CNVDIIS         .... on
   Start iteration      DIISMaxIt       ....    12
   Startup error        DIISStart       ....  0.200000
   # of expansion vecs  DIISMaxEq       ....     5
   Bias factor          DIISBfac        ....   1.050
   Max. coefficient     DIISMaxC        ....  10.000
 Newton-Raphson         CNVNR           .... off
 SOSCF                  CNVSOSCF        .... on
   Start iteration      SOSCFMaxIt      ....   150
   Startup grad/error   SOSCFStart      ....  0.003300
 Level Shifting         CNVShift        .... on
   Level shift para.    LevelShift      ....    0.2500
   Turn off err/grad.   ShiftErr        ....    0.0010
 Zerner damping         CNVZerner       .... off
 Static damping         CNVDamp         .... on
   Fraction old density DampFac         ....    0.7000
   Max. Damping (<1)    DampMax         ....    0.9800
   Min. Damping (>=0)   DampMin         ....    0.0000
   Turn off err/grad.   DampErr         ....    0.1000
 Fernandez-Rico         CNVRico         .... off

SCF Procedure:
 Maximum # iterations   MaxIter         ....  1000
 SCF integral mode      SCFMode         .... Direct
   Integral package                     .... LIBINT
 Reset frequency        DirectResetFreq ....    20
 Integral Threshold     Thresh          ....  2.500e-11 Eh
 Primitive CutOff       TCut            ....  2.500e-12 Eh

Convergence Tolerance:
 Convergence Check Mode ConvCheckMode   .... Total+1el-Energy
 Convergence forced     ConvForced      .... 0
 Energy Change          TolE            ....  1.000e-08 Eh
 1-El. energy change                    ....  1.000e-05 Eh
 Orbital Gradient       TolG            ....  1.000e-05
 Orbital Rotation angle TolX            ....  1.000e-05
 DIIS Error             TolErr          ....  5.000e-07


Diagonalization of the overlap matrix:
Smallest eigenvalue                        ... 1.699e-03
Time for diagonalization                   ...    0.004 sec
Threshold for overlap eigenvalues          ... 1.000e-08
Number of eigenvalues below threshold      ... 0
Time for construction of square roots      ...    0.009 sec
Total time needed                          ...    0.013 sec

-------------------
DFT GRID GENERATION
-------------------

General Integration Accuracy     IntAcc      ...  4.340
Radial Grid Type                 RadialGrid  ... Gauss-Chebyshev
Angular Grid (max. acc.)         AngularGrid ... Lebedev-110
Angular grid pruning method      GridPruning ... 3 (G Style)
Weight generation scheme         WeightScheme... Becke
Basis function cutoff            BFCut       ...    1.0000e-11
Integration weight cutoff        WCut        ...    1.0000e-14
Grids for H and He will be reduced by one unit

# of grid points (after initial pruning)     ...  13096 (   0.0 sec)
# of grid points (after weights+screening)   ...  12570 (   0.0 sec)
nearest neighbour list constructed           ...    0.0 sec
Grid point re-assignment to atoms done       ...    0.0 sec
Grid point division into batches done        ...    0.0 sec
Reduced shell lists constructed in    0.0 sec

Total number of grid points                  ...    12570
Total number of batches                      ...      202
Average number of points per batch           ...       62
Average number of grid points per atom       ...     1048
Average number of shells per batch           ...    47.22 (62.13%)
Average number of basis functions per batch  ...   103.81 (60.36%)
Average number of large shells per batch     ...    38.37 (81.25%)
Average number of large basis fcns per batch ...    85.41 (82.27%)
Maximum spatial batch extension              ...  13.18, 15.82, 14.90 au
Average spatial batch extension              ...   0.37,  0.40,  0.38 au

Time for grid setup =    0.042 sec

------------------------------
INITIAL GUESS: MODEL POTENTIAL
------------------------------
Loading Hartree-Fock densities                     ... done
Calculating cut-offs                               ... done
Setting up the integral package                    ... done
Initializing the effective Hamiltonian             ... done
Starting the Coulomb interaction                   ... done (   0.0 sec)
Reading the grid                                   ... done
Mapping shells                                     ... done
Starting the XC term evaluation                    ... done (   0.0 sec)
  promolecular density results
     # of electrons  =     18.000944948
     EX              =    -14.425275147
     EC              =     -0.574571773
     EX+EC           =    -14.999846921
Transforming the Hamiltonian                       ... done (   0.0 sec)
Diagonalizing the Hamiltonian                      ... done (   0.0 sec)
Back transforming the eigenvectors                 ... done (   0.0 sec)
Now organizing SCF variables                       ... done
                      ------------------
                      INITIAL GUESS DONE (   0.1 sec)
                      ------------------
--------------
SCF ITERATIONS
--------------
ITER       Energy         Delta-E        Max-DP      RMS-DP      [F,P]     Damp
               ***  Starting incremental Fock matrix formation  ***
  0   -115.6446141810   0.000000000000 0.03705664  0.00074134  0.2452623 0.7000
  1   -115.6812545502  -0.036640369186 0.02152459  0.00052294  0.1222687 0.7000
                               ***Turning on DIIS***
  2   -115.6979588970  -0.016704346841 0.03072688  0.00093755  0.0474982 0.0000
  3   -115.7249959306  -0.027037033555 0.01761386  0.00034622  0.0609556 0.0000
  4   -115.7295404882  -0.004544557634 0.00395435  0.00006918  0.0058492 0.0000
                      *** Initiating the SOSCF procedure ***
                           *** Shutting down DIIS ***
                      *** Re-Reading the Fockian *** 
                      *** Removing any level shift *** 
ITER      Energy       Delta-E        Grad      Rot      Max-DP    RMS-DP
  5   -115.72962895  -0.0000884633  0.000418  0.000418  0.000649  0.000024
               *** Restarting incremental Fock matrix formation ***
  6   -115.72963711  -0.0000081599  0.000141  0.000175  0.000447  0.000015
  7   -115.72963794  -0.0000008249  0.000042  0.000106  0.000217  0.000007
  8   -115.72963800  -0.0000000640  0.000026  0.000021  0.000042  0.000001
  9   -115.72963802  -0.0000000154  0.000010  0.000008  0.000021  0.000001
                  ***Gradient check signals convergence***
              ***Rediagonalizing the Fockian in SOSCF/NRSCF***

               *****************************************************
               *                     SUCCESS                       *
               *           SCF CONVERGED AFTER  10 CYCLES          *
               *****************************************************

Setting up the final grid:

General Integration Accuracy     IntAcc      ...  4.670
Radial Grid Type                 RadialGrid  ... Gauss-Chebyshev
Angular Grid (max. acc.)         AngularGrid ... Lebedev-302
Angular grid pruning method      GridPruning ... 3 (G Style)
Weight generation scheme         WeightScheme... Becke
Basis function cutoff            BFCut       ...    1.0000e-11
Integration weight cutoff        WCut        ...    1.0000e-14
Grids for H and He will be reduced by one unit

# of grid points (after initial pruning)     ...  52000 (   0.0 sec)
# of grid points (after weights+screening)   ...  49424 (   0.0 sec)
nearest neighbour list constructed           ...    0.0 sec
Grid point re-assignment to atoms done       ...    0.0 sec
Grid point division into batches done        ...    0.2 sec
Reduced shell lists constructed in    0.2 sec

Total number of grid points                  ...    49424
Total number of batches                      ...      779
Average number of points per batch           ...       63
Average number of grid points per atom       ...     4119
Average number of shells per batch           ...    45.31 (59.62%)
Average number of basis functions per batch  ...    99.09 (57.61%)
Average number of large shells per batch     ...    36.33 (80.18%)
Average number of large basis fcns per batch ...    81.28 (82.03%)
Maximum spatial batch extension              ...  15.72, 17.16, 14.53 au
Average spatial batch extension              ...   0.24,  0.26,  0.25 au

Final grid set up in    0.3 sec
Final integration                            ... done (   0.1 sec)
Change in XC energy                          ...    -0.000119968
Integrated number of electrons               ...    18.000004913
Previous integrated no of electrons          ...    18.001416893

----------------
TOTAL SCF ENERGY
----------------

Total Energy       :         -115.72975799 Eh           -3149.16682 eV

Components:
Nuclear Repulsion  :           40.38097331 Eh            1098.82215 eV
Electronic Energy  :         -156.11073130 Eh           -4247.98896 eV
One Electron Energy:         -237.15156698 Eh           -6453.22221 eV
Two Electron Energy:           81.04083568 Eh            2205.23325 eV

Virial components:
Potential Energy   :         -230.91986872 Eh           -6283.64908 eV
Kinetic Energy     :          115.19011073 Eh            3134.48227 eV
Virial Ratio       :            2.00468484


DFT components:
N(Alpha)           :        9.000002456497 electrons
N(Beta)            :        9.000002456497 electrons
N(Total)           :       18.000004912995 electrons
E(XC)              :      -10.641440341376 Eh       
DFET-embed. en.    :        0.000000000000 Eh       

---------------
SCF CONVERGENCE
---------------

  Last Energy change         ...   -1.7736e-09  Tolerance :   1.0000e-08
  Last MAX-Density change    ...    4.6158e-06  Tolerance :   1.0000e-07
  Last RMS-Density change    ...    1.2473e-07  Tolerance :   5.0000e-09
  Last Orbital Gradient      ...    1.9664e-06  Tolerance :   1.0000e-05
  Last Orbital Rotation      ...    2.4452e-06  Tolerance :   1.0000e-05

             **** THE GBW FILE WAS UPDATED (4-117_DFT_A.gbw) ****
             **** DENSITY FILE WAS UPDATED (4-117_DFT_A.scfp.tmp) ****
             **** ENERGY FILE WAS UPDATED (4-117_DFT_A.en.tmp) ****
----------------
ORBITAL ENERGIES
----------------

  NO   OCC          E(Eh)            E(eV) 
   0   2.0000     -19.230706      -523.2941 
   1   2.0000     -10.321005      -280.8488 
   2   2.0000      -1.145054       -31.1585 
   3   2.0000      -0.792606       -21.5679 
   4   2.0000      -0.612694       -16.6723 
   5   2.0000      -0.546412       -14.8686 
   6   2.0000      -0.525862       -14.3094 
   7   2.0000      -0.426415       -11.6034 
   8   2.0000      -0.373343       -10.1592 
   9   0.0000       0.085816         2.3352 
  10   0.0000       0.117348         3.1932 
  11   0.0000       0.148562         4.0426 
  12   0.0000       0.167350         4.5538 
  13   0.0000       0.194526         5.2933 
  14   0.0000       0.197708         5.3799 
  15   0.0000       0.208178         5.6648 
  16   0.0000       0.217921         5.9299 
  17   0.0000       0.223928         6.0934 
  18   0.0000       0.279271         7.5994 
  19   0.0000       0.311219         8.4687 
  20   0.0000       0.321038         8.7359 
  21   0.0000       0.330901         9.0043 
  22   0.0000       0.333027         9.0621 
  23   0.0000       0.387599        10.5471 
  24   0.0000       0.406276        11.0553 
  25   0.0000       0.450960        12.2712 
  26   0.0000       0.477635        12.9971 
  27   0.0000       0.491678        13.3792 
  28   0.0000       0.498520        13.5654 
  29   0.0000       0.535978        14.5847 
  30   0.0000       0.542363        14.7585 
  31   0.0000       0.565673        15.3927 
  32   0.0000       0.585094        15.9212 
  33   0.0000       0.607991        16.5443 
  34   0.0000       0.616262        16.7693 
  35   0.0000       0.657846        17.9009 
  36   0.0000       0.668883        18.2012 
  37   0.0000       0.722524        19.6609 
  38   0.0000       0.776822        21.1384 
  39   0.0000       0.788016        21.4430 
  40   0.0000       0.807900        21.9841 
  41   0.0000       0.830313        22.5940 
  42   0.0000       0.900360        24.5000 
  43   0.0000       0.917970        24.9792 
  44   0.0000       1.004050        27.3216 
  45   0.0000       1.021887        27.8070 
  46   0.0000       1.065554        28.9952 
  47   0.0000       1.119986        30.4764 
  48   0.0000       1.153098        31.3774 
  49   0.0000       1.155286        31.4369 
  50   0.0000       1.192034        32.4369 
  51   0.0000       1.226646        33.3787 
  52   0.0000       1.241826        33.7918 
  53   0.0000       1.368079        37.2273 
  54   0.0000       1.383804        37.6552 
  55   0.0000       1.394395        37.9434 
  56   0.0000       1.461160        39.7602 
  57   0.0000       1.513205        41.1764 
  58   0.0000       1.537826        41.8464 
  59   0.0000       1.561642        42.4944 
  60   0.0000       1.608206        43.7615 
  61   0.0000       1.641540        44.6686 
  62   0.0000       1.659243        45.1503 
  63   0.0000       1.664164        45.2842 
  64   0.0000       1.696368        46.1605 
  65   0.0000       1.790094        48.7109 
  66   0.0000       1.815800        49.4104 
  67   0.0000       1.916514        52.1510 
  68   0.0000       1.957470        53.2655 
  69   0.0000       1.960253        53.3412 
  70   0.0000       1.994479        54.2725 
  71   0.0000       2.057872        55.9975 
  72   0.0000       2.070975        56.3541 
  73   0.0000       2.091683        56.9176 
  74   0.0000       2.118855        57.6570 
  75   0.0000       2.171469        59.0887 
  76   0.0000       2.196304        59.7645 
  77   0.0000       2.207677        60.0739 
  78   0.0000       2.265007        61.6340 
  79   0.0000       2.323200        63.2175 
  80   0.0000       2.328159        63.3524 
  81   0.0000       2.341260        63.7089 
  82   0.0000       2.372433        64.5572 
  83   0.0000       2.399753        65.3006 
  84   0.0000       2.496596        67.9358 
  85   0.0000       2.553553        69.4857 
  86   0.0000       2.592203        70.5374 
  87   0.0000       2.595859        70.6369 
  88   0.0000       2.622713        71.3677 
  89   0.0000       2.663215        72.4698 
  90   0.0000       2.689565        73.1868 
  91   0.0000       2.728629        74.2498 
  92   0.0000       2.823700        76.8368 
  93   0.0000       2.834585        77.1330 
  94   0.0000       2.858851        77.7933 
  95   0.0000       2.888809        78.6085 
  96   0.0000       2.923459        79.5514 
  97   0.0000       2.998272        81.5871 
  98   0.0000       3.039602        82.7118 
  99   0.0000       3.087163        84.0060 
 100   0.0000       3.135937        85.3332 
 101   0.0000       3.150684        85.7345 
 102   0.0000       3.165740        86.1442 
 103   0.0000       3.257529        88.6419 
 104   0.0000       3.269287        88.9618 
 105   0.0000       3.333153        90.6997 
 106   0.0000       3.353185        91.2448 
 107   0.0000       3.377281        91.9005 
 108   0.0000       3.432057        93.3910 
 109   0.0000       3.464981        94.2869 
 110   0.0000       3.478434        94.6530 
 111   0.0000       3.569309        97.1258 
 112   0.0000       3.601779        98.0094 
 113   0.0000       3.652220        99.3820 
 114   0.0000       3.657909        99.5368 
 115   0.0000       3.686585       100.3171 
 116   0.0000       3.692124       100.4678 
 117   0.0000       4.032347       109.7257 
 118   0.0000       4.060167       110.4828 
 119   0.0000       4.088192       111.2454 
 120   0.0000       4.138306       112.6090 
 121   0.0000       4.215511       114.7099 
 122   0.0000       4.283337       116.5555 
 123   0.0000       4.295658       116.8908 
 124   0.0000       4.312825       117.3579 
 125   0.0000       4.382585       119.2562 
 126   0.0000       4.519825       122.9907 
 127   0.0000       4.531383       123.3052 
 128   0.0000       4.566841       124.2701 
 129   0.0000       4.583867       124.7334 
 130   0.0000       4.614661       125.5713 
 131   0.0000       5.041197       137.1779 
 132   0.0000       5.055238       137.5600 
 133   0.0000       5.078857       138.2027 
 134   0.0000       5.268570       143.3651 
 135   0.0000       5.348803       145.5483 
 136   0.0000       5.442125       148.0877 
 137   0.0000       5.516205       150.1036 
 138   0.0000       5.560856       151.3186 
 139   0.0000       5.726521       155.8265 
 140   0.0000       5.836498       158.8192 
 141   0.0000       5.837059       158.8344 
 142   0.0000       5.847516       159.1190 
 143   0.0000       5.880701       160.0220 
 144   0.0000       6.009218       163.5191 
 145   0.0000       6.405295       174.2969 
 146   0.0000       6.532842       177.7677 
 147   0.0000       6.626865       180.3262 
 148   0.0000       6.749021       183.6502 
 149   0.0000       6.764460       184.0703 
 150   0.0000       6.806038       185.2017 
 151   0.0000       6.817990       185.5269 
 152   0.0000       6.998386       190.4358 
 153   0.0000       7.037585       191.5024 
 154   0.0000       7.212788       196.2699 
 155   0.0000       7.226357       196.6392 
 156   0.0000       7.395963       201.2544 
 157   0.0000       8.010803       217.9850 
 158   0.0000       8.870899       241.3894 
 159   0.0000       9.361038       254.7268 
 160   0.0000       9.508204       258.7314 
 161   0.0000       9.558518       260.1005 
 162   0.0000       9.801113       266.7018 
 163   0.0000       9.856092       268.1979 
 164   0.0000       9.933999       270.3179 
 165   0.0000      10.070974       274.0451 
 166   0.0000      11.151865       303.4577 
[...]
  82   0.0000       2.369128        64.4673 
  83   0.0000       2.481078        67.5136 
  84   0.0000       2.485769        67.6412 
  85   0.0000       2.509765        68.2942 
  86   0.0000       2.575342        70.0786 
  87   0.0000       2.589772        70.4713 
  88   0.0000       2.593175        70.5639 
  89   0.0000       2.616889        71.2092 
  90   0.0000       2.670268        72.6617 
  91   0.0000       2.749903        74.8287 
  92   0.0000       2.813044        76.5468 
  93   0.0000       2.824853        76.8681 
  94   0.0000       2.863744        77.9264 
  95   0.0000       2.895070        78.7789 
  96   0.0000       2.906735        79.0963 
  97   0.0000       2.987557        81.2956 
  98   0.0000       3.011273        81.9409 
  99   0.0000       3.092602        84.1540 
 100   0.0000       3.111909        84.6794 
 101   0.0000       3.128821        85.1396 
 102   0.0000       3.161945        86.0409 
 103   0.0000       3.206072        87.2417 
 104   0.0000       3.263359        88.8005 
 105   0.0000       3.337996        90.8315 
 106   0.0000       3.376897        91.8900 
 107   0.0000       3.421789        93.1116 
 108   0.0000       3.435700        93.4902 
 109   0.0000       3.448004        93.8250 
 110   0.0000       3.491629        95.0120 
 111   0.0000       3.578291        97.3703 
 112   0.0000       3.590766        97.7097 
 113   0.0000       3.625887        98.6654 
 114   0.0000       3.655703        99.4767 
 115   0.0000       3.657593        99.5282 
 116   0.0000       3.810606       103.6919 
 117   0.0000       4.025235       109.5322 
 118   0.0000       4.081061       111.0513 
 119   0.0000       4.108693       111.8032 
 120   0.0000       4.153696       113.0278 
 121   0.0000       4.234895       115.2373 
 122   0.0000       4.290401       116.7478 
 123   0.0000       4.308604       117.2431 
 124   0.0000       4.366717       118.8244 
 125   0.0000       4.405452       119.8784 
 126   0.0000       4.535285       123.4114 
 127   0.0000       4.567696       124.2933 
 128   0.0000       4.591879       124.9514 
 129   0.0000       4.605875       125.3322 
 130   0.0000       4.617386       125.6455 
 131   0.0000       5.003510       136.1524 
 132   0.0000       5.054453       137.5387 
 133   0.0000       5.134740       139.7234 
 134   0.0000       5.361738       145.9003 
 135   0.0000       5.405998       147.1047 
 136   0.0000       5.444549       148.1537 
 137   0.0000       5.473245       148.9346 
 138   0.0000       5.517658       150.1431 
 139   0.0000       5.622397       152.9932 
 140   0.0000       5.719288       155.6297 
 141   0.0000       5.751263       156.4998 
 142   0.0000       5.795571       157.7055 
 143   0.0000       5.997107       163.1896 
 144   0.0000       6.053166       164.7150 
 145   0.0000       6.294152       171.2726 
 146   0.0000       6.536693       177.8725 
 147   0.0000       6.616076       180.0326 
 148   0.0000       6.724723       182.9890 
 149   0.0000       6.785310       184.6377 
 150   0.0000       6.807790       185.2494 
 151   0.0000       6.873257       187.0308 
 152   0.0000       7.020112       191.0270 
 153   0.0000       7.156172       194.7293 
 154   0.0000       7.240502       197.0241 
 155   0.0000       7.273794       197.9300 
 156   0.0000       7.476213       203.4381 
 157   0.0000       8.202042       223.1889 
 158   0.0000       8.916754       242.6372 
 159   0.0000       9.330134       253.8859 
 160   0.0000       9.564109       260.2526 
 161   0.0000       9.573684       260.5132 
 162   0.0000       9.813272       267.0327 
 163   0.0000       9.869909       268.5739 
 164   0.0000       9.943526       270.5771 
 165   0.0000      10.070411       274.0298 
 166   0.0000      11.185168       304.3639 
 167   0.0000      19.115073       520.1476 
 168   0.0000      22.271785       606.0461 
 169   0.0000      43.665993      1188.2121 
 170   0.0000      65.864110      1792.2535 
 171   0.0000     126.435174      3440.4760 

                    ********************************
                    * MULLIKEN POPULATION ANALYSIS *
                    ********************************

-----------------------
MULLIKEN ATOMIC CHARGES
-----------------------
   0 C :    0.003472
   1 O :   -0.000105
   2 H :   -0.000031
   3 H :   -0.006928
   4 H :   -0.002073
   5 H :   -0.000302
   6 C :   -0.182539
   7 O :   -0.457647
   8 H :    0.314649
   9 H :    0.127899
  10 H :    0.102458
  11 H :    0.101148
Sum of atomic charges:   -0.0000000

--------------------------------
MULLIKEN REDUCED ORBITAL CHARGES
--------------------------------
  0 C s       :    -0.004547  s :    -0.004547
      pz      :    -0.000176  p :     0.001028
      px      :     0.000108
      py      :     0.001097
      dz2     :    -0.000002  d :     0.000046
      dxz     :     0.000002
      dyz     :     0.000004
      dx2y2   :     0.000034
      dxy     :     0.000009
      f0      :     0.000000  f :    -0.000000
      f+1     :    -0.000000
      f-1     :    -0.000000
      f+2     :     0.000000
      f-2     :     0.000000
      f+3     :     0.000000
      f-3     :    -0.000000
  1 O s       :     0.000066  s :     0.000066
      pz      :     0.000002  p :     0.000040
      px      :     0.000050
      py      :    -0.000013
      dz2     :    -0.000000  d :     0.000000
      dxz     :     0.000000
      dyz     :     0.000000
      dx2y2   :     0.000000
      dxy     :     0.000000
      f0      :    -0.000000  f :    -0.000000
      f+1     :    -0.000000
      f-1     :     0.000000
      f+2     :     0.000000
      f-2     :    -0.000000
      f+3     :     0.000000
      f-3     :    -0.000000
  2 H s       :     0.000032  s :     0.000032
      pz      :    -0.000000  p :    -0.000000
      px      :     0.000000
      py      :    -0.000000
  3 H s       :     0.006909  s :     0.006909
      pz      :    -0.000004  p :     0.000020
      px      :     0.000001
      py      :     0.000023
  4 H s       :     0.002070  s :     0.002070
      pz      :    -0.000000  p :     0.000003
      px      :     0.000000
      py      :     0.000003
  5 H s       :     0.000302  s :     0.000302
      pz      :    -0.000000  p :     0.000000
      px      :    -0.000000
      py      :     0.000000
  6 C s       :     3.245928  s :     3.245928
      pz      :     1.071824  p :     2.833144
      px      :     0.999616
      py      :     0.761704
      dz2     :     0.015789  d :     0.096097
      dxz     :     0.010369
      dyz     :     0.021513
      dx2y2   :     0.025990
      dxy     :     0.022438
      f0      :     0.001260  f :     0.007370
      f+1     :     0.000215
      f-1     :     0.000976
      f+2     :     0.000708
      f-2     :     0.000662
      f+3     :     0.001478
      f-3     :     0.002072
  7 O s       :     3.816418  s :     3.816418
      pz      :     1.320063  p :     4.608734
      px      :     1.827868
      py      :     1.460802
      dz2     :     0.012963  d :     0.030947
      dxz     :     0.001310
      dyz     :     0.004209
      dx2y2   :     0.006259
      dxy     :     0.006206
      f0      :     0.000609  f :     0.001549
      f+1     :     0.000082
      f-1     :     0.000080
      f+2     :     0.000103
      f-2     :     0.000112
      f+3     :     0.000318
      f-3     :     0.000246
  8 H s       :     0.639566  s :     0.639566
      pz      :     0.018162  p :     0.045785
      px      :     0.015992
      py      :     0.011631
  9 H s       :     0.852766  s :     0.852766
      pz      :     0.012841  p :     0.019335
      px      :     0.003730
      py      :     0.002764
 10 H s       :     0.878780  s :     0.878780
      pz      :     0.004867  p :     0.018762
      px      :     0.010738
      py      :     0.003157
 11 H s       :     0.880141  s :     0.880141
      pz      :     0.005235  p :     0.018711
      px      :     0.006016
      py      :     0.007459


                     *******************************
                     * LOEWDIN POPULATION ANALYSIS *
                     *******************************

----------------------
LOEWDIN ATOMIC CHARGES
----------------------
   0 C :   -0.005438
   1 O :   -0.000023
   2 H :   -0.000005
   3 H :   -0.004602
   4 H :   -0.001149
   5 H :   -0.000039
   6 C :   -0.386371
   7 O :   -0.090884
   8 H :    0.180605
   9 H :    0.112616
  10 H :    0.097906
  11 H :    0.097385

-------------------------------
LOEWDIN REDUCED ORBITAL CHARGES
-------------------------------
  0 C s       :     0.000441  s :     0.000441
      pz      :     0.000060  p :     0.004847
      px      :     0.000332
      py      :     0.004455
      dz2     :     0.000027  d :     0.000148
      dxz     :     0.000000
      dyz     :     0.000003
      dx2y2   :     0.000098
      dxy     :     0.000020
      f0      :     0.000000  f :     0.000002
      f+1     :     0.000000
      f-1     :     0.000000
      f+2     :     0.000000
      f-2     :     0.000000
      f+3     :     0.000001
      f-3     :     0.000001
  1 O s       :     0.000003  s :     0.000003
      pz      :     0.000001  p :     0.000020
      px      :     0.000001
      py      :     0.000018
      dz2     :     0.000000  d :     0.000001
      dxz     :     0.000000
      dyz     :     0.000000
      dx2y2   :     0.000000
      dxy     :     0.000000
      f0      :     0.000000  f :     0.000000
      f+1     :     0.000000
      f-1     :     0.000000
      f+2     :     0.000000
      f-2     :     0.000000
      f+3     :     0.000000
      f-3     :     0.000000
  2 H s       :     0.000005  s :     0.000005
      pz      :     0.000000  p :     0.000000
      px      :     0.000000
      py      :     0.000000
  3 H s       :     0.004556  s :     0.004556
      pz      :     0.000001  p :     0.000045
      px      :     0.000001
      py      :     0.000042
  4 H s       :     0.001148  s :     0.001148
      pz      :     0.000000  p :     0.000001
      px      :     0.000000
      py      :     0.000001
  5 H s       :     0.000037  s :     0.000037
      pz      :     0.000000  p :     0.000002
      px      :     0.000000
      py      :     0.000002
  6 C s       :     2.884942  s :     2.884942
      pz      :     1.090647  p :     3.045499
      px      :     1.064270
      py      :     0.890583
      dz2     :     0.081848  d :     0.401540
      dxz     :     0.031118
      dyz     :     0.070283
      dx2y2   :     0.115644
      dxy     :     0.102647
      f0      :     0.004924  f :     0.054389
      f+1     :     0.001651
      f-1     :     0.007004
      f+2     :     0.009071
      f-2     :     0.008760
      f+3     :     0.010705
      f-3     :     0.012275
  7 O s       :     3.395490  s :     3.395490
      pz      :     1.339407  p :     4.621650
      px      :     1.758600
      py      :     1.523643
      dz2     :     0.026579  d :     0.069184
      dxz     :     0.002755
      dyz     :     0.010604
      dx2y2   :     0.014567
      dxy     :     0.014679
      f0      :     0.001546  f :     0.004560
      f+1     :     0.000110
      f-1     :     0.000628
      f+2     :     0.000341
      f-2     :     0.000371
      f+3     :     0.000732
      f-3     :     0.000833
  8 H s       :     0.668431  s :     0.668431
      pz      :     0.075905  p :     0.150964
      px      :     0.041965
      py      :     0.033094
  9 H s       :     0.830726  s :     0.830726
      pz      :     0.037194  p :     0.056658
      px      :     0.011085
      py      :     0.008379
 10 H s       :     0.844906  s :     0.844906
      pz      :     0.015789  p :     0.057188
      px      :     0.032045
      py      :     0.009354
 11 H s       :     0.845349  s :     0.845349
      pz      :     0.016558  p :     0.057266
      px      :     0.018202
      py      :     0.022506


                      *****************************
                      * MAYER POPULATION ANALYSIS *
                      *****************************

  NA   - Mulliken gross atomic population
  ZA   - Total nuclear charge
  QA   - Mulliken gross atomic charge
  VA   - Mayer's total valence
  BVA  - Mayer's bonded valence
  FA   - Mayer's free valence

  ATOM       NA         ZA         QA         VA         BVA        FA
  0 C     -0.0035     0.0000     0.0035    -0.0070    -0.0070     0.0000
  1 O      0.0001     0.0000    -0.0001     0.0002     0.0002    -0.0000
  2 H      0.0000     0.0000    -0.0000     0.0001     0.0001    -0.0000
  3 H      0.0069     0.0000    -0.0069     0.0138     0.0138     0.0000
  4 H      0.0021     0.0000    -0.0021     0.0041     0.0041    -0.0000
  5 H      0.0003     0.0000    -0.0003     0.0006     0.0006     0.0000
  6 C      6.1825     6.0000    -0.1825     3.9247     3.9247     0.0000
  7 O      8.4576     8.0000    -0.4576     1.8889     1.8889    -0.0000
  8 H      0.6854     1.0000     0.3146     0.9094     0.9094    -0.0000
  9 H      0.8721     1.0000     0.1279     0.9651     0.9651    -0.0000
 10 H      0.8975     1.0000     0.1025     0.9599     0.9599     0.0000
 11 H      0.8989     1.0000     0.1011     0.9591     0.9591    -0.0000

  Mayer bond orders larger than 0.1
B(  6-C ,  7-O ) :   0.9876 B(  6-C ,  9-H ) :   0.9688 B(  6-C , 10-H ) :   0.9792 
B(  6-C , 11-H ) :   0.9763 B(  7-O ,  8-H ) :   0.8985 

-------
TIMINGS
-------

Total SCF time: 0 days 0 hours 0 min 22 sec 

Total time                  ....      22.161 sec
Sum of individual times     ....      21.773 sec  ( 98.3%)

Fock matrix formation       ....      21.192 sec  ( 95.6%)
  XC integration            ....      13.844 sec  ( 65.3% of F)
    Basis function eval.    ....       0.060 sec  (  0.4% of XC)
    Density eval.           ....       0.119 sec  (  0.9% of XC)
    XC-Functional eval.     ....       0.110 sec  (  0.8% of XC)
    XC-Potential eval.      ....       0.062 sec  (  0.4% of XC)
Diagonalization             ....       0.054 sec  (  0.2%)
Density matrix formation    ....       0.005 sec  (  0.0%)
Population analysis         ....       0.018 sec  (  0.1%)
Initial guess               ....       0.102 sec  (  0.5%)
Orbital Transformation      ....       0.000 sec  (  0.0%)
Orbital Orthonormalization  ....       0.000 sec  (  0.0%)
DIIS solution               ....       0.026 sec  (  0.1%)
SOSCF solution              ....       0.055 sec  (  0.2%)
Grid generation             ....       0.321 sec  (  1.4%)


-------------------------------------------------------------------------------
                          DFT DISPERSION CORRECTION                            
                                                                               
                              DFTD3 V3.1  Rev 1                                
                              USING zero damping                               
-------------------------------------------------------------------------------
The omegaB97X-D3 functional is recognized. Fit by Chai et al.
Active option DFTDOPT                   ...         3   

molecular C6(AA) [au] = 208.783688 


            DFT-D V3
 parameters
 s6 scaling factor         :     1.0000 
 rs6 scaling factor        :     1.2810 
 s8 scaling factor         :     1.0000 
 rs8 scaling factor        :     1.0940 
 Damping factor alpha6     :    14.0000 
 Damping factor alpha8     :    16.0000 
 ad hoc parameters k1-k3   :    16.0000     1.3333    -4.0000 

 Edisp/kcal,au: -0.137274568381  -0.000218760926 
 E6   /kcal   :  -0.028053552 
 E8   /kcal   :  -0.109221016 
 % E8         :  79.563911659 

-------------------------   ----------------
Dispersion correction           -0.000218761
-------------------------   ----------------


-------------------------   --------------------
FINAL SINGLE POINT ENERGY      -115.731166095970
-------------------------   --------------------


                            ***************************************
                            *     ORCA property calculations      *
                            ***************************************

                                    ---------------------
                                    Active property flags
                                    ---------------------
   (+) Dipole Moment


------------------------------------------------------------------------------
                       ORCA ELECTRIC PROPERTIES CALCULATION
------------------------------------------------------------------------------

Dipole Moment Calculation                       ... on
Quadrupole Moment Calculation                   ... off
Polarizability Calculation                      ... off
GBWName                                         ... 4-117_DFT_B.gbw
Electron density file                           ... 4-117_DFT_B.scfp.tmp
The origin for moment calculation is the CENTER OF MASS  = ( 5.745920, -9.102400 11.395653)

-------------
DIPOLE MOMENT
-------------
                                X             Y             Z
Electronic contribution:      0.75139      -1.67205       0.12347
Nuclear contribution   :     -0.95166       2.23210       0.32124
                        -----------------------------------------
Total Dipole Moment    :     -0.20027       0.56005       0.44471
                        -----------------------------------------
Magnitude (a.u.)       :      0.74265
Magnitude (Debye)      :      1.88766



--------------------
Rotational spectrum 
--------------------
 
Rotational constants in cm-1:     4.030270     0.831414     0.788200 
Rotational constants in MHz : 120824.447134 24925.166102 23629.634311 

 Dipole components along the rotational axes: 
x,y,z [a.u.] :    -0.429166     0.605882     0.015870 
x,y,z [Debye]:    -1.090853     1.540029     0.040338 

 
------------------------------------------------------------------------------
                      ORCA CHELPG CHARGES GENERATION
------------------------------------------------------------------------------

GBW file                           ... 4-117_DFT_B.gbw

Reading the GBW file               ... done

Grid spacing                       ...     0.300000
Point Cut-Off                      ...     2.800000
Van-der-Waals Radii                ...        COSMO
Total charge                       ...            0


Number of points X direction       ...           28
Number of points Y direction       ...           40
Number of points Z direction       ...           27
Maximum number of possible points  ...        30240
Final number of points             ...         5978


CHELPG Charges            
--------------------------------
  0   C   :      -0.007947
  1   O   :      -0.063203
  2   H   :       0.038337
  3   H   :      -0.007832
  4   H   :       0.007944
  5   H   :       0.012206
  6   C   :      -0.083248
  7   O   :      -0.524539
  8   H   :       0.396558
  9   H   :       0.131791
 10   H   :       0.050292
 11   H   :       0.049641
--------------------------------
Total charge:     0.000000
--------------------------------

CHELPG charges calculated...

Timings for individual parts in CHELPG calculation:
Grid generation                 ...        0.001 sec (=   0.000 min)
Potential calculation           ...        1.147 sec (=   0.019 min)
Fit to the potential            ...        0.002 sec (=   0.000 min)
------------------------------------------------------------------------------


Timings for individual modules:

Sum of individual times         ...       24.531 sec (=   0.409 min)
GTO integral calculation        ...        0.819 sec (=   0.014 min)   3.3 %
SCF iterations                  ...       22.480 sec (=   0.375 min)  91.6 %
CHELPG charge generation        ...        1.233 sec (=   0.021 min)   5.0 %



                             ****ORCA TERMINATED NORMALLY****
TOTAL RUN TIME: 0 days 0 hours 1 minutes 21 seconds 141 msec
