
                                 *****************
                                 * O   R   C   A *
                                 *****************

           --- An Ab Initio, DFT and Semiempirical electronic structure package ---

                  #######################################################
                  #                        -***-                        #
                  #          Department of theory and spectroscopy      #
                  #               Directorship: Frank Neese             #
                  #        Max Planck Institute fuer Kohlenforschung    #
                  #                Kaiser Wilhelm Platz 1               #
                  #                 D-45470 Muelheim/Ruhr               #
                  #                      Germany                        #
                  #                                                     #
                  #                  All rights reserved                #
                  #                        -***-                        #
                  #######################################################


                         Program Version 4.1.2  - RELEASE  -


 With contributions from (in alphabetic order):
   Daniel Aravena         : Magnetic Properties
   Michael Atanasov       : Ab Initio Ligand Field Theory
   Alexander A. Auer      : GIAO ZORA
   Ute Becker             : Parallelization
   Giovanni Bistoni       : ED, Open-shell LED
   Martin Brehm           : Molecular dynamics
   Dmytro Bykov           : SCF Hessian
   Vijay G. Chilkuri      : MRCI spin determinant printing
   Dipayan Datta          : RHF DLPNO-CCSD density
   Achintya Kumar Dutta   : EOM-CC, STEOM-CC
   Dmitry Ganyushin       : Spin-Orbit,Spin-Spin,Magnetic field MRCI
   Miquel Garcia          : C-PCM Hessian
   Yang Guo               : DLPNO-NEVPT2, CIM, IAO-localization
   Andreas Hansen         : Spin unrestricted coupled pair/coupled cluster methods
   Benjamin Helmich-Paris : CASSCF linear response (MC-RPA)
   Lee Huntington         : MR-EOM, pCC
   Robert Izsak           : Overlap fitted RIJCOSX, COSX-SCS-MP3, EOM
   Christian Kollmar      : KDIIS, OOCD, Brueckner-CCSD(T), CCSD density
   Simone Kossmann        : Meta GGA functionals, TD-DFT gradient, OOMP2, MP2 Hessian
   Martin Krupicka        : AUTO-CI
   Lucas Lang             : DCDCAS
   Dagmar Lenk            : GEPOL surface, SMD
   Dimitrios Liakos       : Extrapolation schemes; parallel MDCI
   Dimitrios Manganas     : ROCIS; embedding schemes
   Dimitrios Pantazis     : SARC Basis sets
   Taras Petrenko         : DFT Hessian,TD-DFT gradient, ASA, ECA, R-Raman, ABS, FL, XAS/XES, NRVS
   Peter Pinski           : DLPNO-MP2, DLPNO-MP2 Gradient
   Christoph Reimann      : Effective Core Potentials
   Marius Retegan         : Local ZFS, SOC
   Christoph Riplinger    : Optimizer, TS searches, QM/MM, DLPNO-CCSD(T), (RO)-DLPNO pert. Triples
   Tobias Risthaus        : Range-separated hybrids, TD-DFT gradient, RPA, STAB
   Michael Roemelt        : Restricted open shell CIS
   Masaaki Saitow         : Open-shell DLPNO
   Barbara Sandhoefer     : DKH picture change effects
   Avijit Sen             : IP-ROCIS
   Kantharuban Sivalingam : CASSCF convergence, NEVPT2, FIC-MRCI
   Bernardo de Souza      : ESD, SOC TD-DFT
   Georgi Stoychev        : AutoAux, RI-MP2 NMR
   Willem Van den Heuvel  : Paramagnetic NMR
   Boris Wezisla          : Elementary symmetry handling
   Frank Wennmohs         : Technical directorship


 We gratefully acknowledge several colleagues who have allowed us to
 interface, adapt or use parts of their codes:
   Stefan Grimme, W. Hujo, H. Kruse,             : VdW corrections, initial TS optimization,
                  C. Bannwarth                     DFT functionals, gCP, sTDA/sTD-DF
   Ed Valeev                                     : LibInt (2-el integral package), F12 methods
   Garnet Chan, S. Sharma, J. Yang, R. Olivares  : DMRG
   Ulf Ekstrom                                   : XCFun DFT Library
   Mihaly Kallay                                 : mrcc  (arbitrary order and MRCC methods)
   Andreas Klamt, Michael Diedenhofen            : otool_cosmo (COSMO solvation model)
   Jiri Pittner, Ondrej Demel                    : Mk-CCSD
   Frank Weinhold                                : gennbo (NPA and NBO analysis)
   Christopher J. Cramer and Donald G. Truhlar   : smd solvation model
   Lars Goerigk                                  : TD-DFT with DH, B97 family of functionals
   V. Asgeirsson, H. Jonsson                     : NEB implementation
   FAccTs GmbH                                   : IRC, NEB, NEB-TS, Multilevel


 Your calculation uses the libint2 library for the computation of 2-el integrals
 For citations please refer to: http://libint.valeyev.net

 This ORCA versions uses:
   CBLAS   interface :  Fast vector & matrix operations
   LAPACKE interface :  Fast linear algebra routines
   SCALAPACK package :  Parallel linear algebra routines


Your calculation utilizes the atom-pairwise dispersion correction
with the zero-damping scheme (D30)
Cite in your paper:
S.Grimme, J.Antony, S.Ehrlich and H.Krieg, J.Chem.Phys., 132, (2010), 154104 
   

XCFun DFT library Copyright 2009-2010 Ulf Ekstrom and contributors.
See http://admol.org/xcfun for more information. This is free soft-
ware; see the source code for copying conditions. There is ABSOLUTELY
NO WARRANTY; not even for MERCHANTABILITY or FITNESS FOR A PARTICULAR
PURPOSE. For details see the documentation. Scientific users of this 
library should cite U. Ekstrom, L. Visscher, R. Bast, A. J. Thorvald-
sen and K. Ruud; J.Chem.Theor.Comp. 2010, DOI: 10.1021/ct100117s
XCFun Version 0.99 
----- Orbital basis set information -----
Your calculation utilizes the basis: def2-TZVP
   F. Weigend and R. Ahlrichs, Phys. Chem. Chem. Phys. 7, 3297 (2005).

================================================================================
                                        WARNINGS
                       Please study these warnings very carefully!
================================================================================


INFO   : the flag for use of LIBINT has been found!

================================================================================
                                       INPUT FILE
================================================================================
NAME = 163.in
|  1> #Run DFT-D3 single point of the dimer
|  2> ! wB97X-D3 def2-TZVP TIGHTSCF  CHELPG PAL8
|  3> 
|  4> %base "163_charges"
|  5> 
|  6> %scf
|  7> MaxIter 1000
|  8> end
|  9> %output
| 10>   Print[ P_Mayer ] 1
| 11>   Print[ P_NatPop ] 1
| 12>   Print[ P_Hirshfeld ] 1
| 13>   Print[ P_Mulliken ] 1
| 14>   Print [ P_Loewdin ] 1
| 15> end
| 16> 
| 17> * xyz 0 1
| 18>   C                      -8.529481            3.647370             -0.400500           
| 19>   O                      -8.312321            2.931254             -1.592540           
| 20>   H                      -8.247862            2.035745             -1.330550           
| 21>   H                      -9.565273            3.846659             -0.263133           
| 22>   H                      -8.190595            3.009083             0.366628            
| 23>   H                      -8.045980            4.647079             -0.430023           
| 24> *
| 25> 
| 26>                          ****END OF INPUT****
================================================================================

                       ****************************
                       * Single Point Calculation *
                       ****************************

---------------------------------
CARTESIAN COORDINATES (ANGSTROEM)
---------------------------------
  C     -8.529481    3.647370   -0.400500
  O     -8.312321    2.931254   -1.592540
  H     -8.247862    2.035745   -1.330550
  H     -9.565273    3.846659   -0.263133
  H     -8.190595    3.009083    0.366628
  H     -8.045980    4.647079   -0.430023

----------------------------
CARTESIAN COORDINATES (A.U.)
----------------------------
  NO LB      ZA    FRAG     MASS         X           Y           Z
   0 C     6.0000    0    12.011  -16.118383    6.892530   -0.756835
   1 O     8.0000    0    15.999  -15.708010    5.539267   -3.009464
   2 H     1.0000    0     1.008  -15.586200    3.847001   -2.514375
   3 H     1.0000    0     1.008  -18.075746    7.269132   -0.497249
   4 H     1.0000    0     1.008  -15.477981    5.686343    0.692827
   5 H     1.0000    0     1.008  -15.204699    8.781707   -0.812626

--------------------------------
INTERNAL COORDINATES (ANGSTROEM)
--------------------------------
 C      0   0   0     0.000000000000     0.00000000     0.00000000
 O      1   0   0     1.407458685950     0.00000000     0.00000000
 H      2   1   0     0.935270063598   105.10304466     0.00000000
 H      1   2   3     1.063696792077   110.79016097   262.49799318
 H      1   2   3     1.053916212869   104.99398933    20.53063916
 H      1   2   3     1.110883841457   111.60578161   145.88662383

---------------------------
INTERNAL COORDINATES (A.U.)
---------------------------
 C      0   0   0     0.000000000000     0.00000000     0.00000000
 O      1   0   0     2.659711461254     0.00000000     0.00000000
 H      2   1   0     1.767404281455   105.10304466     0.00000000
 H      1   2   3     2.010095626555   110.79016097   262.49799318
 H      1   2   3     1.991613010423   104.99398933    20.53063916
 H      1   2   3     2.099266226953   111.60578161   145.88662383

---------------------
BASIS SET INFORMATION
---------------------
There are 3 groups of distinct atoms

 Group   1 Type C   : 11s6p2d1f contracted to 5s3p2d1f pattern {62111/411/11/1}
 Group   2 Type O   : 11s6p2d1f contracted to 5s3p2d1f pattern {62111/411/11/1}
 Group   3 Type H   : 5s1p contracted to 3s1p pattern {311/1}

Atom   0C    basis set group =>   1
Atom   1O    basis set group =>   2
Atom   2H    basis set group =>   3
Atom   3H    basis set group =>   3
Atom   4H    basis set group =>   3
Atom   5H    basis set group =>   3


           ************************************************************
           *        Program running with 8 parallel MPI-processes     *
           *              working on a common directory               *
           ************************************************************
------------------------------------------------------------------------------
                           ORCA GTO INTEGRAL CALCULATION
------------------------------------------------------------------------------

                         BASIS SET STATISTICS AND STARTUP INFO

 # of primitive gaussian shells          ...   64
 # of primitive gaussian functions       ...  124
 # of contracted shells                  ...   38
 # of contracted basis functions         ...   86
 Highest angular momentum                ...    3
 Maximum contraction depth               ...    6
 Integral package used                   ... LIBINT
 Integral threshhold            Thresh   ...  2.500e-11
 Primitive cut-off              TCut     ...  2.500e-12


------------------------------ INTEGRAL EVALUATION ----------------------------


 * One electron integrals 
 Pre-screening matrix                    ... done
 Shell pair data                         ... done (   0.000 sec)



           ************************************************************
           *        Program running with 8 parallel MPI-processes     *
           *              working on a common directory               *
           ************************************************************
-------------------------------------------------------------------------------
                                 ORCA SCF
-------------------------------------------------------------------------------

------------
SCF SETTINGS
------------
Hamiltonian:
 Density Functional     Method          .... DFT(GTOs)
 Exchange Functional    Exchange        .... WB97X-D3
 Correlation Functional Correlation     .... WB97X-D3
 Gradients option       PostSCFGGA      .... off
 Hybrid DFT is turned on
   Fraction HF Exchange ScalHFX         ....  0.195728
   Scaling of DF-GGA-X  ScalDFX         ....  0.000000
   Scaling of DF-GGA-C  ScalDFC         ....  1.000000
   Scaling of DF-LDA-C  ScalLDAC        ....  1.000000
   Perturbative correction              ....  0.000000
   Density functional embedding theory  .... OFF
 Long-range corrected/Screened/Range-Separated Hybrid DFT is turned on
   Amount of maximum screened exact exchange              ....  0.804272
   Range separation parameter mu (erf(mu*r12)/r12)        ....  0.250000


General Settings:
 Integral files         IntName         .... 163_charges
 Hartree-Fock type      HFTyp           .... RHF
 Total Charge           Charge          ....    0
 Multiplicity           Mult            ....    1
 Number of Electrons    NEL             ....   18
 Basis Dimension        Dim             ....   86
 Nuclear Repulsion      ENuc            ....     40.9462680501 Eh

Convergence Acceleration:
 DIIS                   CNVDIIS         .... on
   Start iteration      DIISMaxIt       ....    12
   Startup error        DIISStart       ....  0.200000
   # of expansion vecs  DIISMaxEq       ....     5
   Bias factor          DIISBfac        ....   1.050
   Max. coefficient     DIISMaxC        ....  10.000
 Newton-Raphson         CNVNR           .... off
 SOSCF                  CNVSOSCF        .... on
   Start iteration      SOSCFMaxIt      ....   150
   Startup grad/error   SOSCFStart      ....  0.003300
 Level Shifting         CNVShift        .... on
   Level shift para.    LevelShift      ....    0.2500
   Turn off err/grad.   ShiftErr        ....    0.0010
 Zerner damping         CNVZerner       .... off
 Static damping         CNVDamp         .... on
   Fraction old density DampFac         ....    0.7000
   Max. Damping (<1)    DampMax         ....    0.9800
   Min. Damping (>=0)   DampMin         ....    0.0000
   Turn off err/grad.   DampErr         ....    0.1000
 Fernandez-Rico         CNVRico         .... off

SCF Procedure:
 Maximum # iterations   MaxIter         ....  1000
 SCF integral mode      SCFMode         .... Direct
   Integral package                     .... LIBINT
 Reset frequency        DirectResetFreq ....    20
 Integral Threshold     Thresh          ....  2.500e-11 Eh
 Primitive CutOff       TCut            ....  2.500e-12 Eh

Convergence Tolerance:
 Convergence Check Mode ConvCheckMode   .... Total+1el-Energy
 Convergence forced     ConvForced      .... 0
 Energy Change          TolE            ....  1.000e-08 Eh
 1-El. energy change                    ....  1.000e-05 Eh
 Orbital Gradient       TolG            ....  1.000e-05
 Orbital Rotation angle TolX            ....  1.000e-05
 DIIS Error             TolErr          ....  5.000e-07


Diagonalization of the overlap matrix:
Smallest eigenvalue                        ... 1.610e-03
Time for diagonalization                   ...    0.044 sec
Threshold for overlap eigenvalues          ... 1.000e-08
Number of eigenvalues below threshold      ... 0
Time for construction of square roots      ...    0.005 sec
Total time needed                          ...    0.049 sec

-------------------
DFT GRID GENERATION
-------------------

General Integration Accuracy     IntAcc      ...  4.340
Radial Grid Type                 RadialGrid  ... Gauss-Chebyshev
Angular Grid (max. acc.)         AngularGrid ... Lebedev-110
Angular grid pruning method      GridPruning ... 3 (G Style)
Weight generation scheme         WeightScheme... Becke
Basis function cutoff            BFCut       ...    1.0000e-11
Integration weight cutoff        WCut        ...    1.0000e-14
Grids for H and He will be reduced by one unit

# of grid points (after initial pruning)     ...   6548 (   0.0 sec)
# of grid points (after weights+screening)   ...   6398 (   0.0 sec)
nearest neighbour list constructed           ...    0.0 sec
Grid point re-assignment to atoms done       ...    0.0 sec
Grid point division into batches done        ...    0.0 sec
Reduced shell lists constructed in    0.0 sec

Total number of grid points                  ...     6398
Total number of batches                      ...      104
Average number of points per batch           ...       61
Average number of grid points per atom       ...     1066
Average number of shells per batch           ...    31.64 (83.27%)
Average number of basis functions per batch  ...    72.79 (84.63%)
Average number of large shells per batch     ...    30.14 (95.26%)
Average number of large basis fcns per batch ...    69.00 (94.80%)
Maximum spatial batch extension              ...  15.93, 14.57, 14.02 au
Average spatial batch extension              ...   0.44,  0.35,  0.41 au

Time for grid setup =    0.087 sec

------------------------------
INITIAL GUESS: MODEL POTENTIAL
------------------------------
Loading Hartree-Fock densities                     ... done
Calculating cut-offs                               ... done
Setting up the integral package                    ... done
Initializing the effective Hamiltonian             ... done
Starting the Coulomb interaction                   ... done (   0.0 sec)
Reading the grid                                   ... done
Mapping shells                                     ... done
Starting the XC term evaluation                    ... done (   0.2 sec)
  promolecular density results
     # of electrons  =     17.998654425
     EX              =    -14.447781563
     EC              =     -0.577616928
     EX+EC           =    -15.025398491
Transforming the Hamiltonian                       ... done (   0.0 sec)
Diagonalizing the Hamiltonian                      ... done (   0.7 sec)
Back transforming the eigenvectors                 ... done (   0.0 sec)
Now organizing SCF variables                       ... done
                      ------------------
                      INITIAL GUESS DONE (   1.5 sec)
                      ------------------
--------------
SCF ITERATIONS
--------------
ITER       Energy         Delta-E        Max-DP      RMS-DP      [F,P]     Damp
               ***  Starting incremental Fock matrix formation  ***
  0   -115.6398407679   0.000000000000 0.03809674  0.00153643  0.2460133 0.7000
  1   -115.6781908847  -0.038350116778 0.02355721  0.00109261  0.1224549 0.7000
                               ***Turning on DIIS***
  2   -115.6960059197  -0.017815034988 0.03699792  0.00197038  0.0513419 0.0000
  3   -115.7250120709  -0.029006151196 0.01856503  0.00072543  0.0622612 0.0000
  4   -115.7296537495  -0.004641678619 0.00422990  0.00014296  0.0063802 0.0000
                      *** Initiating the SOSCF procedure ***
                           *** Shutting down DIIS ***
                      *** Re-Reading the Fockian *** 
                      *** Removing any level shift *** 
ITER      Energy       Delta-E        Grad      Rot      Max-DP    RMS-DP
  5   -115.72974965  -0.0000958997  0.000429  0.000429  0.000765  0.000050
               *** Restarting incremental Fock matrix formation ***
  6   -115.72975827  -0.0000086258  0.000131  0.000225  0.000501  0.000031
  7   -115.72975910  -0.0000008218  0.000046  0.000123  0.000238  0.000014
  8   -115.72975917  -0.0000000707  0.000016  0.000014  0.000029  0.000001
  9   -115.72975917  -0.0000000059  0.000010  0.000007  0.000014  0.000001
                  ***Gradient check signals convergence***
              ***Rediagonalizing the Fockian in SOSCF/NRSCF***

               *****************************************************
               *                     SUCCESS                       *
               *           SCF CONVERGED AFTER  10 CYCLES          *
               *****************************************************

Setting up the final grid:

General Integration Accuracy     IntAcc      ...  4.670
Radial Grid Type                 RadialGrid  ... Gauss-Chebyshev
Angular Grid (max. acc.)         AngularGrid ... Lebedev-302
Angular grid pruning method      GridPruning ... 3 (G Style)
Weight generation scheme         WeightScheme... Becke
Basis function cutoff            BFCut       ...    1.0000e-11
Integration weight cutoff        WCut        ...    1.0000e-14
Grids for H and He will be reduced by one unit

# of grid points (after initial pruning)     ...  26000 (   0.0 sec)
# of grid points (after weights+screening)   ...  25184 (   0.2 sec)
nearest neighbour list constructed           ...    0.0 sec
Grid point re-assignment to atoms done       ...    0.0 sec
Grid point division into batches done        ...    0.1 sec
Reduced shell lists constructed in    0.2 sec

Total number of grid points                  ...    25184
Total number of batches                      ...      396
Average number of points per batch           ...       63
Average number of grid points per atom       ...     4197
Average number of shells per batch           ...    30.96 (81.48%)
Average number of basis functions per batch  ...    70.96 (82.51%)
Average number of large shells per batch     ...    29.39 (94.93%)
Average number of large basis fcns per batch ...    67.55 (95.19%)
Maximum spatial batch extension              ...  16.05, 17.61, 14.66 au
Average spatial batch extension              ...   0.33,  0.33,  0.32 au

Final grid set up in    1.2 sec
Final integration                            ... done (   0.4 sec)
Change in XC energy                          ...    -0.000492946
Integrated number of electrons               ...    17.999987721
Previous integrated no of electrons          ...    17.999861422

----------------
TOTAL SCF ENERGY
----------------

Total Energy       :         -115.73025212 Eh           -3149.18026 eV

Components:
Nuclear Repulsion  :           40.94626805 Eh            1114.20460 eV
Electronic Energy  :         -156.67652017 Eh           -4263.38486 eV
One Electron Energy:         -238.24963377 Eh           -6483.10213 eV
Two Electron Energy:           81.57311360 Eh            2219.71727 eV

Virial components:
Potential Energy   :         -231.13592986 Eh           -6289.52840 eV
Kinetic Energy     :          115.40567774 Eh            3140.34814 eV
Virial Ratio       :            2.00281246


DFT components:
N(Alpha)           :        8.999993860488 electrons
N(Beta)            :        8.999993860488 electrons
N(Total)           :       17.999987720976 electrons
E(XC)              :      -10.684318988708 Eh       
DFET-embed. en.    :        0.000000000000 Eh       

---------------
SCF CONVERGENCE
---------------

  Last Energy change         ...   -1.9180e-09  Tolerance :   1.0000e-08
  Last MAX-Density change    ...    3.2776e-06  Tolerance :   1.0000e-07
  Last RMS-Density change    ...    1.8645e-07  Tolerance :   5.0000e-09
  Last Orbital Gradient      ...    2.3287e-06  Tolerance :   1.0000e-05
  Last Orbital Rotation      ...    2.0843e-06  Tolerance :   1.0000e-05

             **** THE GBW FILE WAS UPDATED (163_charges.gbw) ****
             **** DENSITY FILE WAS UPDATED (163_charges.scfp.tmp) ****
             **** ENERGY FILE WAS UPDATED (163_charges.en.tmp) ****
----------------
ORBITAL ENERGIES
----------------

  NO   OCC          E(Eh)            E(eV) 
   0   2.0000     -19.224162      -523.1161 
   1   2.0000     -10.306508      -280.4543 
   2   2.0000      -1.144224       -31.1359 
   3   2.0000      -0.798026       -21.7154 
   4   2.0000      -0.616813       -16.7843 
   5   2.0000      -0.547071       -14.8866 
   6   2.0000      -0.532092       -14.4790 
   7   2.0000      -0.436765       -11.8850 
   8   2.0000      -0.370696       -10.0871 
   9   0.0000       0.115110         3.1323 
  10   0.0000       0.160626         4.3708 
  11   0.0000       0.201438         5.4814 
  12   0.0000       0.210383         5.7248 
  13   0.0000       0.234001         6.3675 
  14   0.0000       0.298327         8.1179 
  15   0.0000       0.311483         8.4759 
  16   0.0000       0.405000        11.0206 
  17   0.0000       0.439209        11.9515 
  18   0.0000       0.493260        13.4223 
  19   0.0000       0.529539        14.4095 
  20   0.0000       0.555972        15.1288 
  21   0.0000       0.578973        15.7547 
  22   0.0000       0.607649        16.5350 
  23   0.0000       0.623731        16.9726 
  24   0.0000       0.692643        18.8478 
  25   0.0000       0.763351        20.7718 
  26   0.0000       0.804840        21.9008 
  27   0.0000       0.867593        23.6084 
  28   0.0000       0.979082        26.6422 
  29   0.0000       1.050172        28.5766 
  30   0.0000       1.115897        30.3651 
  31   0.0000       1.366348        37.1802 
  32   0.0000       1.473183        40.0873 
  33   0.0000       1.535897        41.7939 
  34   0.0000       1.599312        43.5195 
  35   0.0000       1.634072        44.4654 
  36   0.0000       1.655994        45.0619 
  37   0.0000       1.677286        45.6413 
  38   0.0000       1.715258        46.6746 
  39   0.0000       1.761250        47.9260 
  40   0.0000       1.941588        52.8333 
  41   0.0000       2.031603        55.2827 
  42   0.0000       2.045921        55.6723 
  43   0.0000       2.100421        57.1553 
  44   0.0000       2.171534        59.0904 
  45   0.0000       2.254197        61.3398 
  46   0.0000       2.311123        62.8889 
  47   0.0000       2.348093        63.8948 
  48   0.0000       2.438323        66.3501 
  49   0.0000       2.443393        66.4881 
  50   0.0000       2.536912        69.0329 
  51   0.0000       2.590756        70.4980 
  52   0.0000       2.626256        71.4641 
  53   0.0000       2.715079        73.8811 
  54   0.0000       2.839138        77.2569 
  55   0.0000       2.871728        78.1437 
  56   0.0000       2.968406        80.7744 
  57   0.0000       2.999292        81.6149 
  58   0.0000       3.107331        84.5548 
  59   0.0000       3.182631        86.6038 
  60   0.0000       3.321450        90.3813 
  61   0.0000       3.438381        93.5631 
  62   0.0000       3.476651        94.6045 
  63   0.0000       3.550378        96.6107 
  64   0.0000       3.603557        98.0578 
  65   0.0000       3.645648        99.2031 
  66   0.0000       3.674760        99.9953 
  67   0.0000       4.045034       110.0710 
  68   0.0000       4.223985       114.9405 
  69   0.0000       4.349323       118.3511 
  70   0.0000       4.508289       122.6768 
  71   0.0000       4.552144       123.8701 
  72   0.0000       5.364996       145.9890 
  73   0.0000       5.455058       148.4397 
  74   0.0000       5.568147       151.5170 
  75   0.0000       5.795502       157.7036 
  76   0.0000       5.847357       159.1147 
  77   0.0000       6.019030       163.7861 
  78   0.0000       6.410391       174.4356 
  79   0.0000       6.538747       177.9283 
  80   0.0000       6.798173       184.9877 
  81   0.0000       6.829311       185.8350 
  82   0.0000       7.032367       191.3604 
  83   0.0000       7.233703       196.8391 
  84   0.0000      22.483792       611.8151 
  85   0.0000      43.668750      1188.2871 

                    ********************************
                    * MULLIKEN POPULATION ANALYSIS *
                    ********************************

-----------------------
MULLIKEN ATOMIC CHARGES
-----------------------
   0 C :   -0.156050
   1 O :   -0.467103
   2 H :    0.309095
   3 H :    0.102293
   4 H :    0.100520
   5 H :    0.111244
Sum of atomic charges:   -0.0000000

--------------------------------
MULLIKEN REDUCED ORBITAL CHARGES
--------------------------------
  0 C s       :     3.221891  s :     3.221891
      pz      :     0.767361  p :     2.827331
      px      :     1.064738
      py      :     0.995232
      dz2     :     0.026685  d :     0.098897
      dxz     :     0.023586
      dyz     :     0.014549
      dx2y2   :     0.016992
      dxy     :     0.017085
      f0      :     0.001610  f :     0.007931
      f+1     :     0.001560
      f-1     :     0.001612
      f+2     :     0.000931
      f-2     :     0.001279
      f+3     :     0.000700
      f-3     :     0.000239
  1 O s       :     3.789016  s :     3.789016
      pz      :     1.495665  p :     4.645392
      px      :     1.882518
      py      :     1.267209
      dz2     :     0.009932  d :     0.030978
      dxz     :     0.004577
      dyz     :     0.008969
      dx2y2   :     0.005697
      dxy     :     0.001803
      f0      :     0.000245  f :     0.001717
      f+1     :     0.000130
      f-1     :     0.000211
      f+2     :     0.000372
      f-2     :     0.000117
      f+3     :     0.000154
      f-3     :     0.000488
  2 H s       :     0.639752  s :     0.639752
      pz      :     0.012430  p :     0.051153
      px      :     0.019299
      py      :     0.019424
  3 H s       :     0.876894  s :     0.876894
      pz      :     0.003605  p :     0.020812
      px      :     0.012444
      py      :     0.004763
  4 H s       :     0.879027  s :     0.879027
      pz      :     0.008488  p :     0.020453
      px      :     0.005273
      py      :     0.006693
  5 H s       :     0.869474  s :     0.869474
      pz      :     0.002531  p :     0.019282
      px      :     0.005646
      py      :     0.011104


                     *******************************
                     * LOEWDIN POPULATION ANALYSIS *
                     *******************************

----------------------
LOEWDIN ATOMIC CHARGES
----------------------
   0 C :   -0.377566
   1 O :   -0.064654
   2 H :    0.153861
   3 H :    0.089268
   4 H :    0.089943
   5 H :    0.109147

-------------------------------
LOEWDIN REDUCED ORBITAL CHARGES
-------------------------------
  0 C s       :     2.853042  s :     2.853042
      pz      :     0.904620  p :     3.051124
      px      :     1.109744
      py      :     1.036760
      dz2     :     0.117780  d :     0.414032
      dxz     :     0.083120
      dyz     :     0.087969
      dx2y2   :     0.067077
      dxy     :     0.058086
      f0      :     0.010644  f :     0.059368
      f+1     :     0.010952
      f-1     :     0.012784
      f+2     :     0.008350
      f-2     :     0.010891
      f+3     :     0.004049
      f-3     :     0.001698
  1 O s       :     3.354887  s :     3.354887
      pz      :     1.553867  p :     4.631974
      px      :     1.779119
      py      :     1.298988
      dz2     :     0.023299  d :     0.072789
      dxz     :     0.010893
      dyz     :     0.019085
      dx2y2   :     0.014891
      dxy     :     0.004622
      f0      :     0.001321  f :     0.005003
      f+1     :     0.000463
      f-1     :     0.000843
      f+2     :     0.000946
      f-2     :     0.000518
      f+3     :     0.000115
      f-3     :     0.000796
  2 H s       :     0.676799  s :     0.676799
      pz      :     0.042788  p :     0.169340
      px      :     0.052440
      py      :     0.074113
  3 H s       :     0.845980  s :     0.845980
      pz      :     0.011508  p :     0.064752
      px      :     0.038229
      py      :     0.015015
  4 H s       :     0.843636  s :     0.843636
      pz      :     0.025942  p :     0.066421
      px      :     0.018337
      py      :     0.022141
  5 H s       :     0.834459  s :     0.834459
      pz      :     0.008212  p :     0.056394
      px      :     0.017307
      py      :     0.030875


                      *****************************
                      * MAYER POPULATION ANALYSIS *
                      *****************************

  NA   - Mulliken gross atomic population
  ZA   - Total nuclear charge
  QA   - Mulliken gross atomic charge
  VA   - Mayer's total valence
  BVA  - Mayer's bonded valence
  FA   - Mayer's free valence

  ATOM       NA         ZA         QA         VA         BVA        FA
  0 C      6.1560     6.0000    -0.1560     3.9629     3.9629    -0.0000
  1 O      8.4671     8.0000    -0.4671     1.8896     1.8896    -0.0000
  2 H      0.6909     1.0000     0.3091     0.9181     0.9181     0.0000
  3 H      0.8977     1.0000     0.1023     0.9484     0.9484     0.0000
  4 H      0.8995     1.0000     0.1005     0.9695     0.9695    -0.0000
  5 H      0.8888     1.0000     0.1112     0.9584     0.9584    -0.0000

  Mayer bond orders larger than 0.1
B(  0-C ,  1-O ) :   1.0076 B(  0-C ,  3-H ) :   0.9741 B(  0-C ,  4-H ) :   0.9968 
B(  0-C ,  5-H ) :   0.9744 B(  1-O ,  2-H ) :   0.9092 


------------------
HIRSHFELD ANALYSIS
------------------

Total integrated alpha density =      8.999930711
Total integrated beta density  =      8.999930711

  ATOM     CHARGE      SPIN    
   0 C    0.006528    0.000000
   1 O   -0.255199    0.000000
   2 H    0.156045    0.000000
   3 H    0.023689    0.000000
   4 H    0.029765    0.000000
   5 H    0.039311    0.000000

  TOTAL   0.000139    0.000000

-------
TIMINGS
-------

Total SCF time: 0 days 0 hours 0 min 28 sec 

Total time                  ....      28.482 sec
Sum of individual times     ....      23.085 sec  ( 81.0%)

Fock matrix formation       ....      16.568 sec  ( 58.2%)
  XC integration            ....       4.188 sec  ( 25.3% of F)
    Basis function eval.    ....       0.051 sec  (  1.2% of XC)
    Density eval.           ....       0.062 sec  (  1.5% of XC)
    XC-Functional eval.     ....       0.097 sec  (  2.3% of XC)
    XC-Potential eval.      ....       0.033 sec  (  0.8% of XC)
Diagonalization             ....       0.902 sec  (  3.2%)
Density matrix formation    ....       1.311 sec  (  4.6%)
Population analysis         ....       0.768 sec  (  2.7%)
Initial guess               ....       1.422 sec  (  5.0%)
Orbital Transformation      ....       0.000 sec  (  0.0%)
Orbital Orthonormalization  ....       0.000 sec  (  0.0%)
DIIS solution               ....       0.303 sec  (  1.1%)
SOSCF solution              ....       0.553 sec  (  1.9%)
Grid generation             ....       1.258 sec  (  4.4%)


-------------------------------------------------------------------------------
                          DFT DISPERSION CORRECTION                            
                                                                               
                              DFTD3 V3.1  Rev 1                                
                              USING zero damping                               
-------------------------------------------------------------------------------
The omegaB97X-D3 functional is recognized. Fit by Chai et al.
Active option DFTDOPT                   ...         3   

molecular C6(AA) [au] = 208.617826 


            DFT-D V3
 parameters
 s6 scaling factor         :     1.0000 
 rs6 scaling factor        :     1.2810 
 s8 scaling factor         :     1.0000 
 rs8 scaling factor        :     1.0940 
 Damping factor alpha6     :    14.0000 
 Damping factor alpha8     :    16.0000 
 ad hoc parameters k1-k3   :    16.0000     1.3333    -4.0000 

 Edisp/kcal,au: -0.134386591931  -0.000214158643 
 E6   /kcal   :  -0.026345004 
 E8   /kcal   :  -0.108041588 
 % E8         :  80.396107138 

-------------------------   ----------------
Dispersion correction           -0.000214159
-------------------------   ----------------


-------------------------   --------------------
FINAL SINGLE POINT ENERGY      -115.730466279697
-------------------------   --------------------


                            ***************************************
                            *     ORCA property calculations      *
                            ***************************************

                                    ---------------------
                                    Active property flags
                                    ---------------------
   (+) Dipole Moment


------------------------------------------------------------------------------
                       ORCA ELECTRIC PROPERTIES CALCULATION
------------------------------------------------------------------------------

Dipole Moment Calculation                       ... on
Quadrupole Moment Calculation                   ... off
Polarizability Calculation                      ... off
GBWName                                         ... 163_charges.gbw
Electron density file                           ... 163_charges.scfp.tmp
The origin for moment calculation is the CENTER OF MASS  = (-15.909423,  6.154353 -1.884878)

-------------
DIPOLE MOMENT
-------------
                                X             Y             Z
Electronic contribution:      0.30192      -0.77559      -1.52877
Nuclear contribution   :     -0.34939       0.47515       2.17964
                        -----------------------------------------
Total Dipole Moment    :     -0.04747      -0.30044       0.65087
                        -----------------------------------------
Magnitude (a.u.)       :      0.71844
Magnitude (Debye)      :      1.82613



--------------------
Rotational spectrum 
--------------------
 
Rotational constants in cm-1:     4.379165     0.857278     0.817406 
Rotational constants in MHz : 131284.068075 25700.545562 24505.221350 

 Dipole components along the rotational axes: 
x,y,z [a.u.] :     0.366983    -0.617358    -0.018680 
x,y,z [Debye]:     0.932798    -1.569199    -0.047482 

 
------------------------------------------------------------------------------
                      ORCA CHELPG CHARGES GENERATION
------------------------------------------------------------------------------

GBW file                           ... 163_charges.gbw

Reading the GBW file               ... done

Grid spacing                       ...     0.300000
Point Cut-Off                      ...     2.800000
Van-der-Waals Radii                ...        COSMO
Total charge                       ...            0


Number of points X direction       ...           23
Number of points Y direction       ...           27
Number of points Z direction       ...           25
Maximum number of possible points  ...        15525
Final number of points             ...         5799


CHELPG Charges            
--------------------------------
  0   C   :       0.082379
  1   O   :      -0.608817
  2   H   :       0.411312
  3   H   :       0.038101
  4   H   :       0.009334
  5   H   :       0.067690
--------------------------------
Total charge:    -0.000000
--------------------------------

CHELPG charges calculated...

Timings for individual parts in CHELPG calculation:
Grid generation                 ...        0.001 sec (=   0.000 min)
Potential calculation           ...        0.613 sec (=   0.010 min)
Fit to the potential            ...        0.019 sec (=   0.000 min)
------------------------------------------------------------------------------


Timings for individual modules:

Sum of individual times         ...       38.815 sec (=   0.647 min)
GTO integral calculation        ...        4.015 sec (=   0.067 min)  10.3 %
SCF iterations                  ...       33.096 sec (=   0.552 min)  85.3 %
CHELPG charge generation        ...        1.703 sec (=   0.028 min)   4.4 %
                             ****ORCA TERMINATED NORMALLY****
TOTAL RUN TIME: 0 days 0 hours 0 minutes 41 seconds 651 msec
