LAMMPS data file via write_data, version 11 Aug 2017, timestep = 210000

1002 atoms
4 atom types
835 bonds
3 bond types
1169 angles
3 angle types
501 dihedrals
1 dihedral types

-1.1221274855217592e+01 1.1221274855217592e+01 xlo xhi
-1.1221274855217592e+01 1.1221274855217592e+01 ylo yhi
-1.1221274855217592e+01 1.1221274855217592e+01 zlo zhi

Masses

1 1.00794
2 1.00794
3 12.011
4 15.9994

Bond Coeffs # harmonic

1 366.904 1.0961
2 612.22 0.957501
3 368.71 1.41153

Angle Coeffs # harmonic

1 40.9267 108.205
2 61.3287 112.232
3 49.873 108.742

Atoms # full

594 98 1 3.1932000000000002e-02 -7.9874179687370130e+00 -8.4459029529325456e+00 -8.2703180152955547e+00 0 -1 2
509 84 1 3.1932000000000002e-02 -6.1243544230762854e+00 -5.8489999926423879e+00 -5.7589023212964223e+00 1 2 1
595 99 3 9.9454000000000001e-02 -5.6135022385651165e+00 -1.0492246665600733e+01 -9.4327376816800079e+00 -2 1 1
714 118 1 3.1932000000000002e-02 -9.0109010351758343e+00 -1.0224061216777939e+01 -1.0909133905312650e+01 1 -1 1
591 98 2 4.0257300000000001e-01 -8.8366801666519503e+00 -6.1331324622953520e+00 -8.1850535807889173e+00 0 -1 2
590 98 4 -5.9782299999999999e-01 -9.2910294764233790e+00 -6.8433208334603668e+00 -7.6110685637063664e+00 0 -1 2
592 98 1 3.1932000000000002e-02 -9.6575941903616247e+00 -8.8128919483944053e+00 -7.7977223867249652e+00 0 -1 2
598 99 1 3.1932000000000002e-02 -6.4836829358820181e+00 -1.0456531197772051e+01 -1.0048144759968425e+01 -2 1 1
589 98 3 9.9454000000000001e-02 -9.0309694039516906e+00 -8.0833700884019848e+00 -8.2656034322141174e+00 0 -1 2
549 91 2 4.0257300000000001e-01 -1.0660479609505837e+01 -6.2111148922048418e+00 -6.2126465160590039e+00 -1 1 1
593 98 1 3.1932000000000002e-02 -9.2177672003967590e+00 -8.1266234323933997e+00 -9.3902965948061414e+00 0 -1 2
510 84 1 3.1932000000000002e-02 -5.6564338617481038e+00 -7.4832082905023327e+00 -6.1418667650013763e+00 1 2 1
600 99 1 3.1932000000000002e-02 -5.8817061361282130e+00 -1.1150732026939203e+01 -8.6849560573200755e+00 -2 1 1
506 84 4 -5.9782299999999999e-01 -5.6368086382025551e+00 -7.0864357930401374e+00 -4.0991253969574295e+00 1 2 1
889 148 3 9.9454000000000001e-02 -9.6979627137250173e+00 -8.4611127989356696e+00 -4.2790070896623620e+00 0 0 1
431 71 1 3.1932000000000002e-02 -8.9585969553044134e+00 -1.0803470938546930e+01 -2.1801951953170580e+00 0 1 -1
892 148 1 3.1932000000000002e-02 -1.0672826771246042e+01 -8.0328403956392123e+00 -4.0782786787190517e+00 0 0 1
891 148 2 4.0257300000000001e-01 -1.0537057593900469e+01 -1.0114264233813255e+01 -4.4914983928737584e+00 0 0 1
427 71 3 9.9454000000000001e-02 -9.8186969405405975e+00 -1.0784603926785438e+01 -1.4510219251256444e+00 0 1 -1
432 71 1 3.1932000000000002e-02 -9.3534025635483982e+00 -1.0473330057042876e+01 -5.3915648107439651e-01 0 1 -1
683 113 1 3.1932000000000002e-02 -6.1692452072347450e+00 -1.0457257955884691e+01 -5.2415628125198550e+00 0 0 -2
893 148 1 3.1932000000000002e-02 -9.1846413319123350e+00 -8.5728127032912465e+00 -3.2880066961752803e+00 0 0 1
573 95 2 4.0257300000000001e-01 -6.5678610641130772e+00 -7.6348684145432877e+00 -8.5563359208898504e-01 -1 1 0
505 84 3 9.9454000000000001e-02 -6.1912415197454003e+00 -6.8826359109955053e+00 -5.3787383208243416e+00 1 2 1
849 141 2 4.0257300000000001e-01 -6.7583558022786141e+00 -5.9191424361964895e+00 -2.7991553827906195e+00 2 2 1
890 148 4 -5.9782299999999999e-01 -9.7709575412284710e+00 -9.7547320423010095e+00 -4.9305507362738696e+00 0 0 1
428 71 4 -5.9782299999999999e-01 -1.0885351689804940e+01 -9.9228575507205043e+00 -1.8511710995218777e+00 0 1 -1
508 84 1 3.1932000000000002e-02 -7.1899758658481305e+00 -7.3321783007813028e+00 -5.3026868478734031e+00 1 2 1
575 95 1 3.1932000000000002e-02 -6.9908538701569132e+00 -9.9274592879633197e+00 -2.6762931270779511e-01 -1 1 0
894 148 1 3.1932000000000002e-02 -9.1796429356440523e+00 -7.7461265502768120e+00 -4.9198496494679347e+00 0 0 1
307 51 3 9.9454000000000001e-02 -9.0112491698500747e+00 -8.4086484383467841e+00 3.8837671533200879e+00 -2 2 3
311 51 1 3.1932000000000002e-02 -9.8971290163301298e+00 -7.9577789286933323e+00 4.2571684954027642e+00 -2 2 3
1000 166 1 3.1932000000000002e-02 -8.2088348908748117e+00 -6.4913033990391185e+00 7.4953686843637790e-01 2 -1 0
309 51 2 4.0257300000000001e-01 -8.4062325463149499e+00 -9.7862590174056034e+00 4.9544642517565745e+00 -2 2 3
576 95 1 3.1932000000000002e-02 -6.6995575070266193e+00 -9.4162511063179313e+00 1.4082371364384123e+00 -1 1 0
312 51 1 3.1932000000000002e-02 -8.1492535382355342e+00 -7.8810482423776751e+00 4.3354472403042159e+00 -2 2 3
310 51 1 3.1932000000000002e-02 -9.0338119746091401e+00 -8.3060568883041306e+00 2.7329773289696675e+00 -2 2 3
412 68 1 3.1932000000000002e-02 -1.0551349414514888e+01 -7.2615077171927673e+00 3.8185188067511788e-01 1 0 0
574 95 1 3.1932000000000002e-02 -8.0354303682093864e+00 -8.6833790864392117e+00 4.8650633650811592e-01 -1 1 0
308 51 4 -5.9782299999999999e-01 -8.9906964032295438e+00 -9.8164876502678791e+00 4.1682589919916477e+00 -2 2 3
571 95 3 9.9454000000000001e-02 -6.9964852080398074e+00 -9.0741876288234771e+00 4.4250265715707471e-01 -1 1 0
154 25 1 3.1932000000000002e-02 -1.0644198025520403e+01 -1.0894779052253238e+01 1.3062885409056779e+00 1 1 1
156 25 1 3.1932000000000002e-02 -1.0795918185828606e+01 -9.6552018941097764e+00 2.4649798461122945e+00 1 1 1
153 25 2 4.0257300000000001e-01 -1.1136870328616395e+01 -1.0922898920510804e+01 3.9410672952356123e+00 1 1 1
572 95 4 -5.9782299999999999e-01 -6.2273265053315496e+00 -7.9487454933206712e+00 1.9392674579599145e-02 -1 1 0
522 86 1 3.1932000000000002e-02 -8.6829678581379728e+00 -6.3760279866226126e+00 9.5201987684903759e+00 1 1 -1
415 69 3 9.9454000000000001e-02 -7.7210530679076079e+00 -9.1993114443663693e+00 7.7977378343708299e+00 1 -2 1
521 86 1 3.1932000000000002e-02 -7.2366725905354388e+00 -5.6338119907189173e+00 1.0336552351636699e+01 1 1 -1
416 69 4 -5.9782299999999999e-01 -7.8861196541075484e+00 -1.0259200719170522e+01 6.8877976815640150e+00 1 -2 1
420 69 1 3.1932000000000002e-02 -8.6449081080102133e+00 -8.6139937612757844e+00 8.0111696364041531e+00 1 -2 1
419 69 1 3.1932000000000002e-02 -6.9386535215950902e+00 -8.5697956486732849e+00 7.4946565878898088e+00 1 -2 1
712 118 1 3.1932000000000002e-02 -1.0178155761178530e+01 -1.0074696689729819e+01 1.0198151716749964e+01 1 -1 0
709 118 3 9.9454000000000001e-02 -9.5192061246563817e+00 -1.0758084616704231e+01 1.0766427824987788e+01 1 -1 0
418 69 1 3.1932000000000002e-02 -7.4765681694966828e+00 -9.5211203299888680e+00 8.7428818059055704e+00 1 -2 1
417 69 2 4.0257300000000001e-01 -8.2911642930858953e+00 -1.0990936146247911e+01 7.4070787729703138e+00 1 -2 1
983 163 1 3.1932000000000002e-02 -6.1718542513722428e+00 -6.2641647218294807e+00 8.0210776085299269e+00 1 1 -2
941 156 1 3.1932000000000002e-02 -1.0847310858860725e+01 -6.5349475377075210e+00 8.8070735782690850e+00 -1 2 -1
939 156 2 4.0257300000000001e-01 -1.0900698650606394e+01 -7.5722010370701938e+00 6.4000615406180987e+00 -1 2 -1
938 156 4 -5.9782299999999999e-01 -1.0729880399239793e+01 -6.6250102490882474e+00 6.6604874333328237e+00 -1 2 -1
388 64 1 3.1932000000000002e-02 -1.0475626141638326e+01 -1.0537996484986694e+01 6.5957727313217109e+00 1 0 -1
482 80 4 -5.9782299999999999e-01 -6.7633087554592342e+00 -1.8668669867324397e+00 -6.8466445653651418e+00 2 -1 1
263 43 1 3.1932000000000002e-02 -8.6187436024623718e+00 -3.0694625299816192e+00 -1.0798191003922071e+01 -1 2 1
260 43 4 -5.9782299999999999e-01 -8.1572442337093989e+00 -1.1229085575010114e+00 -1.1054437208932191e+01 -1 2 1
264 43 1 3.1932000000000002e-02 -7.6918888069120532e+00 -2.2658804401389574e+00 -9.4464247742275109e+00 -1 2 1
483 80 2 4.0257300000000001e-01 -6.2315699931641779e+00 -1.0924955860701395e+00 -7.2126325309439636e+00 2 -1 1
183 30 2 4.0257300000000001e-01 -7.2864686210716023e+00 -3.7810580379823646e+00 -8.0689372184440060e+00 0 -1 2
182 30 4 -5.9782299999999999e-01 -7.1168416290641883e+00 -4.6796340078594056e+00 -8.4069708772072076e+00 0 -1 2
259 43 3 9.9454000000000001e-02 -8.4813188939251987e+00 -2.1600643907022299e+00 -1.0196349073222500e+01 -1 2 1
162 26 1 3.1932000000000002e-02 -1.0402166217582787e+01 -3.5870920523138423e+00 -7.5504865082412156e+00 -1 1 -2
161 26 1 3.1932000000000002e-02 -1.0264822949470988e+01 -1.8450839110482562e+00 -7.3095613728136417e+00 -1 1 -2
518 86 4 -5.9782299999999999e-01 -9.0985631099764817e+00 -5.4857887616547405e+00 -1.1112157620827871e+01 1 1 0
262 43 1 3.1932000000000002e-02 -9.4253483515197036e+00 -2.0466251763508136e+00 -9.6142926058972975e+00 -1 2 1
181 30 3 9.9454000000000001e-02 -5.7521056825049186e+00 -5.0300490061144743e+00 -8.4401992216730832e+00 0 -1 2
157 26 3 9.9454000000000001e-02 -1.0921021824181709e+01 -2.6909587920072902e+00 -7.1136019126742500e+00 -1 1 -2
519 86 2 4.0257300000000001e-01 -8.8047539448953742e+00 -4.6952739195271329e+00 -1.0596742204821028e+01 1 1 0
501 83 2 4.0257300000000001e-01 -6.6044365364897120e+00 -6.0482519768287091e-01 -1.4404090668488045e+00 1 1 2
847 141 3 9.9454000000000001e-02 -8.4715127238184138e+00 -4.9459258761906320e+00 -3.0097081273050854e+00 2 2 1
850 141 1 3.1932000000000002e-02 -8.1673225534225935e+00 -4.0005066243115062e+00 -3.4718391071915615e+00 2 2 1
10 1 1 3.1932000000000002e-02 -1.0428986848298459e+01 -1.1041658177946179e+00 -2.6920605482362561e+00 -2 -2 1
9 1 2 4.0257300000000001e-01 -8.2388594326916635e+00 -1.2755493580245432e+00 -3.3584832626352581e+00 -2 -2 1
7 1 3 9.9454000000000001e-02 -9.6978742225817474e+00 -2.7206880201560502e-01 -2.4860525757053011e+00 -2 -2 1
500 83 4 -5.9782299999999999e-01 -5.8898550009355892e+00 -4.8602169292499831e-01 -7.8214305373918869e-01 1 1 2
848 141 4 -5.9782299999999999e-01 -7.4794928139241446e+00 -5.5484872232931108e+00 -2.2484351186698479e+00 2 2 1
8 1 4 -5.9782299999999999e-01 -8.3463105961725752e+00 -7.0253157792071086e-01 -2.6066513816830348e+00 -2 -2 1
851 141 1 3.1932000000000002e-02 -8.8707883969577832e+00 -5.6010897019429002e+00 -3.7991433374313743e+00 2 2 1
852 141 1 3.1932000000000002e-02 -9.3418443935871842e+00 -4.6532753407124741e+00 -2.3786508358789575e+00 2 2 1
484 80 1 3.1932000000000002e-02 -6.5081092486009648e+00 -3.0743837102376101e+00 -5.2527013705184702e+00 2 -1 1
481 80 3 9.9454000000000001e-02 -6.2650912241363832e+00 -2.0562545027989394e+00 -5.5024156804436668e+00 2 -1 1
486 80 1 3.1932000000000002e-02 -6.7453910429371504e+00 -1.4206222110748215e+00 -4.7980384334878874e+00 2 -1 1
997 166 3 9.9454000000000001e-02 -8.3972581259083654e+00 -5.4324880141072907e+00 8.7940888556693864e-01 2 -1 0
405 67 2 4.0257300000000001e-01 -7.0204867323667042e+00 -5.5283930231645071e+00 4.1363452956799147e+00 2 1 2
142 23 1 3.1932000000000002e-02 -7.3672327683296777e+00 -2.2352571114869466e+00 1.5516533738452480e+00 1 0 -1
1002 166 1 3.1932000000000002e-02 -7.6027659198321382e+00 -4.8320524171153405e+00 4.5936000849225067e-01 2 -1 0
1001 166 1 3.1932000000000002e-02 -9.3018244351444874e+00 -5.2193869619749345e+00 3.7149482666889710e-01 2 -1 0
999 166 2 4.0257300000000001e-01 -8.9197737109452895e+00 -4.4269266082592393e+00 2.3353491321068844e+00 2 -1 0
140 23 4 -5.9782299999999999e-01 -9.3801922136994662e+00 -2.6070361870024641e+00 1.5990860218073308e+00 1 0 -1
141 23 2 4.0257300000000001e-01 -1.0156274099988170e+01 -2.5200446483090264e+00 1.0123916252615306e+00 1 0 -1
139 23 3 9.9454000000000001e-02 -8.3258002282285641e+00 -1.7502582471428720e+00 1.2010993468984896e+00 1 0 -1
449 74 1 3.1932000000000002e-02 -1.0330240787142801e+01 -4.6419044570970946e-01 4.1496805679458291e+00 -1 0 2
403 67 3 9.9454000000000001e-02 -7.8503861995778665e+00 -4.1589050759214468e+00 5.2205429780453709e+00 2 1 2
998 166 4 -5.9782299999999999e-01 -8.5222763814125386e+00 -5.3106524672203754e+00 2.2898286837941040e+00 2 -1 0
144 23 1 3.1932000000000002e-02 -8.3881267583395687e+00 -7.6028684078424824e-01 1.6342399672729666e+00 1 0 -1
406 67 1 3.1932000000000002e-02 -8.3931714512526092e+00 -3.7005740867062542e+00 4.3101397322531874e+00 2 1 2
143 23 1 3.1932000000000002e-02 -8.2160882164778588e+00 -1.6420482959722378e+00 9.6031042849064718e-02 1 0 -1
404 67 4 -5.9782299999999999e-01 -6.7201769690003168e+00 -4.8734508764866922e+00 4.7954023440809816e+00 2 1 2
920 153 4 -5.9782299999999999e-01 -1.1184126962602750e+01 -3.3317597396153946e+00 1.0635046627552027e+01 -1 1 -1
785 130 1 3.1932000000000002e-02 -9.8227809064775577e+00 -2.4663140656381923e+00 8.3743734706457165e+00 3 0 1
474 78 1 3.1932000000000002e-02 -7.0494641795214656e+00 -2.1719739629348371e+00 8.2964344246122064e+00 1 0 1
470 78 4 -5.9782299999999999e-01 -6.4899998955900005e+00 -3.0967709754105961e+00 1.0084692363781761e+01 1 0 1
786 130 1 3.1932000000000002e-02 -9.8098167541104395e+00 -1.1881016543719891e+00 7.2768725798969012e+00 3 0 1
408 67 1 3.1932000000000002e-02 -7.5814852420902614e+00 -3.2429800338142654e+00 5.7656852793627227e+00 2 1 2
784 130 1 3.1932000000000002e-02 -8.7333594252494695e+00 -1.1244610576887499e+00 8.6975804856696559e+00 3 0 1
261 43 2 4.0257300000000001e-01 -7.3231548174718260e+00 -1.5064348988021017e+00 1.1062107867067153e+01 -1 2 0
783 130 2 4.0257300000000001e-01 -1.0655588886530511e+01 -1.0315111688194900e+00 9.9502032931945141e+00 3 0 1
921 153 2 4.0257300000000001e-01 -1.0783168899389885e+01 -4.1575588025412591e+00 1.0578411337970616e+01 -1 1 -1
469 78 3 9.9454000000000001e-02 -6.1995042181015512e+00 -2.2587243277831313e+00 8.9892892378381060e+00 1 0 1
472 78 1 3.1932000000000002e-02 -5.9410367685560557e+00 -1.2648977078966688e+00 9.3011193961841716e+00 1 0 1
781 130 3 9.9454000000000001e-02 -9.7213501328153136e+00 -1.3611419095221233e+00 8.3181452768148905e+00 3 0 1
782 130 4 -5.9782299999999999e-01 -1.0709461829902741e+01 -7.0005352593628523e-01 9.0299050204542244e+00 3 0 1
450 74 1 3.1932000000000002e-02 -9.9293740779153694e+00 -1.0183389644305585e-01 5.7406064030481954e+00 -1 0 2
520 86 1 3.1932000000000002e-02 -8.4483726042766012e+00 -4.6994713073545960e+00 9.5100656398036723e+00 1 1 -1
517 86 3 9.9454000000000001e-02 -8.3356611619194556e+00 -5.5665351965730672e+00 1.0136331119322572e+01 1 1 -1
407 67 1 3.1932000000000002e-02 -8.5473762774750526e+00 -4.8093226746039255e+00 5.7428670047805870e+00 2 1 2
471 78 2 4.0257300000000001e-01 -5.6467243604968305e+00 -3.3727263960721370e+00 1.0477942129355599e+01 1 0 1
787 131 3 9.9454000000000001e-02 -6.3149150596313239e+00 4.5356976113542657e+00 -9.8712809656029918e+00 -1 0 3
545 90 1 3.1932000000000002e-02 -7.8240939322742555e+00 1.0376383998624892e+00 -7.4995489721421240e+00 -1 2 1
543 90 2 4.0257300000000001e-01 -8.5645812068541574e+00 4.9121172566503368e-01 -9.7523863535551349e+00 -1 2 1
232 38 1 3.1932000000000002e-02 -8.3533742853229604e+00 4.3145113340497616e+00 -6.1446102415288761e+00 -1 -1 1
791 131 1 3.1932000000000002e-02 -6.5744244153666900e+00 4.2008677243118999e+00 -1.0877493287070466e+01 -1 0 3
541 90 3 9.9454000000000001e-02 -8.3547641778355235e+00 1.6661100940829598e+00 -8.1330621745967839e+00 -1 2 1
542 90 4 -5.9782299999999999e-01 -9.1180093351998259e+00 9.5648924081332964e-01 -9.0880019950434345e+00 -1 2 1
792 131 1 3.1932000000000002e-02 -6.1384815425608990e+00 3.6478165902480733e+00 -9.1930746795807199e+00 -1 0 3
546 90 1 3.1932000000000002e-02 -7.6089425123065944e+00 2.2867003825900163e+00 -8.6701903826635380e+00 -1 2 1
544 90 1 3.1932000000000002e-02 -9.0118242736936622e+00 2.3560827537032321e+00 -7.5016602164597757e+00 -1 2 1
790 131 1 3.1932000000000002e-02 -7.2377440093367671e+00 5.0854163264154497e+00 -9.5500583311604395e+00 -1 0 3
96 15 1 3.1932000000000002e-02 -1.1187405534742757e+01 1.4996206838815418e+00 -7.2924690871362987e+00 -1 1 0
12 1 1 3.1932000000000002e-02 -9.9601374994979164e+00 5.0483693117022810e-01 -3.1794343748960223e+00 -2 -2 1
233 38 1 3.1932000000000002e-02 -9.6517016369336517e+00 5.3519736527566604e+00 -5.4714283623868658e+00 -1 -1 1
331 55 3 9.9454000000000001e-02 -6.0307496828817557e+00 1.8216814635925491e+00 -3.9372248156091292e+00 -1 0 0
332 55 4 -5.9782299999999999e-01 -6.6840693515858209e+00 2.0426315298687907e+00 -5.1299875803690256e+00 -1 0 0
333 55 2 4.0257300000000001e-01 -7.5747827069220550e+00 2.4175084066608541e+00 -5.0612182325371640e+00 -1 0 0
229 38 3 9.9454000000000001e-02 -8.7630305216223690e+00 4.7600443255097709e+00 -5.2521860192960990e+00 -1 -1 1
230 38 4 -5.9782299999999999e-01 -9.1670246333550161e+00 3.7292234011710672e+00 -4.4333306506872194e+00 -1 -1 1
334 55 1 3.1932000000000002e-02 -6.6180043900627652e+00 1.1506144493585904e+00 -3.3378907890205385e+00 -1 0 0
231 38 2 4.0257300000000001e-01 -9.4865937353224172e+00 4.1322510268852106e+00 -3.6088151149867480e+00 -1 -1 1
336 55 1 3.1932000000000002e-02 -5.8331751973293660e+00 2.7627116488623411e+00 -3.4019347307899830e+00 -1 0 0
234 38 1 3.1932000000000002e-02 -7.9066613332928259e+00 5.3131065371540434e+00 -4.8330076532434623e+00 -1 -1 1
11 1 1 3.1932000000000002e-02 -9.9289388280376265e+00 1.6084919738199766e-01 -1.4876636228569478e+00 -2 -2 1
372 61 1 3.1932000000000002e-02 -8.3132316370955692e+00 2.9528099709340783e+00 -7.6231730870935266e-02 -1 1 0
743 123 1 3.1932000000000002e-02 -8.8432012379118135e+00 5.5361065653118704e+00 1.6133118702269886e+00 1 -1 0
909 151 2 4.0257300000000001e-01 -7.6801185278683652e+00 1.5499461527297456e+00 4.5606317525361391e+00 -1 0 0
367 61 3 9.9454000000000001e-02 -7.5432408812715890e+00 2.9086580611606809e+00 7.5277570736181332e-01 -1 1 0
447 74 2 4.0257300000000001e-01 -9.9334306163801127e+00 2.2246421523173332e+00 4.6144103887192998e+00 -1 0 2
876 145 1 3.1932000000000002e-02 -8.2496050851260563e+00 4.4499241145564703e+00 5.0425611454355401e+00 1 0 0
908 151 4 -5.9782299999999999e-01 -6.7339913961884399e+00 1.7606563441754925e+00 4.5202082179753820e+00 -1 0 0
446 74 4 -5.9782299999999999e-01 -9.5228143324530397e+00 1.4100270095514613e+00 4.3543722643124756e+00 -1 0 2
370 61 1 3.1932000000000002e-02 -7.8070769530381732e+00 2.2578506471652258e+00 1.6748516924089891e+00 -1 1 0
371 61 1 3.1932000000000002e-02 -7.6341166103317661e+00 3.8968399837272525e+00 1.3157805232687334e+00 -1 1 0
907 151 3 9.9454000000000001e-02 -6.1407583195200575e+00 7.6104216075286324e-01 3.7387563878548011e+00 -1 0 0
912 151 1 3.1932000000000002e-02 -6.9730186896379651e+00 2.0412225357484282e-01 3.3200339858898555e+00 -1 0 0
369 61 2 4.0257300000000001e-01 -6.0197732407978286e+00 1.7367540128417236e+00 1.4562977347968342e-01 -1 1 0
368 61 4 -5.9782299999999999e-01 -6.2122070006503813e+00 2.7157616276372760e+00 2.2535717540527322e-01 -1 1 0
740 123 4 -5.9782299999999999e-01 -1.0911257260093592e+01 5.5909327493666705e+00 1.4057815586806885e+00 1 -1 0
445 74 3 9.9454000000000001e-02 -1.0328424535202753e+01 3.4251753946292141e-01 4.8633602531102778e+00 -1 0 2
959 159 1 3.1932000000000002e-02 -9.8390501786361462e+00 5.3609674849622042e+00 8.7957813477962343e+00 1 2 -1
958 159 1 3.1932000000000002e-02 -1.0439356487206647e+01 4.4131947204920046e+00 1.0268667444322022e+01 1 2 -1
300 49 1 3.1932000000000002e-02 -8.0631790281430824e+00 2.6442783014980229e+00 8.7081453942574907e+00 0 1 0
298 49 1 3.1932000000000002e-02 -8.4881059733334911e+00 1.3688780928413813e+00 9.8444016078560548e+00 0 1 0
955 159 3 9.9454000000000001e-02 -1.0274283876311292e+01 5.4186771378429004e+00 9.7617098130947024e+00 1 2 -1
296 49 4 -5.9782299999999999e-01 -6.9998516734950726e+00 8.6311763558820864e-01 8.3753937568360772e+00 0 1 0
299 49 1 3.1932000000000002e-02 -6.8853741779461330e+00 2.2362965554544409e+00 9.9525717122132225e+00 0 1 0
875 145 1 3.1932000000000002e-02 -8.2688820201063464e+00 4.7416844576482262e+00 6.8625265324595883e+00 1 0 0
295 49 3 9.9454000000000001e-02 -7.5959202550688598e+00 1.8023962749229323e+00 9.2588586319588533e+00 0 1 0
297 49 2 4.0257300000000001e-01 -6.3700886377830246e+00 1.2852114618705279e+00 7.7691108995601379e+00 0 1 0
871 145 3 9.9454000000000001e-02 -8.4835696016153630e+00 5.1586857407887745e+00 5.8245991086208786e+00 1 0 0
873 145 2 4.0257300000000001e-01 -1.0371752139289642e+01 5.1216374202572172e+00 6.0888572900054481e+00 1 0 0
314 52 4 -5.9782299999999999e-01 -7.0908145133367020e+00 9.1535675089382647e+00 -1.0475121441132313e+01 -2 3 -1
49 8 3 9.9454000000000001e-02 -8.9853258009979999e+00 1.0413017853708846e+01 -7.1774111569167793e+00 0 -1 0
715 119 3 9.9454000000000001e-02 -6.0505392048744762e+00 8.1114311150191920e+00 -7.1108117140065739e+00 0 0 0
54 8 1 3.1932000000000002e-02 -9.8013617484026767e+00 1.1154045088032928e+01 -7.0802858400898172e+00 0 -1 0
717 119 2 4.0257300000000001e-01 -7.4309418004846695e+00 7.7599191568534049e+00 -8.3102090745514108e+00 0 0 0
53 8 1 3.1932000000000002e-02 -9.5089153333257492e+00 9.4590786304517760e+00 -7.2181512381807229e+00 0 -1 0
50 8 4 -5.9782299999999999e-01 -8.1410641188842252e+00 1.0595766630405324e+01 -6.1104656452284996e+00 0 -1 0
52 8 1 3.1932000000000002e-02 -8.4863440760036095e+00 1.0611777770347336e+01 -8.1627275597822404e+00 0 -1 0
716 119 4 -5.9782299999999999e-01 -6.9714523376069959e+00 7.1968327821370703e+00 -7.7121376683948295e+00 0 0 0
364 60 1 3.1932000000000002e-02 -1.1169107874264617e+01 1.0354843137411381e+01 -5.7905291366610516e+00 -1 -2 1
713 118 1 3.1932000000000002e-02 -1.0230630542253934e+01 1.1004918794728058e+01 -1.1127203009315050e+01 1 -2 1
720 119 1 3.1932000000000002e-02 -6.2982121400217581e+00 8.3659839048440734e+00 -6.0902854212032578e+00 0 0 0
719 119 1 3.1932000000000002e-02 -6.1298586765781709e+00 9.0578217337867688e+00 -7.7375885031334724e+00 0 0 0
315 52 2 4.0257300000000001e-01 -7.6029234418654577e+00 9.8313475473381242e+00 -1.0974707471879304e+01 -2 3 -1
696 115 1 3.1932000000000002e-02 -8.8364472935264349e+00 7.6191377711765238e+00 -3.2200625011154269e+00 1 0 0
695 115 1 3.1932000000000002e-02 -7.0208874131417662e+00 7.3074892250433532e+00 -3.4309541986722909e+00 1 0 0
694 115 1 3.1932000000000002e-02 -7.6991021441462930e+00 8.8651090305762903e+00 -2.8630718008828353e+00 1 0 0
693 115 2 4.0257300000000001e-01 -7.6645618035997032e+00 6.4377670929630266e+00 -1.5654188889945750e+00 1 0 0
692 115 4 -5.9782299999999999e-01 -7.6537120111275438e+00 7.3880238981626380e+00 -1.5346716094224409e+00 1 0 0
430 71 1 3.1932000000000002e-02 -1.0162945901246953e+01 1.0594591401539921e+01 -1.2047350840729667e+00 0 0 -1
691 115 3 9.9454000000000001e-02 -7.8226897725478226e+00 7.7818265554871662e+00 -2.8270892947711150e+00 1 0 0
340 56 1 3.1932000000000002e-02 -1.1111309421845027e+01 6.1230100815617217e+00 -1.7420036387336033e+00 2 0 0
682 113 1 3.1932000000000002e-02 -5.7849949802016569e+00 1.1193663220602149e+01 -3.8575718542054451e+00 0 -1 -2
51 8 2 4.0257300000000001e-01 -8.6454333323166690e+00 1.1068929779539859e+01 -5.4019980347808216e+00 0 -1 0
625 104 3 9.9454000000000001e-02 -8.5977143049110154e+00 8.5625913321848781e+00 4.2906140773932258e+00 0 -1 1
630 104 1 3.1932000000000002e-02 -7.6788718910030749e+00 8.6768607202859958e+00 4.8877641789493769e+00 0 -1 1
627 104 2 4.0257300000000001e-01 -9.4402895158479563e+00 1.0338351072349168e+01 3.6614884972233757e+00 0 -1 1
742 123 1 3.1932000000000002e-02 -9.7248411840366131e+00 6.7090460473490818e+00 2.7141820842872146e+00 1 -1 0
628 104 1 3.1932000000000002e-02 -9.1630540345472546e+00 7.7175223232443688e+00 4.8569192319609460e+00 0 -1 1
629 104 1 3.1932000000000002e-02 -8.4581018972617450e+00 8.3430489609693641e+00 3.2155191473373765e+00 0 -1 1
744 123 1 3.1932000000000002e-02 -9.5049078750313463e+00 7.1052989004418574e+00 1.0100677838324401e+00 1 -1 0
626 104 4 -5.9782299999999999e-01 -9.4154650322576305e+00 9.7215036096662129e+00 4.4099723246150422e+00 0 -1 1
215 35 1 3.1932000000000002e-02 -6.0357696889540522e+00 1.0567476350541403e+01 5.3583570664784492e+00 2 0 -1
739 123 3 9.9454000000000001e-02 -9.6687888724578510e+00 6.2407509568583226e+00 1.7028333381989889e+00 1 -1 0
374 62 4 -5.9782299999999999e-01 -9.1942232857469151e+00 9.5397207484418036e+00 7.2829957654818518e+00 -1 0 0
872 145 4 -5.9782299999999999e-01 -9.7670028249157994e+00 5.7946055820694244e+00 5.7984558646207542e+00 1 0 0
376 62 1 3.1932000000000002e-02 -1.0313616693093303e+01 7.8749958320859132e+00 7.3929915698256448e+00 -1 0 0
373 62 3 9.9454000000000001e-02 -9.8553537880170872e+00 8.5776906960859893e+00 8.0556750191598550e+00 -1 0 0
375 62 2 4.0257300000000001e-01 -9.2404041272740560e+00 9.3101913584622640e+00 6.3944289052518233e+00 -1 0 0
223 37 3 9.9454000000000001e-02 -5.7287983964435458e+00 7.0784872223928108e+00 7.8101696537429763e+00 -1 0 2
389 64 1 3.1932000000000002e-02 -1.1218128610424017e+01 1.1097072215744893e+01 7.9404582397273682e+00 1 -1 -1
316 52 1 3.1932000000000002e-02 -6.1073686179938065e+00 9.0396481939383495e+00 1.0152720897574008e+01 -2 3 -2
377 62 1 3.1932000000000002e-02 -9.2252571957190792e+00 8.0870434875578159e+00 8.7283607190111372e+00 -1 0 0
711 118 2 4.0257300000000001e-01 -9.1315988355603714e+00 1.0666577991694629e+01 9.2486847827160670e+00 1 -2 0
378 62 1 3.1932000000000002e-02 -1.0684108171855629e+01 9.1414344345723197e+00 8.5777145596191193e+00 -1 0 0
228 37 1 3.1932000000000002e-02 -6.1517366367463584e+00 7.7985513854891533e+00 7.0944622341395647e+00 -1 0 2
226 37 1 3.1932000000000002e-02 -6.5211364722016594e+00 6.9367410001568306e+00 8.5933310331486634e+00 -1 0 2
710 118 4 -5.9782299999999999e-01 -8.6341329591127085e+00 1.0894445688588236e+01 1.0023322398683787e+01 1 -2 0
960 159 1 3.1932000000000002e-02 -9.6270357928830421e+00 5.9812785277345544e+00 1.0480674367514000e+01 1 2 -1
313 52 3 9.9454000000000001e-02 -6.0545614087231856e+00 8.6504662171341788e+00 1.1178866090138715e+01 -2 3 -2
318 52 1 3.1932000000000002e-02 -6.0412558230414719e+00 7.5578485517810936e+00 1.1120278758240625e+01 -2 3 -2
874 145 1 3.1932000000000002e-02 -7.6218758728098006e+00 5.8966371583998427e+00 5.7104744122574029e+00 1 0 0
525 87 2 4.0257300000000001e-01 -2.7572310948929335e-01 -1.0940312140566178e+01 -1.0458451252845135e+01 2 -2 0
527 87 1 3.1932000000000002e-02 -9.4349683542334439e-01 -9.3860877011654900e+00 -8.7108072986489820e+00 2 -2 0
596 99 4 -5.9782299999999999e-01 -5.3656503488127676e+00 -9.1519291730113004e+00 -8.9256587608122580e+00 -2 1 1
599 99 1 3.1932000000000002e-02 -4.8058217869143744e+00 -1.0822360942043103e+01 -1.0072768725354416e+01 -2 1 1
526 87 1 3.1932000000000002e-02 -1.7974750062374412e+00 -1.0667779840626064e+01 -7.9963626112751314e+00 2 -2 0
523 87 3 9.9454000000000001e-02 -1.3681036827818218e+00 -1.0311975168331047e+01 -8.9215795032131986e+00 2 -2 0
528 87 1 3.1932000000000002e-02 -2.2405638226625673e+00 -1.0103293388748030e+01 -9.5764077228101172e+00 2 -2 0
184 30 1 3.1932000000000002e-02 -5.5638137385370774e+00 -6.0528783883699164e+00 -8.7769457357792824e+00 0 -1 2
597 99 2 4.0257300000000001e-01 -5.2732607653766141e+00 -8.6778836525775063e+00 -9.7728690974143788e+00 -2 1 1
585 97 2 4.0257300000000001e-01 -1.6161941532671573e+00 -9.3604444114819039e+00 -2.0372040016657849e+00 -2 1 3
2 0 4 -5.9782299999999999e-01 -1.1442530416245376e+00 -1.1084870314494992e+01 -3.6654133030953595e-01 -1 1 -1
587 97 1 3.1932000000000002e-02 -2.3681269067440596e+00 -6.9089753570223102e+00 -2.1923037816301498e+00 -2 1 3
507 84 2 4.0257300000000001e-01 -5.2493446394459538e+00 -7.9228437969708789e+00 -4.0372892885715670e+00 1 2 1
586 97 1 3.1932000000000002e-02 -2.0953648454248359e+00 -7.8182228528008473e+00 -7.4077114555483448e-01 -2 1 3
918 152 1 3.1932000000000002e-02 -9.4131385754035080e-01 -8.6787499950318256e+00 -4.3978882022051735e+00 -2 1 0
584 97 4 -5.9782299999999999e-01 -2.3695904385299027e+00 -8.9909970862952662e+00 -2.5300162072973471e+00 -2 1 3
679 113 3 9.9454000000000001e-02 -5.2446588193316472e+00 -1.0650577538451833e+01 -4.5894798029422317e+00 0 0 -2
681 113 2 4.0257300000000001e-01 -3.6783392900450576e+00 -9.8051861475909767e+00 -3.8237162078970455e+00 0 0 -2
680 113 4 -5.9782299999999999e-01 -4.5704410934433692e+00 -9.5146434826401638e+00 -4.0851654699433899e+00 0 0 -2
588 97 1 3.1932000000000002e-02 -3.6878835854297103e+00 -7.7907744917736412e+00 -1.4788641722999429e+00 -2 1 3
583 97 3 9.9454000000000001e-02 -2.6573419227748598e+00 -7.8429203057581756e+00 -1.6947521146332640e+00 -2 1 3
917 152 1 3.1932000000000002e-02 -8.9678319801191009e-02 -9.6962359352886374e+00 -5.5490938692988365e+00 -2 1 0
915 152 2 4.0257300000000001e-01 -3.8873020700070704e-01 -1.0851853220140255e+01 -3.6673889339908499e+00 -2 1 0
631 105 3 9.9454000000000001e-02 -3.5447406810313131e+00 -9.5024547698904751e+00 2.5981618535324600e+00 0 -2 0
635 105 1 3.1932000000000002e-02 -3.0249166615852445e+00 -8.7099295698099439e+00 2.1196517759728710e+00 0 -2 0
455 75 1 3.1932000000000002e-02 -2.6438846000407956e-01 -6.2860847915065916e+00 1.5924271382518178e+00 0 2 1
110 18 4 -5.9782299999999999e-01 -2.6211390774525025e+00 -6.7406666445675238e+00 5.0817989189910318e+00 -1 2 -1
456 75 1 3.1932000000000002e-02 -9.7880794913124625e-01 -6.8921726579810674e+00 2.9932760150633051e+00 0 2 1
451 75 3 9.9454000000000001e-02 -1.2385290445389376e+00 -6.3309026608884320e+00 2.1619991326606378e+00 0 2 1
632 105 4 -5.9782299999999999e-01 -2.8973165056342864e+00 -9.7601001656541495e+00 3.8689688809969063e+00 0 -2 0
111 18 2 4.0257300000000001e-01 -3.0757278865361961e+00 -7.3621356995484284e+00 4.5495352502103756e+00 -1 2 -1
636 105 1 3.1932000000000002e-02 -3.4096210929341613e+00 -1.0258435698577653e+01 1.7929102667043555e+00 0 -2 0
634 105 1 3.1932000000000002e-02 -4.5873644753131311e+00 -9.2186302895742660e+00 2.6964693670842568e+00 0 -2 0
633 105 2 4.0257300000000001e-01 -3.1647079877759037e+00 -1.0582755236256098e+01 4.2736801680449279e+00 0 -2 0
171 28 2 4.0257300000000001e-01 -4.9645272103931957e+00 -6.4915271898961668e+00 2.2531932814621101e+00 0 2 0
454 75 1 3.1932000000000002e-02 -1.9550995938631157e+00 -6.9326878688026845e+00 1.6225812356390996e+00 0 2 1
170 28 4 -5.9782299999999999e-01 -4.5822258013504573e+00 -5.6127220831840461e+00 2.2618829219999395e+00 0 2 0
533 88 1 3.1932000000000002e-02 -3.8107835781684019e+00 -9.4274244071357352e+00 1.0589821315386468e+01 0 0 0