
                                 *****************
                                 * O   R   C   A *
                                 *****************

           --- An Ab Initio, DFT and Semiempirical electronic structure package ---

                  #######################################################
                  #                        -***-                        #
                  #          Department of theory and spectroscopy      #
                  #               Directorship: Frank Neese             #
                  #        Max Planck Institute fuer Kohlenforschung    #
                  #                Kaiser Wilhelm Platz 1               #
                  #                 D-45470 Muelheim/Ruhr               #
                  #                      Germany                        #
                  #                                                     #
                  #                  All rights reserved                #
                  #                        -***-                        #
                  #######################################################


                         Program Version 4.1.2  - RELEASE  -


 With contributions from (in alphabetic order):
   Daniel Aravena         : Magnetic Properties
   Michael Atanasov       : Ab Initio Ligand Field Theory
   Alexander A. Auer      : GIAO ZORA
   Ute Becker             : Parallelization
   Giovanni Bistoni       : ED, Open-shell LED
   Martin Brehm           : Molecular dynamics
   Dmytro Bykov           : SCF Hessian
   Vijay G. Chilkuri      : MRCI spin determinant printing
   Dipayan Datta          : RHF DLPNO-CCSD density
   Achintya Kumar Dutta   : EOM-CC, STEOM-CC
   Dmitry Ganyushin       : Spin-Orbit,Spin-Spin,Magnetic field MRCI
   Miquel Garcia          : C-PCM Hessian
   Yang Guo               : DLPNO-NEVPT2, CIM, IAO-localization
   Andreas Hansen         : Spin unrestricted coupled pair/coupled cluster methods
   Benjamin Helmich-Paris : CASSCF linear response (MC-RPA)
   Lee Huntington         : MR-EOM, pCC
   Robert Izsak           : Overlap fitted RIJCOSX, COSX-SCS-MP3, EOM
   Christian Kollmar      : KDIIS, OOCD, Brueckner-CCSD(T), CCSD density
   Simone Kossmann        : Meta GGA functionals, TD-DFT gradient, OOMP2, MP2 Hessian
   Martin Krupicka        : AUTO-CI
   Lucas Lang             : DCDCAS
   Dagmar Lenk            : GEPOL surface, SMD
   Dimitrios Liakos       : Extrapolation schemes; parallel MDCI
   Dimitrios Manganas     : ROCIS; embedding schemes
   Dimitrios Pantazis     : SARC Basis sets
   Taras Petrenko         : DFT Hessian,TD-DFT gradient, ASA, ECA, R-Raman, ABS, FL, XAS/XES, NRVS
   Peter Pinski           : DLPNO-MP2, DLPNO-MP2 Gradient
   Christoph Reimann      : Effective Core Potentials
   Marius Retegan         : Local ZFS, SOC
   Christoph Riplinger    : Optimizer, TS searches, QM/MM, DLPNO-CCSD(T), (RO)-DLPNO pert. Triples
   Tobias Risthaus        : Range-separated hybrids, TD-DFT gradient, RPA, STAB
   Michael Roemelt        : Restricted open shell CIS
   Masaaki Saitow         : Open-shell DLPNO
   Barbara Sandhoefer     : DKH picture change effects
   Avijit Sen             : IP-ROCIS
   Kantharuban Sivalingam : CASSCF convergence, NEVPT2, FIC-MRCI
   Bernardo de Souza      : ESD, SOC TD-DFT
   Georgi Stoychev        : AutoAux, RI-MP2 NMR
   Willem Van den Heuvel  : Paramagnetic NMR
   Boris Wezisla          : Elementary symmetry handling
   Frank Wennmohs         : Technical directorship


 We gratefully acknowledge several colleagues who have allowed us to
 interface, adapt or use parts of their codes:
   Stefan Grimme, W. Hujo, H. Kruse,             : VdW corrections, initial TS optimization,
                  C. Bannwarth                     DFT functionals, gCP, sTDA/sTD-DF
   Ed Valeev                                     : LibInt (2-el integral package), F12 methods
   Garnet Chan, S. Sharma, J. Yang, R. Olivares  : DMRG
   Ulf Ekstrom                                   : XCFun DFT Library
   Mihaly Kallay                                 : mrcc  (arbitrary order and MRCC methods)
   Andreas Klamt, Michael Diedenhofen            : otool_cosmo (COSMO solvation model)
   Jiri Pittner, Ondrej Demel                    : Mk-CCSD
   Frank Weinhold                                : gennbo (NPA and NBO analysis)
   Christopher J. Cramer and Donald G. Truhlar   : smd solvation model
   Lars Goerigk                                  : TD-DFT with DH, B97 family of functionals
   V. Asgeirsson, H. Jonsson                     : NEB implementation
   FAccTs GmbH                                   : IRC, NEB, NEB-TS, Multilevel


 Your calculation uses the libint2 library for the computation of 2-el integrals
 For citations please refer to: http://libint.valeyev.net

 This ORCA versions uses:
   CBLAS   interface :  Fast vector & matrix operations
   LAPACKE interface :  Fast linear algebra routines
   SCALAPACK package :  Parallel linear algebra routines


Your calculation utilizes the atom-pairwise dispersion correction
with the zero-damping scheme (D30)
Cite in your paper:
S.Grimme, J.Antony, S.Ehrlich and H.Krieg, J.Chem.Phys., 132, (2010), 154104 
   

XCFun DFT library Copyright 2009-2010 Ulf Ekstrom and contributors.
See http://admol.org/xcfun for more information. This is free soft-
ware; see the source code for copying conditions. There is ABSOLUTELY
NO WARRANTY; not even for MERCHANTABILITY or FITNESS FOR A PARTICULAR
PURPOSE. For details see the documentation. Scientific users of this 
library should cite U. Ekstrom, L. Visscher, R. Bast, A. J. Thorvald-
sen and K. Ruud; J.Chem.Theor.Comp. 2010, DOI: 10.1021/ct100117s
XCFun Version 0.99 
----- Orbital basis set information -----
Your calculation utilizes the basis: def2-TZVP
   F. Weigend and R. Ahlrichs, Phys. Chem. Chem. Phys. 7, 3297 (2005).

================================================================================
                                        WARNINGS
                       Please study these warnings very carefully!
================================================================================


INFO   : the flag for use of LIBINT has been found!

Your calculation utilizes the atom-pairwise dispersion correction
with the zero-damping scheme (D30)
Cite in your paper:
S.Grimme, J.Antony, S.Ehrlich and H.Krieg, J.Chem.Phys., 132, (2010), 154104 
   

XCFun DFT library Copyright 2009-2010 Ulf Ekstrom and contributors.
See http://admol.org/xcfun for more information. This is free soft-
ware; see the source code for copying conditions. There is ABSOLUTELY
NO WARRANTY; not even for MERCHANTABILITY or FITNESS FOR A PARTICULAR
PURPOSE. For details see the documentation. Scientific users of this 
library should cite U. Ekstrom, L. Visscher, R. Bast, A. J. Thorvald-
sen and K. Ruud; J.Chem.Theor.Comp. 2010, DOI: 10.1021/ct100117s
XCFun Version 0.99 
----- Orbital basis set information -----
Your calculation utilizes the basis: def2-TZVP
   F. Weigend and R. Ahlrichs, Phys. Chem. Chem. Phys. 7, 3297 (2005).

================================================================================
                                        WARNINGS
                       Please study these warnings very carefully!
================================================================================


WARNING: MOInp is set but Guess=PModel. MOInp will be ignored!
         To read the initial guess from a file you must also specify
         'MORead' in the simple input or 'Guess MORead' in the %scf block


INFO   : the flag for use of LIBINT has been found!

Your calculation utilizes the atom-pairwise dispersion correction
with the zero-damping scheme (D30)
Cite in your paper:
S.Grimme, J.Antony, S.Ehrlich and H.Krieg, J.Chem.Phys., 132, (2010), 154104 
   

XCFun DFT library Copyright 2009-2010 Ulf Ekstrom and contributors.
See http://admol.org/xcfun for more information. This is free soft-
ware; see the source code for copying conditions. There is ABSOLUTELY
NO WARRANTY; not even for MERCHANTABILITY or FITNESS FOR A PARTICULAR
PURPOSE. For details see the documentation. Scientific users of this 
library should cite U. Ekstrom, L. Visscher, R. Bast, A. J. Thorvald-
sen and K. Ruud; J.Chem.Theor.Comp. 2010, DOI: 10.1021/ct100117s
XCFun Version 0.99 
----- Orbital basis set information -----
Your calculation utilizes the basis: def2-TZVP
   F. Weigend and R. Ahlrichs, Phys. Chem. Chem. Phys. 7, 3297 (2005).

================================================================================
                                        WARNINGS
                       Please study these warnings very carefully!
================================================================================


WARNING: MOInp is set but Guess=PModel. MOInp will be ignored!
         To read the initial guess from a file you must also specify
         'MORead' in the simple input or 'Guess MORead' in the %scf block


INFO   : the flag for use of LIBINT has been found!

================================================================================
                                       INPUT FILE
================================================================================
NAME = 19-77.in
|  1> #Run DFT-D3 single point of the dimer
|  2> ! wB97X-D3 def2-TZVP TIGHTSCF CHELPG PMODEL PAL8
|  3> 
|  4> %base "19-77_DFT_AB"
|  5> 
|  6> %scf
|  7> MaxIter 1000
|  8> end
|  9> 
| 10> * xyz 0 1
| 11>   C                      -4.824653            -10.147423           5.995258            
| 12>   O                      -3.540694            -9.794573            6.520729            
| 13>   H                      -3.402781            -8.849417            6.277806            
| 14>   H                      -5.412021            -9.291457            5.854448            
| 15>   H                      -4.591156            -10.588656           5.073679            
| 16>   H                      -5.447185            -10.807198           6.600243            
| 17>   C                      -3.557479            -7.362390            3.519988            
| 18>   O                      -2.721320            -8.442508            3.756280            
| 19>   H                      -2.822372            -9.065009            3.006001            
| 20>   H                      -3.327990            -6.455389            4.137939            
| 21>   H                      -3.609330            -6.983526            2.487599            
| 22>   H                      -4.582899            -7.558906            3.878854            
| 23> *
| 24> 
| 25> #Run DFT-D3 single point of the molecule with dimer basis set
| 26> $new_job
| 27> %base "19-77_DFT_A"
| 28> ! wB97X-D3 def2-TZVP TIGHTSCF CHELPG PMODEL
| 29> 
| 30> %scf
| 31> MaxIter 1000
| 32> end
| 33> 
| 34> * xyz 0 1
| 35>   C                      -4.824653            -10.147423           5.995258            
| 36>   O                      -3.540694            -9.794573            6.520729            
| 37>   H                      -3.402781            -8.849417            6.277806            
| 38>   H                      -5.412021            -9.291457            5.854448            
| 39>   H                      -4.591156            -10.588656           5.073679            
| 40>   H                      -5.447185            -10.807198           6.600243            
| 41>   C                    : -3.557479            -7.362390            3.519988            
| 42>   O                    : -2.721320            -8.442508            3.756280            
| 43>   H                    : -2.822372            -9.065009            3.006001            
| 44>   H                    : -3.327990            -6.455389            4.137939            
| 45>   H                    : -3.609330            -6.983526            2.487599            
| 46>   H                    : -4.582899            -7.558906            3.878854            
| 47> *
| 48> 
| 49> #Run DFT-D3 single point of the particle with dimer basis set
| 50> $new_job
| 51> %base "19-77_DFT_B"
| 52> ! wB97X-D3 def2-TZVP TIGHTSCF CHELPG PMODEL
| 53> 
| 54> %scf
| 55> MaxIter 1000
| 56> end
| 57> 
| 58> * xyz 0 1
| 59>   C                    : -4.824653            -10.147423           5.995258            
| 60>   O                    : -3.540694            -9.794573            6.520729            
| 61>   H                    : -3.402781            -8.849417            6.277806            
| 62>   H                    : -5.412021            -9.291457            5.854448            
| 63>   H                    : -4.591156            -10.588656           5.073679            
| 64>   H                    : -5.447185            -10.807198           6.600243            
| 65>   C                      -3.557479            -7.362390            3.519988            
| 66>   O                      -2.721320            -8.442508            3.756280            
| 67>   H                      -2.822372            -9.065009            3.006001            
| 68>   H                      -3.327990            -6.455389            4.137939            
| 69>   H                      -3.609330            -6.983526            2.487599            
| 70>   H                      -4.582899            -7.558906            3.878854            
| 71> *
| 72> 
| 73>                          ****END OF INPUT****
================================================================================


                 $$$$$$$$$$$$$$$$$$$$$$$$$$$$$$$$$$$$$$$$$$$$$$ 
                 $ THERE ARE  3 JOBS TO BE PROCESSED THIS RUN $
                 $$$$$$$$$$$$$$$$$$$$$$$$$$$$$$$$$$$$$$$$$$$$$$ 




                 $$$$$$$$$$$$$$$$  JOB NUMBER  1 $$$$$$$$$$$$$$


                       ****************************
                       * Single Point Calculation *
                       ****************************

---------------------------------
CARTESIAN COORDINATES (ANGSTROEM)
---------------------------------
  C     -4.824653  -10.147423    5.995258
  O     -3.540694   -9.794573    6.520729
  H     -3.402781   -8.849417    6.277806
  H     -5.412021   -9.291457    5.854448
  H     -4.591156  -10.588656    5.073679
  H     -5.447185  -10.807198    6.600243
  C     -3.557479   -7.362390    3.519988
  O     -2.721320   -8.442508    3.756280
  H     -2.822372   -9.065009    3.006001
  H     -3.327990   -6.455389    4.137939
  H     -3.609330   -6.983526    2.487599
  H     -4.582899   -7.558906    3.878854

----------------------------
CARTESIAN COORDINATES (A.U.)
----------------------------
  NO LB      ZA    FRAG     MASS         X           Y           Z
   0 C     6.0000    0    12.011   -9.117273  -19.175850   11.329396
   1 O     8.0000    0    15.999   -6.690942  -18.509061   12.322392
   2 H     1.0000    0     1.008   -6.430324  -16.722975   11.863334
   3 H     1.0000    0     1.008  -10.227238  -17.558309   11.063303
   4 H     1.0000    0     1.008   -8.676027  -20.009660    9.587864
   5 H     1.0000    0     1.008  -10.293688  -20.422644   12.472652
   6 C     6.0000    0    12.011   -6.722661  -13.912901    6.651813
   7 O     8.0000    0    15.999   -5.142550  -15.954028    7.098340
   8 H     1.0000    0     1.008   -5.333510  -17.130384    5.680519
   9 H     1.0000    0     1.008   -6.288990  -12.198917    7.819571
  10 H     1.0000    0     1.008   -6.820645  -13.196952    4.700881
  11 H     1.0000    0     1.008   -8.660424  -14.284262    7.329972

--------------------------------
INTERNAL COORDINATES (ANGSTROEM)
--------------------------------
 C      0   0   0     0.000000000000     0.00000000     0.00000000
 O      1   0   0     1.431493488641     0.00000000     0.00000000
 H      2   1   0     0.985571633030   105.74852594     0.00000000
 H      1   2   3     1.047619404498   110.53786789   337.62727005
 H      1   2   3     1.048100788350   103.10373908    95.77272752
 H      1   2   3     1.090346730116   117.23118896   218.17586348
 C      3   2   1     3.136995519770   131.63450421   306.75185689
 O      7   3   2     1.386236154654    56.70508623   302.98645825
 H      8   7   3     0.980121206559   107.58983867   132.94868070
 H      7   3   2     1.121240140881    83.61818781   178.20050681
 H      7   3   2     1.100933015228   171.82683208   345.93145099
 H      7   3   2     1.104033296877    71.07477059    76.47829304

---------------------------
INTERNAL COORDINATES (A.U.)
---------------------------
 C      0   0   0     0.000000000000     0.00000000     0.00000000
 O      1   0   0     2.705130656023     0.00000000     0.00000000
 H      2   1   0     1.862460471789   105.74852594     0.00000000
 H      1   2   3     1.979713767082   110.53786789   337.62727005
 H      1   2   3     1.980623450728   103.10373908    95.77272752
 H      1   2   3     2.060456710935   117.23118896   218.17586348
 C      3   2   1     5.928062415703   131.63450421   306.75185689
 O      7   3   2     2.619606689236    56.70508623   302.98645825
 H      8   7   3     1.852160658444   107.58983867   132.94868070
 H      7   3   2     2.118836796625    83.61818781   178.20050681
 H      7   3   2     2.080461890572   171.82683208   345.93145099
 H      7   3   2     2.086320573827    71.07477059    76.47829304

---------------------
BASIS SET INFORMATION
---------------------
There are 3 groups of distinct atoms

 Group   1 Type C   : 11s6p2d1f contracted to 5s3p2d1f pattern {62111/411/11/1}
 Group   2 Type O   : 11s6p2d1f contracted to 5s3p2d1f pattern {62111/411/11/1}
 Group   3 Type H   : 5s1p contracted to 3s1p pattern {311/1}

Atom   0C    basis set group =>   1
Atom   1O    basis set group =>   2
Atom   2H    basis set group =>   3
Atom   3H    basis set group =>   3
Atom   4H    basis set group =>   3
Atom   5H    basis set group =>   3
Atom   6C    basis set group =>   1
Atom   7O    basis set group =>   2
Atom   8H    basis set group =>   3
Atom   9H    basis set group =>   3
Atom  10H    basis set group =>   3
Atom  11H    basis set group =>   3


           ************************************************************
           *        Program running with 8 parallel MPI-processes     *
           *              working on a common directory               *
           ************************************************************
------------------------------------------------------------------------------
                           ORCA GTO INTEGRAL CALCULATION
------------------------------------------------------------------------------

                         BASIS SET STATISTICS AND STARTUP INFO

 # of primitive gaussian shells          ...  128
 # of primitive gaussian functions       ...  248
 # of contracted shells                  ...   76
 # of contracted basis functions         ...  172
 Highest angular momentum                ...    3
 Maximum contraction depth               ...    6
 Integral package used                   ... LIBINT
 Integral threshhold            Thresh   ...  2.500e-11
 Primitive cut-off              TCut     ...  2.500e-12


------------------------------ INTEGRAL EVALUATION ----------------------------


 * One electron integrals 
 Pre-screening matrix                    ... done
 Shell pair data                         ... done (   0.001 sec)



           ************************************************************
           *        Program running with 8 parallel MPI-processes     *
           *              working on a common directory               *
           ************************************************************
-------------------------------------------------------------------------------
                                 ORCA SCF
-------------------------------------------------------------------------------

------------
SCF SETTINGS
------------
Hamiltonian:
 Density Functional     Method          .... DFT(GTOs)
 Exchange Functional    Exchange        .... WB97X-D3
 Correlation Functional Correlation     .... WB97X-D3
 Gradients option       PostSCFGGA      .... off
 Hybrid DFT is turned on
   Fraction HF Exchange ScalHFX         ....  0.195728
   Scaling of DF-GGA-X  ScalDFX         ....  0.000000
   Scaling of DF-GGA-C  ScalDFC         ....  1.000000
   Scaling of DF-LDA-C  ScalLDAC        ....  1.000000
   Perturbative correction              ....  0.000000
   Density functional embedding theory  .... OFF
 Long-range corrected/Screened/Range-Separated Hybrid DFT is turned on
   Amount of maximum screened exact exchange              ....  0.804272
   Range separation parameter mu (erf(mu*r12)/r12)        ....  0.250000


General Settings:
 Integral files         IntName         .... 19-77_DFT_AB
 Hartree-Fock type      HFTyp           .... RHF
 Total Charge           Charge          ....    0
 Multiplicity           Mult            ....    1
 Number of Electrons    NEL             ....   36
 Basis Dimension        Dim             ....  172
 Nuclear Repulsion      ENuc            ....    128.2103261326 Eh

Convergence Acceleration:
 DIIS                   CNVDIIS         .... on
   Start iteration      DIISMaxIt       ....    12
   Startup error        DIISStart       ....  0.200000
   # of expansion vecs  DIISMaxEq       ....     5
   Bias factor          DIISBfac        ....   1.050
   Max. coefficient     DIISMaxC        ....  10.000
 Newton-Raphson         CNVNR           .... off
 SOSCF                  CNVSOSCF        .... on
   Start iteration      SOSCFMaxIt      ....   150
   Startup grad/error   SOSCFStart      ....  0.003300
 Level Shifting         CNVShift        .... on
   Level shift para.    LevelShift      ....    0.2500
   Turn off err/grad.   ShiftErr        ....    0.0010
 Zerner damping         CNVZerner       .... off
 Static damping         CNVDamp         .... on
   Fraction old density DampFac         ....    0.7000
   Max. Damping (<1)    DampMax         ....    0.9800
   Min. Damping (>=0)   DampMin         ....    0.0000
   Turn off err/grad.   DampErr         ....    0.1000
 Fernandez-Rico         CNVRico         .... off

SCF Procedure:
 Maximum # iterations   MaxIter         ....  1000
 SCF integral mode      SCFMode         .... Direct
   Integral package                     .... LIBINT
 Reset frequency        DirectResetFreq ....    20
 Integral Threshold     Thresh          ....  2.500e-11 Eh
 Primitive CutOff       TCut            ....  2.500e-12 Eh

Convergence Tolerance:
 Convergence Check Mode ConvCheckMode   .... Total+1el-Energy
 Convergence forced     ConvForced      .... 0
 Energy Change          TolE            ....  1.000e-08 Eh
 1-El. energy change                    ....  1.000e-05 Eh
 Orbital Gradient       TolG            ....  1.000e-05
 Orbital Rotation angle TolX            ....  1.000e-05
 DIIS Error             TolErr          ....  5.000e-07


Diagonalization of the overlap matrix:
Smallest eigenvalue                        ... 1.296e-03
Time for diagonalization                   ...    0.004 sec
Threshold for overlap eigenvalues          ... 1.000e-08
Number of eigenvalues below threshold      ... 0
Time for construction of square roots      ...    0.007 sec
Total time needed                          ...    0.011 sec

-------------------
DFT GRID GENERATION
-------------------

General Integration Accuracy     IntAcc      ...  4.340
Radial Grid Type                 RadialGrid  ... Gauss-Chebyshev
Angular Grid (max. acc.)         AngularGrid ... Lebedev-110
Angular grid pruning method      GridPruning ... 3 (G Style)
Weight generation scheme         WeightScheme... Becke
Basis function cutoff            BFCut       ...    1.0000e-11
Integration weight cutoff        WCut        ...    1.0000e-14
Grids for H and He will be reduced by one unit

# of grid points (after initial pruning)     ...  13096 (   0.0 sec)
# of grid points (after weights+screening)   ...  12431 (   0.0 sec)
nearest neighbour list constructed           ...    0.0 sec
Grid point re-assignment to atoms done       ...    0.0 sec
Grid point division into batches done        ...    0.0 sec
Reduced shell lists constructed in    0.0 sec

Total number of grid points                  ...    12431
Total number of batches                      ...      202
Average number of points per batch           ...       61
Average number of grid points per atom       ...     1036
Average number of shells per batch           ...    51.85 (68.23%)
Average number of basis functions per batch  ...   115.19 (66.97%)
Average number of large shells per batch     ...    41.63 (80.29%)
Average number of large basis fcns per batch ...    91.41 (79.36%)
Maximum spatial batch extension              ...  17.63, 16.87, 16.71 au
Average spatial batch extension              ...   0.39,  0.39,  0.41 au

Time for grid setup =    0.041 sec

------------------------------
INITIAL GUESS: MODEL POTENTIAL
------------------------------
Loading Hartree-Fock densities                     ... done
Calculating cut-offs                               ... done
Setting up the integral package                    ... done
Initializing the effective Hamiltonian             ... done
Starting the Coulomb interaction                   ... done (   0.0 sec)
Reading the grid                                   ... done
Mapping shells                                     ... done
Starting the XC term evaluation                    ... done (   0.0 sec)
  promolecular density results
     # of electrons  =     35.994940381
     EX              =    -28.863834283
     EC              =     -1.154489738
     EX+EC           =    -30.018324021
Transforming the Hamiltonian                       ... done (   0.0 sec)
Diagonalizing the Hamiltonian                      ... done (   0.0 sec)
Back transforming the eigenvectors                 ... done (   0.0 sec)
Now organizing SCF variables                       ... done
                      ------------------
                      INITIAL GUESS DONE (   0.2 sec)
                      ------------------
--------------
SCF ITERATIONS
--------------
ITER       Energy         Delta-E        Max-DP      RMS-DP      [F,P]     Damp
               ***  Starting incremental Fock matrix formation  ***
  0   -231.2897015178   0.000000000000 0.03573997  0.00106792  0.2471465 0.7000
  1   -231.3626993938  -0.072997875945 0.02143567  0.00076601  0.1244519 0.7000
                               ***Turning on DIIS***
  2   -231.3965708627  -0.033871468957 0.03205150  0.00139721  0.0495562 0.0000
  3   -231.4517613950  -0.055190532307 0.01757856  0.00050577  0.0583867 0.0000
  4   -231.4606588360  -0.008897441018 0.00442626  0.00010031  0.0065645 0.0000
                      *** Initiating the SOSCF procedure ***
                           *** Shutting down DIIS ***
                      *** Re-Reading the Fockian *** 
                      *** Removing any level shift *** 
ITER      Energy       Delta-E        Grad      Rot      Max-DP    RMS-DP
  5   -231.46084816  -0.0001893239  0.000448  0.000448  0.000813  0.000036
               *** Restarting incremental Fock matrix formation ***
  6   -231.46086597  -0.0000178094  0.000142  0.000187  0.000566  0.000022
  7   -231.46086776  -0.0000017949  0.000042  0.000105  0.000277  0.000010
  8   -231.46086790  -0.0000001371  0.000032  0.000024  0.000064  0.000002
  9   -231.46086794  -0.0000000403  0.000012  0.000010  0.000022  0.000001
 10   -231.46086795  -0.0000000036  0.000003  0.000004  0.000007  0.000000
                  ***Gradient check signals convergence***
              ***Rediagonalizing the Fockian in SOSCF/NRSCF***

               *****************************************************
               *                     SUCCESS                       *
               *           SCF CONVERGED AFTER  11 CYCLES          *
               *****************************************************

Setting up the final grid:

General Integration Accuracy     IntAcc      ...  4.670
Radial Grid Type                 RadialGrid  ... Gauss-Chebyshev
Angular Grid (max. acc.)         AngularGrid ... Lebedev-302
Angular grid pruning method      GridPruning ... 3 (G Style)
Weight generation scheme         WeightScheme... Becke
Basis function cutoff            BFCut       ...    1.0000e-11
Integration weight cutoff        WCut        ...    1.0000e-14
Grids for H and He will be reduced by one unit

# of grid points (after initial pruning)     ...  52000 (   0.0 sec)
# of grid points (after weights+screening)   ...  48895 (   0.0 sec)
nearest neighbour list constructed           ...    0.0 sec
Grid point re-assignment to atoms done       ...    0.0 sec
Grid point division into batches done        ...    0.2 sec
Reduced shell lists constructed in    0.2 sec

Total number of grid points                  ...    48895
Total number of batches                      ...      769
Average number of points per batch           ...       63
Average number of grid points per atom       ...     4075
Average number of shells per batch           ...    49.45 (65.06%)
Average number of basis functions per batch  ...   108.92 (63.32%)
Average number of large shells per batch     ...    39.58 (80.05%)
Average number of large basis fcns per batch ...    87.64 (80.47%)
Maximum spatial batch extension              ...  16.86, 14.38, 17.41 au
Average spatial batch extension              ...   0.27,  0.26,  0.27 au

Final grid set up in    0.2 sec
Final integration                            ... done (   0.1 sec)
Change in XC energy                          ...     0.000050215
Integrated number of electrons               ...    35.999870193
Previous integrated no of electrons          ...    35.999502137

----------------
TOTAL SCF ENERGY
----------------

Total Energy       :         -231.46081773 Eh           -6298.36905 eV

Components:
Nuclear Repulsion  :          128.21032613 Eh            3488.78034 eV
Electronic Energy  :         -359.67114386 Eh           -9787.14939 eV
One Electron Energy:         -569.24594224 Eh          -15489.96958 eV
Two Electron Energy:          209.57479838 Eh            5702.82019 eV

Virial components:
Potential Energy   :         -461.96772948 Eh          -12570.78101 eV
Kinetic Energy     :          230.50691175 Eh            6272.41195 eV
Virial Ratio       :            2.00413830


DFT components:
N(Alpha)           :       17.999935096737 electrons
N(Beta)            :       17.999935096737 electrons
N(Total)           :       35.999870193475 electrons
E(XC)              :      -21.309700382587 Eh       
DFET-embed. en.    :        0.000000000000 Eh       

---------------
SCF CONVERGENCE
---------------

  Last Energy change         ...   -5.8219e-10  Tolerance :   1.0000e-08
  Last MAX-Density change    ...    2.6116e-06  Tolerance :   1.0000e-07
  Last RMS-Density change    ...    8.4591e-08  Tolerance :   5.0000e-09
  Last Orbital Gradient      ...    1.0787e-06  Tolerance :   1.0000e-05
  Last Orbital Rotation      ...    1.5053e-06  Tolerance :   1.0000e-05

             **** THE GBW FILE WAS UPDATED (19-77_DFT_AB.gbw) ****
             **** DENSITY FILE WAS UPDATED (19-77_DFT_AB.scfp.tmp) ****
             **** ENERGY FILE WAS UPDATED (19-77_DFT_AB.en.tmp) ****
----------------
ORBITAL ENERGIES
----------------

  NO   OCC          E(Eh)            E(eV) 
   0   2.0000     -19.246999      -523.7375 
   1   2.0000     -19.215675      -522.8851 
   2   2.0000     -10.325153      -280.9617 
   3   2.0000     -10.295594      -280.1574 
   4   2.0000      -1.154140       -31.4057 
   5   2.0000      -1.112940       -30.2846 
   6   2.0000      -0.802195       -21.8288 
   7   2.0000      -0.791122       -21.5275 
   8   2.0000      -0.626220       -17.0403 
   9   2.0000      -0.595667       -16.2089 
  10   2.0000      -0.554528       -15.0895 
  11   2.0000      -0.539620       -14.6838 
  12   2.0000      -0.538317       -14.6483 
  13   2.0000      -0.516111       -14.0441 
  14   2.0000      -0.439880       -11.9698 
  15   2.0000      -0.423182       -11.5154 
  16   2.0000      -0.382321       -10.4035 
  17   2.0000      -0.358944        -9.7674 
  18   0.0000       0.094050         2.5592 
  19   0.0000       0.130038         3.5385 
  20   0.0000       0.151337         4.1181 
  21   0.0000       0.155503         4.2315 
  22   0.0000       0.190295         5.1782 
  23   0.0000       0.199953         5.4410 
  24   0.0000       0.205559         5.5935 
  25   0.0000       0.226211         6.1555 
  26   0.0000       0.242317         6.5938 
  27   0.0000       0.261171         7.1068 
  28   0.0000       0.297600         8.0981 
  29   0.0000       0.305835         8.3222 
  30   0.0000       0.334474         9.1015 
  31   0.0000       0.381258        10.3746 
  32   0.0000       0.403235        10.9726 
  33   0.0000       0.413706        11.2575 
  34   0.0000       0.453048        12.3281 
  35   0.0000       0.456387        12.4189 
  36   0.0000       0.482169        13.1205 
  37   0.0000       0.497776        13.5452 
  38   0.0000       0.522947        14.2301 
  39   0.0000       0.544832        14.8256 
  40   0.0000       0.548350        14.9214 
  41   0.0000       0.565752        15.3949 
  42   0.0000       0.581158        15.8141 
  43   0.0000       0.589552        16.0425 
  44   0.0000       0.606761        16.5108 
  45   0.0000       0.624660        16.9979 
  46   0.0000       0.649333        17.6693 
  47   0.0000       0.678275        18.4568 
  48   0.0000       0.743314        20.2266 
  49   0.0000       0.750996        20.4356 
  50   0.0000       0.756110        20.5748 
  51   0.0000       0.786993        21.4152 
  52   0.0000       0.790557        21.5122 
  53   0.0000       0.816277        22.2120 
  54   0.0000       0.896446        24.3935 
  55   0.0000       0.938641        25.5417 
  56   0.0000       0.984499        26.7896 
  57   0.0000       1.013256        27.5721 
  58   0.0000       1.043524        28.3957 
  59   0.0000       1.057957        28.7885 
  60   0.0000       1.099700        29.9244 
  61   0.0000       1.135229        30.8912 
  62   0.0000       1.390464        37.8364 
  63   0.0000       1.427063        38.8323 
  64   0.0000       1.473290        40.0903 
  65   0.0000       1.509874        41.0858 
  66   0.0000       1.552055        42.2336 
  67   0.0000       1.563800        42.5532 
  68   0.0000       1.580986        43.0208 
  69   0.0000       1.601508        43.5792 
  70   0.0000       1.621849        44.1328 
  71   0.0000       1.635643        44.5081 
  72   0.0000       1.645075        44.7648 
  73   0.0000       1.669166        45.4203 
  74   0.0000       1.692871        46.0654 
  75   0.0000       1.704798        46.3899 
  76   0.0000       1.734241        47.1911 
  77   0.0000       1.745620        47.5007 
  78   0.0000       1.819662        49.5155 
  79   0.0000       1.830195        49.8021 
  80   0.0000       1.971548        53.6486 
  81   0.0000       1.975365        53.7524 
  82   0.0000       2.015357        54.8406 
  83   0.0000       2.039669        55.5022 
  84   0.0000       2.053592        55.8811 
  85   0.0000       2.070068        56.3294 
  86   0.0000       2.080023        56.6003 
  87   0.0000       2.097805        57.0842 
  88   0.0000       2.117302        57.6147 
  89   0.0000       2.157372        58.7051 
  90   0.0000       2.263019        61.5799 
  91   0.0000       2.278678        62.0060 
  92   0.0000       2.316137        63.0253 
  93   0.0000       2.335008        63.5388 
  94   0.0000       2.365042        64.3561 
  95   0.0000       2.386727        64.9461 
  96   0.0000       2.420150        65.8556 
  97   0.0000       2.444156        66.5089 
  98   0.0000       2.485278        67.6278 
  99   0.0000       2.497247        67.9536 
 100   0.0000       2.506822        68.2141 
 101   0.0000       2.549698        69.3808 
 102   0.0000       2.570901        69.9578 
 103   0.0000       2.612650        71.0938 
 104   0.0000       2.672140        72.7126 
 105   0.0000       2.676435        72.8295 
 106   0.0000       2.694761        73.3282 
 107   0.0000       2.710970        73.7692 
 108   0.0000       2.779594        75.6366 
 109   0.0000       2.807233        76.3887 
 110   0.0000       2.879153        78.3457 
 111   0.0000       2.901926        78.9654 
 112   0.0000       2.941878        80.0526 
 113   0.0000       2.963350        80.6369 
 114   0.0000       2.996550        81.5403 
 115   0.0000       3.022352        82.2424 
 116   0.0000       3.102004        84.4098 
 117   0.0000       3.131189        85.2040 
 118   0.0000       3.168658        86.2236 
 119   0.0000       3.171374        86.2975 
 120   0.0000       3.221949        87.6737 
 121   0.0000       3.312410        90.1353 
 122   0.0000       3.322332        90.4052 
 123   0.0000       3.438472        93.5656 
 124   0.0000       3.463567        94.2485 
 125   0.0000       3.478560        94.6564 
 126   0.0000       3.534641        96.1825 
 127   0.0000       3.571797        97.1935 
 128   0.0000       3.593780        97.7917 
 129   0.0000       3.637980        98.9945 
 130   0.0000       3.645222        99.1915 
 131   0.0000       3.658958        99.5653 
 132   0.0000       3.671316        99.9016 
 133   0.0000       3.689148       100.3868 
 134   0.0000       3.989988       108.5731 
 135   0.0000       4.001472       108.8856 
 136   0.0000       4.200725       114.3075 
 137   0.0000       4.261728       115.9675 
 138   0.0000       4.311160       117.3126 
 139   0.0000       4.376881       119.1010 
 140   0.0000       4.401681       119.7758 
 141   0.0000       4.526347       123.1682 
 142   0.0000       4.553715       123.9129 
 143   0.0000       4.601076       125.2017 
 144   0.0000       5.349158       145.5580 
 145   0.0000       5.372805       146.2014 
 146   0.0000       5.434768       147.8875 
 147   0.0000       5.443927       148.1368 
 148   0.0000       5.533712       150.5800 
 149   0.0000       5.550520       151.0373 
 150   0.0000       5.780830       157.3044 
 151   0.0000       5.825725       158.5260 
 152   0.0000       5.832198       158.7022 
 153   0.0000       5.861243       159.4925 
 154   0.0000       5.971312       162.4877 
 155   0.0000       6.007104       163.4616 
 156   0.0000       6.269528       170.6025 
 157   0.0000       6.292167       171.2186 
 158   0.0000       6.514357       177.2647 
 159   0.0000       6.542483       178.0300 
 160   0.0000       6.745350       183.5503 
 161   0.0000       6.799387       185.0207 
 162   0.0000       6.814663       185.4364 
 163   0.0000       6.837905       186.0689 
 164   0.0000       7.025907       191.1846 
 165   0.0000       7.043166       191.6543 
 166   0.0000       7.178888       195.3475 
 167   0.0000       7.198750       195.8879 
 168   0.0000      22.423632       610.1780 
 169   0.0000      22.509885       612.5251 
 170   0.0000      43.656576      1187.9558 
 171   0.0000      43.733545      1190.0502 

                    ********************************
                    * MULLIKEN POPULATION ANALYSIS *
                    ********************************

-----------------------
MULLIKEN ATOMIC CHARGES
-----------------------
   0 C :   -0.168289
   1 O :   -0.477084
   2 H :    0.324137
   3 H :    0.103933
   4 H :    0.100089
   5 H :    0.114822
   6 C :   -0.196659
   7 O :   -0.463765
   8 H :    0.328091
   9 H :    0.120632
  10 H :    0.117969
  11 H :    0.096125
Sum of atomic charges:   -0.0000000

--------------------------------
MULLIKEN REDUCED ORBITAL CHARGES
--------------------------------
  0 C s       :     3.210941  s :     3.210941
      pz      :     1.008444  p :     2.851412
      px      :     0.770896
      py      :     1.072073
      dz2     :     0.020099  d :     0.098548
      dxz     :     0.023756
      dyz     :     0.011286
      dx2y2   :     0.018946
      dxy     :     0.024461
      f0      :     0.000406  f :     0.007388
      f+1     :     0.002064
      f-1     :     0.000420
      f+2     :     0.000866
      f-2     :     0.001089
      f+3     :     0.001748
      f-3     :     0.000795
  1 O s       :     3.801763  s :     3.801763
      pz      :     1.805455  p :     4.644237
      px      :     1.446103
      py      :     1.392679
      dz2     :     0.003659  d :     0.029521
      dxz     :     0.006169
      dyz     :     0.004009
      dx2y2   :     0.012418
      dxy     :     0.003264
      f0      :     0.000245  f :     0.001564
      f+1     :     0.000213
      f-1     :     0.000191
      f+2     :     0.000288
      f-2     :     0.000107
      f+3     :     0.000135
      f-3     :     0.000385
  2 H s       :     0.631189  s :     0.631189
      pz      :     0.015435  p :     0.044673
      px      :     0.011118
      py      :     0.018121
  3 H s       :     0.875400  s :     0.875400
      pz      :     0.004791  p :     0.020667
      px      :     0.006447
      py      :     0.009429
  4 H s       :     0.878068  s :     0.878068
      pz      :     0.011232  p :     0.021843
      px      :     0.004435
      py      :     0.006177
  5 H s       :     0.864801  s :     0.864801
      pz      :     0.006244  p :     0.020377
      px      :     0.006402
      py      :     0.007731
  6 C s       :     3.219004  s :     3.219004
      pz      :     1.080962  p :     2.864690
      px      :     0.923002
      py      :     0.860726
      dz2     :     0.009211  d :     0.104936
      dxz     :     0.010878
      dyz     :     0.028056
      dx2y2   :     0.044876
      dxy     :     0.011914
      f0      :     0.001164  f :     0.008029
      f+1     :     0.000342
      f-1     :     0.000809
      f+2     :     0.000478
      f-2     :     0.001249
      f+3     :     0.001465
      f-3     :     0.002521
  7 O s       :     3.803211  s :     3.803211
      pz      :     1.577981  p :     4.627639
      px      :     1.696441
      py      :     1.353218
      dz2     :     0.005321  d :     0.031238
      dxz     :     0.004065
      dyz     :     0.010071
      dx2y2   :     0.004835
      dxy     :     0.006946
      f0      :     0.000060  f :     0.001677
      f+1     :     0.000090
      f-1     :     0.000447
      f+2     :     0.000240
      f-2     :     0.000192
      f+3     :     0.000371
      f-3     :     0.000276
  8 H s       :     0.626797  s :     0.626797
      pz      :     0.016537  p :     0.045112
      px      :     0.013895
      py      :     0.014681
  9 H s       :     0.859793  s :     0.859793
      pz      :     0.006444  p :     0.019575
      px      :     0.003877
      py      :     0.009254
 10 H s       :     0.862726  s :     0.862726
      pz      :     0.011139  p :     0.019305
      px      :     0.003531
      py      :     0.004635
 11 H s       :     0.883855  s :     0.883855
      pz      :     0.005089  p :     0.020020
      px      :     0.011419
      py      :     0.003513


                     *******************************
                     * LOEWDIN POPULATION ANALYSIS *
                     *******************************

----------------------
LOEWDIN ATOMIC CHARGES
----------------------
   0 C :   -0.368760
   1 O :   -0.099774
   2 H :    0.182398
   3 H :    0.085614
   4 H :    0.088195
   5 H :    0.103145
   6 C :   -0.431603
   7 O :   -0.052990
   8 H :    0.190171
   9 H :    0.112702
  10 H :    0.099440
  11 H :    0.091462

-------------------------------
LOEWDIN REDUCED ORBITAL CHARGES
-------------------------------
  0 C s       :     2.846642  s :     2.846642
      pz      :     1.063477  p :     3.066184
      px      :     0.900079
      py      :     1.102627
      dz2     :     0.074543  d :     0.400801
      dxz     :     0.093622
      dyz     :     0.050715
      dx2y2   :     0.077108
      dxy     :     0.104814
      f0      :     0.004792  f :     0.055133
      f+1     :     0.012743
      f-1     :     0.002729
      f+2     :     0.008178
      f-2     :     0.005928
      f+3     :     0.013589
      f-3     :     0.007173
  1 O s       :     3.390938  s :     3.390938
      pz      :     1.752474  p :     4.637675
      px      :     1.489456
      py      :     1.395745
      dz2     :     0.008287  d :     0.066840
      dxz     :     0.014596
      dyz     :     0.006096
      dx2y2   :     0.026050
      dxy     :     0.011812
      f0      :     0.000353  f :     0.004320
      f+1     :     0.000644
      f-1     :     0.000267
      f+2     :     0.000910
      f-2     :     0.000421
      f+3     :     0.000520
      f-3     :     0.001205
  2 H s       :     0.669775  s :     0.669775
      pz      :     0.044458  p :     0.147827
      px      :     0.028847
      py      :     0.074522
  3 H s       :     0.846480  s :     0.846480
      pz      :     0.016502  p :     0.067906
      px      :     0.020843
      py      :     0.030561
  4 H s       :     0.844172  s :     0.844172
      pz      :     0.033923  p :     0.067633
      px      :     0.013761
      py      :     0.019950
  5 H s       :     0.836564  s :     0.836564
      pz      :     0.019396  p :     0.060291
      px      :     0.018178
      py      :     0.022718
  6 C s       :     2.859088  s :     2.859088
      pz      :     1.103583  p :     3.072676
      px      :     1.011868
      py      :     0.957226
      dz2     :     0.057224  d :     0.439864
      dxz     :     0.040710
      dyz     :     0.108734
      dx2y2   :     0.152463
      dxy     :     0.080733
      f0      :     0.007078  f :     0.059975
      f+1     :     0.003517
      f-1     :     0.004762
      f+2     :     0.006298
      f-2     :     0.011140
      f+3     :     0.010703
      f-3     :     0.016478
  7 O s       :     3.362955  s :     3.362955
      pz      :     1.552687  p :     4.610496
      px      :     1.673421
      py      :     1.384388
      dz2     :     0.008892  d :     0.074640
      dxz     :     0.006660
      dyz     :     0.024746
      dx2y2   :     0.017270
      dxy     :     0.017073
      f0      :     0.000324  f :     0.004899
      f+1     :     0.000301
      f-1     :     0.001143
      f+2     :     0.000470
      f-2     :     0.000777
      f+3     :     0.000903
      f-3     :     0.000981
  8 H s       :     0.661707  s :     0.661707
      pz      :     0.064680  p :     0.148122
      px      :     0.038420
      py      :     0.045022
  9 H s       :     0.831137  s :     0.831137
      pz      :     0.019044  p :     0.056161
      px      :     0.011454
      py      :     0.025662
 10 H s       :     0.840636  s :     0.840636
      pz      :     0.034223  p :     0.059924
      px      :     0.011321
      py      :     0.014381
 11 H s       :     0.849203  s :     0.849203
      pz      :     0.015606  p :     0.059336
      px      :     0.032791
      py      :     0.010939


                      *****************************
                      * MAYER POPULATION ANALYSIS *
                      *****************************

  NA   - Mulliken gross atomic population
  ZA   - Total nuclear charge
  QA   - Mulliken gross atomic charge
  VA   - Mayer's total valence
  BVA  - Mayer's bonded valence
  FA   - Mayer's free valence

  ATOM       NA         ZA         QA         VA         BVA        FA
  0 C      6.1683     6.0000    -0.1683     3.9596     3.9596    -0.0000
  1 O      8.4771     8.0000    -0.4771     1.8712     1.8712    -0.0000
  2 H      0.6759     1.0000     0.3241     0.9087     0.9087    -0.0000
  3 H      0.8961     1.0000     0.1039     0.9574     0.9574    -0.0000
  4 H      0.8999     1.0000     0.1001     0.9660     0.9660    -0.0000
  5 H      0.8852     1.0000     0.1148     0.9599     0.9599    -0.0000
  6 C      6.1967     6.0000    -0.1967     3.9390     3.9390    -0.0000
  7 O      8.4638     8.0000    -0.4638     1.9014     1.9014    -0.0000
  8 H      0.6719     1.0000     0.3281     0.9033     0.9033    -0.0000
  9 H      0.8794     1.0000     0.1206     0.9539     0.9539     0.0000
 10 H      0.8820     1.0000     0.1180     0.9643     0.9643    -0.0000
 11 H      0.9039     1.0000     0.0961     0.9467     0.9467    -0.0000

  Mayer bond orders larger than 0.1
B(  0-C ,  1-O ) :   0.9984 B(  0-C ,  3-H ) :   0.9873 B(  0-C ,  4-H ) :   0.9903 
B(  0-C ,  5-H ) :   0.9690 B(  1-O ,  2-H ) :   0.8934 B(  6-C ,  7-O ) :   1.0031 
B(  6-C ,  9-H ) :   0.9722 B(  6-C , 10-H ) :   0.9743 B(  6-C , 11-H ) :   0.9737 
B(  7-O ,  8-H ) :   0.8875 

-------
TIMINGS
-------

Total SCF time: 0 days 0 hours 0 min 11 sec 

Total time                  ....      11.877 sec
Sum of individual times     ....      11.482 sec  ( 96.7%)

Fock matrix formation       ....      10.934 sec  ( 92.1%)
  XC integration            ....       1.583 sec  ( 14.5% of F)
    Basis function eval.    ....       0.070 sec  (  4.4% of XC)
    Density eval.           ....       0.072 sec  (  4.5% of XC)
    XC-Functional eval.     ....       0.093 sec  (  5.9% of XC)
    XC-Potential eval.      ....       0.080 sec  (  5.1% of XC)
Diagonalization             ....       0.066 sec  (  0.6%)
Density matrix formation    ....       0.006 sec  (  0.0%)
Population analysis         ....       0.014 sec  (  0.1%)
Initial guess               ....       0.109 sec  (  0.9%)
Orbital Transformation      ....       0.000 sec  (  0.0%)
Orbital Orthonormalization  ....       0.000 sec  (  0.0%)
DIIS solution               ....       0.042 sec  (  0.4%)
SOSCF solution              ....       0.028 sec  (  0.2%)
Grid generation             ....       0.283 sec  (  2.4%)


-------------------------------------------------------------------------------
                          DFT DISPERSION CORRECTION                            
                                                                               
                              DFTD3 V3.1  Rev 1                                
                              USING zero damping                               
-------------------------------------------------------------------------------
The omegaB97X-D3 functional is recognized. Fit by Chai et al.
Active option DFTDOPT                   ...         3   

molecular C6(AA) [au] = 834.867003 


            DFT-D V3
 parameters
 s6 scaling factor         :     1.0000 
 rs6 scaling factor        :     1.2810 
 s8 scaling factor         :     1.0000 
 rs8 scaling factor        :     1.0940 
 Damping factor alpha6     :    14.0000 
 Damping factor alpha8     :    16.0000 
 ad hoc parameters k1-k3   :    16.0000     1.3333    -4.0000 

 Edisp/kcal,au: -1.402323355694  -0.002234744277 
 E6   /kcal   :  -0.643458622 
 E8   /kcal   :  -0.758864734 
 % E8         :  54.114818154 

-------------------------   ----------------
Dispersion correction           -0.002234744
-------------------------   ----------------


-------------------------   --------------------
FINAL SINGLE POINT ENERGY      -231.463052475738
-------------------------   --------------------


                            ***************************************
                            *     ORCA property calculations      *
                            ***************************************

                                    ---------------------
                                    Active property flags
                                    ---------------------
   (+) Dipole Moment


------------------------------------------------------------------------------
                       ORCA ELECTRIC PROPERTIES CALCULATION
------------------------------------------------------------------------------

Dipole Moment Calculation                       ... on
Quadrupole Moment Calculation                   ... off
Polarizability Calculation                      ... off
GBWName                                         ... 19-77_DFT_AB.gbw
Electron density file                           ... 19-77_DFT_AB.scfp.tmp
The origin for moment calculation is the CENTER OF MASS  = (-6.909840, -16.874419  9.327864)

-------------
DIPOLE MOMENT
-------------
                                X             Y             Z
Electronic contribution:      2.93960      -1.20584       1.03078
Nuclear contribution   :     -3.68415       1.71775      -2.03190
                        -----------------------------------------
Total Dipole Moment    :     -0.74455       0.51191      -1.00112
                        -----------------------------------------
Magnitude (a.u.)       :      1.34858
Magnitude (Debye)      :      3.42781



--------------------
Rotational spectrum 
--------------------
 
Rotational constants in cm-1:     0.440453     0.079357     0.074710 
Rotational constants in MHz : 13204.448497  2379.058969  2239.761083 

 Dipole components along the rotational axes: 
x,y,z [a.u.] :    -0.844353     1.024873     0.235299 
x,y,z [Debye]:    -2.146175     2.605020     0.598084 

 
------------------------------------------------------------------------------
                      ORCA CHELPG CHARGES GENERATION
------------------------------------------------------------------------------

GBW file                           ... 19-77_DFT_AB.gbw

Reading the GBW file               ... done

Grid spacing                       ...     0.300000
Point Cut-Off                      ...     2.800000
Van-der-Waals Radii                ...        COSMO
Total charge                       ...            0


Number of points X direction       ...           27
Number of points Y direction       ...           33
Number of points Z direction       ...           32
Maximum number of possible points  ...        28512
Final number of points             ...         9606


CHELPG Charges            
--------------------------------
  0   C   :       0.170321
  1   O   :      -0.633847
  2   H   :       0.422062
  3   H   :      -0.007712
  4   H   :       0.012436
  5   H   :       0.036635
  6   C   :       0.021295
  7   O   :      -0.572997
  8   H   :       0.415706
  9   H   :       0.085589
 10   H   :       0.032771
 11   H   :       0.017740
--------------------------------
Total charge:    -0.000000
--------------------------------

CHELPG charges calculated...

Timings for individual parts in CHELPG calculation:
Grid generation                 ...        0.001 sec (=   0.000 min)
Potential calculation           ...        2.130 sec (=   0.035 min)
Fit to the potential            ...        0.003 sec (=   0.000 min)
------------------------------------------------------------------------------


Timings for individual modules:

Sum of individual times         ...       19.186 sec (=   0.320 min)
GTO integral calculation        ...        3.712 sec (=   0.062 min)  19.3 %
SCF iterations                  ...       13.306 sec (=   0.222 min)  69.4 %
CHELPG charge generation        ...        2.168 sec (=   0.036 min)  11.3 %


                 $$$$$$$$$$$$$$$$  JOB NUMBER  2 $$$$$$$$$$$$$$


                       ****************************
                       * Single Point Calculation *
                       ****************************

---------------------------------
CARTESIAN COORDINATES (ANGSTROEM)
---------------------------------
  C     -4.824653  -10.147423    5.995258
  O     -3.540694   -9.794573    6.520729
  H     -3.402781   -8.849417    6.277806
  H     -5.412021   -9.291457    5.854448
  H     -4.591156  -10.588656    5.073679
  H     -5.447185  -10.807198    6.600243
  C     -3.557479   -7.362390    3.519988
  O     -2.721320   -8.442508    3.756280
  H     -2.822372   -9.065009    3.006001
  H     -3.327990   -6.455389    4.137939
  H     -3.609330   -6.983526    2.487599
  H     -4.582899   -7.558906    3.878854

----------------------------
CARTESIAN COORDINATES (A.U.)
----------------------------
  NO LB      ZA    FRAG     MASS         X           Y           Z
   0 C     6.0000    0    12.011   -9.117273  -19.175850   11.329396
   1 O     8.0000    0    15.999   -6.690942  -18.509061   12.322392
   2 H     1.0000    0     1.008   -6.430324  -16.722975   11.863334
   3 H     1.0000    0     1.008  -10.227238  -17.558309   11.063303
   4 H     1.0000    0     1.008   -8.676027  -20.009660    9.587864
   5 H     1.0000    0     1.008  -10.293688  -20.422644   12.472652
   6 C     0.0000    0     0.000   -6.722661  -13.912901    6.651813
   7 O     0.0000    0     0.000   -5.142550  -15.954028    7.098340
   8 H     0.0000    0     0.000   -5.333510  -17.130384    5.680519
   9 H     0.0000    0     0.000   -6.288990  -12.198917    7.819571
  10 H     0.0000    0     0.000   -6.820645  -13.196952    4.700881
  11 H     0.0000    0     0.000   -8.660424  -14.284262    7.329972

--------------------------------
INTERNAL COORDINATES (ANGSTROEM)
--------------------------------
 C      0   0   0     0.000000000000     0.00000000     0.00000000
 O      1   0   0     1.431493488641     0.00000000     0.00000000
 H      2   1   0     0.985571633030   105.74852594     0.00000000
 H      1   2   3     1.047619404498   110.53786789   337.62727005
 H      1   2   3     1.048100788350   103.10373908    95.77272752
 H      1   2   3     1.090346730116   117.23118896   218.17586348
 C      3   2   1     3.136995519770   131.63450421   306.75185689
 O      7   3   2     1.386236154654    56.70508623   302.98645825
 H      8   7   3     0.980121206559   107.58983867   132.94868070
 H      7   3   2     1.121240140881    83.61818781   178.20050681
 H      7   3   2     1.100933015228   171.82683208   345.93145099
 H      7   3   2     1.104033296877    71.07477059    76.47829304

---------------------------
INTERNAL COORDINATES (A.U.)
---------------------------
 C      0   0   0     0.000000000000     0.00000000     0.00000000
 O      1   0   0     2.705130656023     0.00000000     0.00000000
 H      2   1   0     1.862460471789   105.74852594     0.00000000
 H      1   2   3     1.979713767082   110.53786789   337.62727005
 H      1   2   3     1.980623450728   103.10373908    95.77272752
 H      1   2   3     2.060456710935   117.23118896   218.17586348
 C      3   2   1     5.928062415703   131.63450421   306.75185689
 O      7   3   2     2.619606689236    56.70508623   302.98645825
 H      8   7   3     1.852160658444   107.58983867   132.94868070
 H      7   3   2     2.118836796625    83.61818781   178.20050681
 H      7   3   2     2.080461890572   171.82683208   345.93145099
 H      7   3   2     2.086320573827    71.07477059    76.47829304

---------------------
BASIS SET INFORMATION
---------------------
There are 3 groups of distinct atoms

 Group   1 Type C   : 11s6p2d1f contracted to 5s3p2d1f pattern {62111/411/11/1}
 Group   2 Type O   : 11s6p2d1f contracted to 5s3p2d1f pattern {62111/411/11/1}
 Group   3 Type H   : 5s1p contracted to 3s1p pattern {311/1}

Atom   0C    basis set group =>   1
Atom   1O    basis set group =>   2
Atom   2H    basis set group =>   3
Atom   3H    basis set group =>   3
Atom   4H    basis set group =>   3
Atom   5H    basis set group =>   3
Atom   6C    basis set group =>   1
Atom   7O    basis set group =>   2
Atom   8H    basis set group =>   3
Atom   9H    basis set group =>   3
Atom  10H    basis set group =>   3
Atom  11H    basis set group =>   3


           ************************************************************
           *        Program running with 8 parallel MPI-processes     *
           *              working on a common directory               *
           ************************************************************
------------------------------------------------------------------------------
                           ORCA GTO INTEGRAL CALCULATION
------------------------------------------------------------------------------

                         BASIS SET STATISTICS AND STARTUP INFO

 # of primitive gaussian shells          ...  128
 # of primitive gaussian functions       ...  248
 # of contracted shells                  ...   76
 # of contracted basis functions         ...  172
 Highest angular momentum                ...    3
 Maximum contraction depth               ...    6
 Integral package used                   ... LIBINT
 Integral threshhold            Thresh   ...  2.500e-11
 Primitive cut-off              TCut     ...  2.500e-12


------------------------------ INTEGRAL EVALUATION ----------------------------


 * One electron integrals 
 Pre-screening matrix                    ... done
 Shell pair data                         ... done (   0.001 sec)



           ************************************************************
           *        Program running with 8 parallel MPI-processes     *
           *              working on a common directory               *
           ************************************************************
-------------------------------------------------------------------------------
                                 ORCA SCF
-------------------------------------------------------------------------------

------------
SCF SETTINGS
------------
Hamiltonian:
 Density Functional     Method          .... DFT(GTOs)
 Exchange Functional    Exchange        .... WB97X-D3
 Correlation Functional Correlation     .... WB97X-D3
 Gradients option       PostSCFGGA      .... off
 Hybrid DFT is turned on
   Fraction HF Exchange ScalHFX         ....  0.195728
   Scaling of DF-GGA-X  ScalDFX         ....  0.000000
   Scaling of DF-GGA-C  ScalDFC         ....  1.000000
   Scaling of DF-LDA-C  ScalLDAC        ....  1.000000
   Perturbative correction              ....  0.000000
   Density functional embedding theory  .... OFF
 Long-range corrected/Screened/Range-Separated Hybrid DFT is turned on
   Amount of maximum screened exact exchange              ....  0.804272
   Range separation parameter mu (erf(mu*r12)/r12)        ....  0.250000


General Settings:
 Integral files         IntName         .... 19-77_DFT_A
 Hartree-Fock type      HFTyp           .... RHF
 Total Charge           Charge          ....    0
 Multiplicity           Mult            ....    1
 Number of Electrons    NEL             ....   18
 Basis Dimension        Dim             ....  172
 Nuclear Repulsion      ENuc            ....     40.4089178385 Eh

Convergence Acceleration:
 DIIS                   CNVDIIS         .... on
   Start iteration      DIISMaxIt       ....    12
   Startup error        DIISStart       ....  0.200000
   # of expansion vecs  DIISMaxEq       ....     5
   Bias factor          DIISBfac        ....   1.050
   Max. coefficient     DIISMaxC        ....  10.000
 Newton-Raphson         CNVNR           .... off
 SOSCF                  CNVSOSCF        .... on
   Start iteration      SOSCFMaxIt      ....   150
   Startup grad/error   SOSCFStart      ....  0.003300
 Level Shifting         CNVShift        .... on
   Level shift para.    LevelShift      ....    0.2500
   Turn off err/grad.   ShiftErr        ....    0.0010
 Zerner damping         CNVZerner       .... off
 Static damping         CNVDamp         .... on
   Fraction old density DampFac         ....    0.7000
   Max. Damping (<1)    DampMax         ....    0.9800
   Min. Damping (>=0)   DampMin         ....    0.0000
   Turn off err/grad.   DampErr         ....    0.1000
 Fernandez-Rico         CNVRico         .... off

SCF Procedure:
 Maximum # iterations   MaxIter         ....  1000
 SCF integral mode      SCFMode         .... Direct
   Integral package                     .... LIBINT
 Reset frequency        DirectResetFreq ....    20
 Integral Threshold     Thresh          ....  2.500e-11 Eh
 Primitive CutOff       TCut            ....  2.500e-12 Eh

Convergence Tolerance:
 Convergence Check Mode ConvCheckMode   .... Total+1el-Energy
 Convergence forced     ConvForced      .... 0
 Energy Change          TolE            ....  1.000e-08 Eh
 1-El. energy change                    ....  1.000e-05 Eh
 Orbital Gradient       TolG            ....  1.000e-05
 Orbital Rotation angle TolX            ....  1.000e-05
 DIIS Error             TolErr          ....  5.000e-07


Diagonalization of the overlap matrix:
Smallest eigenvalue                        ... 1.296e-03
Time for diagonalization                   ...    0.004 sec
Threshold for overlap eigenvalues          ... 1.000e-08
Number of eigenvalues below threshold      ... 0
Time for construction of square roots      ...    0.008 sec
Total time needed                          ...    0.012 sec

-------------------
DFT GRID GENERATION
-------------------

General Integration Accuracy     IntAcc      ...  4.340
Radial Grid Type                 RadialGrid  ... Gauss-Chebyshev
Angular Grid (max. acc.)         AngularGrid ... Lebedev-110
Angular grid pruning method      GridPruning ... 3 (G Style)
Weight generation scheme         WeightScheme... Becke
Basis function cutoff            BFCut       ...    1.0000e-11
Integration weight cutoff        WCut        ...    1.0000e-14
Grids for H and He will be reduced by one unit

# of grid points (after initial pruning)     ...  13096 (   0.0 sec)
# of grid points (after weights+screening)   ...  12431 (   0.0 sec)
nearest neighbour list constructed           ...    0.0 sec
Grid point re-assignment to atoms done       ...    0.0 sec
Grid point division into batches done        ...    0.0 sec
Reduced shell lists constructed in    0.0 sec

Total number of grid points                  ...    12431
Total number of batches                      ...      202
Average number of points per batch           ...       61
Average number of grid points per atom       ...     1036
Average number of shells per batch           ...    51.85 (68.23%)
Average number of basis functions per batch  ...   115.19 (66.97%)
Average number of large shells per batch     ...    41.63 (80.29%)
Average number of large basis fcns per batch ...    91.41 (79.36%)
Maximum spatial batch extension              ...  17.63, 16.87, 16.71 au
Average spatial batch extension              ...   0.39,  0.39,  0.41 au

Time for grid setup =    0.049 sec

------------------------------
INITIAL GUESS: MODEL POTENTIAL
------------------------------
Loading Hartree-Fock densities                     ... done
Calculating cut-offs                               ... done
Setting up the integral package                    ... done
Initializing the effective Hamiltonian             ... done
Starting the Coulomb interaction                   ... done (   0.0 sec)
Reading the grid                                   ... done
Mapping shells                                     ... done
Starting the XC term evaluation                    ... done (   0.0 sec)
  promolecular density results
     # of electrons  =     17.999981175
     EX              =    -14.435368685
     EC              =     -0.575911941
     EX+EC           =    -15.011280626
Transforming the Hamiltonian                       ... done (   0.0 sec)
Diagonalizing the Hamiltonian                      ... done (   0.0 sec)
Back transforming the eigenvectors                 ... done (   0.0 sec)
Now organizing SCF variables                       ... done
                      ------------------
                      INITIAL GUESS DONE (   0.2 sec)
                      ------------------
--------------
SCF ITERATIONS
--------------
ITER       Energy         Delta-E        Max-DP      RMS-DP      [F,P]     Damp
               ***  Starting incremental Fock matrix formation  ***
  0   -115.6398869098   0.000000000000 0.03542574  0.00075699  0.2482504 0.7000
  1   -115.6775611005  -0.037674190716 0.02166811  0.00054147  0.1249463 0.7000
                               ***Turning on DIIS***
  2   -115.6951177501  -0.017556649600 0.03241701  0.00098557  0.0511125 0.0000
  3   -115.7237951684  -0.028677418304 0.01769868  0.00035916  0.0584862 0.0000
  4   -115.7283370928  -0.004541924335 0.00418265  0.00007111  0.0063542 0.0000
                      *** Initiating the SOSCF procedure ***
                           *** Shutting down DIIS ***
                      *** Re-Reading the Fockian *** 
                      *** Removing any level shift *** 
ITER      Energy       Delta-E        Grad      Rot      Max-DP    RMS-DP
  5   -115.72843820  -0.0001011096  0.000433  0.000433  0.000789  0.000024
               *** Restarting incremental Fock matrix formation ***
  6   -115.72844727  -0.0000090714  0.000119  0.000160  0.000405  0.000014
  7   -115.72844811  -0.0000008387  0.000039  0.000087  0.000193  0.000006
  8   -115.72844818  -0.0000000694  0.000022  0.000018  0.000040  0.000001
  9   -115.72844819  -0.0000000088  0.000012  0.000008  0.000020  0.000001
                  ***Gradient check signals convergence***
              ***Rediagonalizing the Fockian in SOSCF/NRSCF***

               *****************************************************
               *                     SUCCESS                       *
               *           SCF CONVERGED AFTER  10 CYCLES          *
               *****************************************************

Setting up the final grid:

General Integration Accuracy     IntAcc      ...  4.670
Radial Grid Type                 RadialGrid  ... Gauss-Chebyshev
Angular Grid (max. acc.)         AngularGrid ... Lebedev-302
Angular grid pruning method      GridPruning ... 3 (G Style)
Weight generation scheme         WeightScheme... Becke
Basis function cutoff            BFCut       ...    1.0000e-11
Integration weight cutoff        WCut        ...    1.0000e-14
Grids for H and He will be reduced by one unit

# of grid points (after initial pruning)     ...  52000 (   0.0 sec)
# of grid points (after weights+screening)   ...  48895 (   0.0 sec)
nearest neighbour list constructed           ...    0.0 sec
Grid point re-assignment to atoms done       ...    0.0 sec
Grid point division into batches done        ...    0.2 sec
Reduced shell lists constructed in    0.2 sec

Total number of grid points                  ...    48895
Total number of batches                      ...      769
Average number of points per batch           ...       63
Average number of grid points per atom       ...     4075
Average number of shells per batch           ...    49.45 (65.06%)
Average number of basis functions per batch  ...   108.92 (63.32%)
Average number of large shells per batch     ...    39.58 (80.05%)
Average number of large basis fcns per batch ...    87.64 (80.47%)
Maximum spatial batch extension              ...  16.86, 14.38, 17.41 au
Average spatial batch extension              ...   0.27,  0.26,  0.27 au

Final grid set up in    0.2 sec
Final integration                            ... done (   0.1 sec)
Change in XC energy                          ...     0.000307205
Integrated number of electrons               ...    17.999966316
Previous integrated no of electrons          ...    18.001241855

----------------
TOTAL SCF ENERGY
----------------

Total Energy       :         -115.72814099 Eh           -3149.12281 eV

Components:
Nuclear Repulsion  :           40.40891784 Eh            1099.58256 eV
Electronic Energy  :         -156.13705883 Eh           -4248.70537 eV
One Electron Energy:         -237.23788243 Eh           -6455.57098 eV
Two Electron Energy:           81.10082360 Eh            2206.86561 eV

Virial components:
Potential Energy   :         -231.04578279 Eh           -6287.07538 eV
Kinetic Energy     :          115.31764180 Eh            3137.95256 eV
Virial Ratio       :            2.00355973


DFT components:
N(Alpha)           :        8.999983157756 electrons
N(Beta)            :        8.999983157756 electrons
N(Total)           :       17.999966315513 electrons
E(XC)              :      -10.666430896732 Eh       
DFET-embed. en.    :        0.000000000000 Eh       

---------------
SCF CONVERGENCE
---------------

  Last Energy change         ...   -2.7241e-09  Tolerance :   1.0000e-08
  Last MAX-Density change    ...    3.6670e-06  Tolerance :   1.0000e-07
  Last RMS-Density change    ...    1.0250e-07  Tolerance :   5.0000e-09
  Last Orbital Gradient      ...    1.8626e-06  Tolerance :   1.0000e-05
  Last Orbital Rotation      ...    1.7096e-06  Tolerance :   1.0000e-05

             **** THE GBW FILE WAS UPDATED (19-77_DFT_A.gbw) ****
             **** DENSITY FILE WAS UPDATED (19-77_DFT_A.scfp.tmp) ****
             **** ENERGY FILE WAS UPDATED (19-77_DFT_A.en.tmp) ****
----------------
ORBITAL ENERGIES
----------------

  NO   OCC          E(Eh)            E(eV) 
   0   2.0000     -19.229889      -523.2719 
   1   2.0000     -10.303468      -280.3716 
   2   2.0000      -1.126667       -30.6582 
   3   2.0000      -0.800083       -21.7714 
   4   2.0000      -0.606418       -16.5015 
   5   2.0000      -0.550279       -14.9738 
   6   2.0000      -0.526214       -14.3190 
   7   2.0000      -0.434094       -11.8123 
   8   2.0000      -0.372379       -10.1330 
   9   0.0000       0.070453         1.9171 
  10   0.0000       0.131717         3.5842 
  11   0.0000       0.148219         4.0333 
  12   0.0000       0.154734         4.2105 
  13   0.0000       0.196651         5.3511 
  14   0.0000       0.205171         5.5830 
  15   0.0000       0.218896         5.9565 
  16   0.0000       0.228144         6.2081 
  17   0.0000       0.252323         6.8660 
  18   0.0000       0.277554         7.5526 
  19   0.0000       0.300105         8.1663 
  20   0.0000       0.337825         9.1927 
  21   0.0000       0.346305         9.4234 
  22   0.0000       0.350943         9.5496 
  23   0.0000       0.400958        10.9106 
  24   0.0000       0.410439        11.1686 
  25   0.0000       0.426640        11.6095 
  26   0.0000       0.458264        12.4700 
  27   0.0000       0.484906        13.1950 
  28   0.0000       0.530180        14.4269 
  29   0.0000       0.537156        14.6167 
  30   0.0000       0.570503        15.5242 
  31   0.0000       0.579001        15.7554 
  32   0.0000       0.589397        16.0383 
  33   0.0000       0.634805        17.2739 
  34   0.0000       0.646959        17.6047 
  35   0.0000       0.686737        18.6871 
  36   0.0000       0.713314        19.4103 
  37   0.0000       0.728401        19.8208 
  38   0.0000       0.775549        21.1038 
  39   0.0000       0.779669        21.2159 
  40   0.0000       0.812892        22.1199 
  41   0.0000       0.830015        22.5858 
  42   0.0000       0.893093        24.3023 
  43   0.0000       0.962973        26.2038 
  44   0.0000       0.992557        27.0088 
  45   0.0000       1.048361        28.5273 
  46   0.0000       1.059070        28.8188 
  47   0.0000       1.101338        29.9689 
  48   0.0000       1.152901        31.3720 
  49   0.0000       1.162123        31.6230 
  50   0.0000       1.197612        32.5887 
  51   0.0000       1.205805        32.8116 
  52   0.0000       1.237837        33.6833 
  53   0.0000       1.337571        36.3972 
  54   0.0000       1.393860        37.9289 
  55   0.0000       1.416639        38.5487 
  56   0.0000       1.441289        39.2195 
  57   0.0000       1.474741        40.1298 
  58   0.0000       1.532486        41.7011 
  59   0.0000       1.559990        42.4495 
  60   0.0000       1.605738        43.6944 
  61   0.0000       1.653253        44.9873 
  62   0.0000       1.662324        45.2341 
  63   0.0000       1.711524        46.5729 
  64   0.0000       1.732698        47.1491 
  65   0.0000       1.814015        49.3619 
  66   0.0000       1.877152        51.0799 
  67   0.0000       1.926964        52.4353 
  68   0.0000       1.937799        52.7302 
  69   0.0000       1.972067        53.6627 
  70   0.0000       2.031682        55.2849 
  71   0.0000       2.068594        56.2893 
  72   0.0000       2.092724        56.9459 
  73   0.0000       2.108497        57.3751 
  74   0.0000       2.150126        58.5079 
  75   0.0000       2.187172        59.5160 
  76   0.0000       2.222535        60.4782 
  77   0.0000       2.250735        61.2456 
  78   0.0000       2.261163        61.5294 
  79   0.0000       2.327680        63.3394 
  80   0.0000       2.332625        63.4740 
  81   0.0000       2.410881        65.6034 
  82   0.0000       2.473093        67.2963 
  83   0.0000       2.479141        67.4609 
  84   0.0000       2.491268        67.7909 
  85   0.0000       2.505025        68.1652 
  86   0.0000       2.575157        70.0736 
  87   0.0000       2.604469        70.8712 
  88   0.0000       2.638828        71.8061 
  89   0.0000       2.662862        72.4602 
  90   0.0000       2.684106        73.0382 
  91   0.0000       2.705874        73.6306 
  92   0.0000       2.765352        75.2490 
  93   0.0000       2.788847        75.8884 
  94   0.0000       2.892144        78.6992 
  95   0.0000       2.906374        79.0865 
  96   0.0000       2.979980        81.0894 
  97   0.0000       2.987736        81.3004 
  98   0.0000       3.068747        83.5049 
  99   0.0000       3.101892        84.4068 
 100   0.0000       3.126498        85.0763 
 101   0.0000       3.155554        85.8670 
 102   0.0000       3.162141        86.0462 
 103   0.0000       3.230688        87.9115 
 104   0.0000       3.313796        90.1730 
 105   0.0000       3.343338        90.9769 
 106   0.0000       3.403849        92.6234 
 107   0.0000       3.435520        93.4852 
 108   0.0000       3.455824        94.0378 
 109   0.0000       3.472282        94.4856 
 110   0.0000       3.561669        96.9179 
 111   0.0000       3.617681        98.4421 
 112   0.0000       3.626505        98.6822 
 113   0.0000       3.634119        98.8894 
 114   0.0000       3.664649        99.7202 
 115   0.0000       3.674099        99.9773 
 116   0.0000       3.726715       101.4091 
 117   0.0000       3.987023       108.4924 
 118   0.0000       4.038583       109.8954 
 119   0.0000       4.075504       110.9001 
 120   0.0000       4.259375       115.9035 
 121   0.0000       4.286659       116.6459 
 122   0.0000       4.304263       117.1250 
 123   0.0000       4.386058       119.3507 
 124   0.0000       4.411333       120.0385 
 125   0.0000       4.511150       122.7546 
 126   0.0000       4.519159       122.9726 
 127   0.0000       4.541320       123.5756 
 128   0.0000       4.571825       124.4057 
 129   0.0000       4.586646       124.8090 
 130   0.0000       4.603074       125.2560 
 131   0.0000       4.989801       135.7794 
 132   0.0000       5.072784       138.0375 
 133   0.0000       5.094374       138.6250 
 134   0.0000       5.316663       144.6738 
 135   0.0000       5.359053       145.8273 
 136   0.0000       5.428614       147.7201 
 137   0.0000       5.444586       148.1547 
 138   0.0000       5.537995       150.6965 
 139   0.0000       5.640268       153.4795 
 140   0.0000       5.767936       156.9535 
 141   0.0000       5.819247       158.3498 
 142   0.0000       5.887056       160.1949 
 143   0.0000       5.952704       161.9813 
 144   0.0000       5.961256       162.2140 
 145   0.0000       6.255469       170.2200 
 146   0.0000       6.528434       177.6477 
 147   0.0000       6.619833       180.1348 
 148   0.0000       6.718479       182.8191 
 149   0.0000       6.783350       184.5843 
 150   0.0000       6.823172       185.6679 
 151   0.0000       6.840710       186.1452 
 152   0.0000       7.028531       191.2561 
 153   0.0000       7.126769       193.9292 
 154   0.0000       7.180706       195.3970 
 155   0.0000       7.300967       198.6694 
 156   0.0000       7.474085       203.3802 
 157   0.0000       8.022585       218.3056 
 158   0.0000       8.944120       243.3819 
 159   0.0000       9.339535       254.1417 
 160   0.0000       9.532971       259.4053 
 161   0.0000       9.555295       260.0128 
 162   0.0000       9.803528       266.7676 
 163   0.0000       9.893787       269.2236 
 164   0.0000       9.935710       270.3644 
[...]
  82   0.0000       2.423458        65.9456 
  83   0.0000       2.442003        66.4503 
  84   0.0000       2.501928        68.0809 
  85   0.0000       2.554883        69.5219 
  86   0.0000       2.576345        70.1059 
  87   0.0000       2.643978        71.9463 
  88   0.0000       2.677101        72.8476 
  89   0.0000       2.692469        73.2658 
  90   0.0000       2.703071        73.5543 
  91   0.0000       2.748183        74.7819 
  92   0.0000       2.794480        76.0417 
  93   0.0000       2.813714        76.5651 
  94   0.0000       2.900230        78.9193 
  95   0.0000       2.931981        79.7833 
  96   0.0000       2.982269        81.1517 
  97   0.0000       2.994477        81.4839 
  98   0.0000       3.108452        84.5853 
  99   0.0000       3.114224        84.7424 
 100   0.0000       3.121994        84.9538 
 101   0.0000       3.170298        86.2682 
 102   0.0000       3.199337        87.0584 
 103   0.0000       3.222575        87.6907 
 104   0.0000       3.243246        88.2532 
 105   0.0000       3.304814        89.9286 
 106   0.0000       3.313006        90.1515 
 107   0.0000       3.322299        90.4044 
 108   0.0000       3.385594        92.1267 
 109   0.0000       3.450624        93.8963 
 110   0.0000       3.545330        96.4733 
 111   0.0000       3.605285        98.1048 
 112   0.0000       3.639911        99.0470 
 113   0.0000       3.670341        99.8751 
 114   0.0000       3.689816       100.4050 
 115   0.0000       3.726534       101.4042 
 116   0.0000       3.821616       103.9915 
 117   0.0000       4.000600       108.8619 
 118   0.0000       4.103865       111.6718 
 119   0.0000       4.212028       114.6151 
 120   0.0000       4.242671       115.4489 
 121   0.0000       4.246964       115.5658 
 122   0.0000       4.272597       116.2633 
 123   0.0000       4.287070       116.6571 
 124   0.0000       4.386487       119.3624 
 125   0.0000       4.399171       119.7075 
 126   0.0000       4.526496       123.1722 
 127   0.0000       4.550155       123.8160 
 128   0.0000       4.555538       123.9625 
 129   0.0000       4.584373       124.7471 
 130   0.0000       4.616881       125.6317 
 131   0.0000       4.963696       135.0690 
 132   0.0000       5.126064       139.4873 
 133   0.0000       5.218798       142.0107 
 134   0.0000       5.329210       145.0152 
 135   0.0000       5.359259       145.8328 
 136   0.0000       5.442013       148.0847 
 137   0.0000       5.482409       149.1839 
 138   0.0000       5.545588       150.9031 
 139   0.0000       5.833807       158.7459 
 140   0.0000       5.853056       159.2698 
 141   0.0000       5.871793       159.7796 
 142   0.0000       6.016255       163.7106 
 143   0.0000       6.155326       167.4949 
 144   0.0000       6.243755       169.9012 
 145   0.0000       6.303511       171.5273 
 146   0.0000       6.525004       177.5544 
 147   0.0000       6.634396       180.5311 
 148   0.0000       6.724618       182.9862 
 149   0.0000       6.758465       183.9072 
 150   0.0000       6.819719       185.5740 
 151   0.0000       6.835406       186.0009 
 152   0.0000       7.037869       191.5101 
 153   0.0000       7.063461       192.2065 
 154   0.0000       7.192292       195.7122 
 155   0.0000       7.251272       197.3172 
 156   0.0000       7.419070       201.8832 
 157   0.0000       7.972631       216.9463 
 158   0.0000       8.923637       242.8245 
 159   0.0000       9.344778       254.2843 
 160   0.0000       9.567611       260.3479 
 161   0.0000       9.571699       260.4592 
 162   0.0000       9.820199       267.2212 
 163   0.0000       9.914072       269.7756 
 164   0.0000       9.960081       271.0276 
 165   0.0000      10.154912       276.3292 
 166   0.0000      11.189133       304.4718 
 167   0.0000      19.150300       521.1062 
 168   0.0000      22.433944       610.4586 
 169   0.0000      43.672696      1188.3945 
 170   0.0000      66.017344      1796.4233 
 171   0.0000     126.487654      3441.9041 

                    ********************************
                    * MULLIKEN POPULATION ANALYSIS *
                    ********************************

-----------------------
MULLIKEN ATOMIC CHARGES
-----------------------
   0 C :    0.003180
   1 O :    0.002078
   2 H :   -0.001605
   3 H :   -0.000349
   4 H :   -0.007189
   5 H :   -0.000262
   6 C :   -0.177612
   7 O :   -0.464089
   8 H :    0.322036
   9 H :    0.114807
  10 H :    0.111216
  11 H :    0.097788
Sum of atomic charges:   -0.0000000

--------------------------------
MULLIKEN REDUCED ORBITAL CHARGES
--------------------------------
  0 C s       :    -0.004140  s :    -0.004140
      pz      :    -0.001274  p :     0.000994
      px      :     0.002036
      py      :     0.000232
      dz2     :    -0.000002  d :    -0.000033
      dxz     :    -0.000016
      dyz     :    -0.000045
      dx2y2   :     0.000010
      dxy     :     0.000020
      f0      :    -0.000000  f :    -0.000002
      f+1     :     0.000001
      f-1     :    -0.000001
      f+2     :    -0.000001
      f-2     :    -0.000001
      f+3     :    -0.000000
      f-3     :     0.000001
  1 O s       :    -0.001275  s :    -0.001275
      pz      :    -0.000929  p :    -0.000824
      px      :     0.000422
      py      :    -0.000316
      dz2     :     0.000009  d :     0.000021
      dxz     :     0.000010
      dyz     :     0.000002
      dx2y2   :     0.000001
      dxy     :    -0.000000
      f0      :     0.000000  f :     0.000000
      f+1     :    -0.000000
      f-1     :     0.000000
      f+2     :     0.000000
      f-2     :    -0.000000
      f+3     :    -0.000000
      f-3     :    -0.000000
  2 H s       :     0.001619  s :     0.001619
      pz      :    -0.000013  p :    -0.000013
      px      :    -0.000002
      py      :     0.000002
  3 H s       :     0.000350  s :     0.000350
      pz      :    -0.000000  p :    -0.000001
      px      :    -0.000000
      py      :    -0.000001
  4 H s       :     0.007170  s :     0.007170
      pz      :     0.000015  p :     0.000019
      px      :     0.000009
      py      :    -0.000004
  5 H s       :     0.000262  s :     0.000262
      pz      :     0.000000  p :     0.000000
      px      :     0.000000
      py      :     0.000000
  6 C s       :     3.212657  s :     3.212657
      pz      :     1.062268  p :     2.851316
      px      :     0.928316
      py      :     0.860732
      dz2     :     0.009423  d :     0.105547
      dxz     :     0.011010
      dyz     :     0.027686
      dx2y2   :     0.045562
      dxy     :     0.011867
      f0      :     0.001182  f :     0.008092
      f+1     :     0.000341
      f-1     :     0.000811
      f+2     :     0.000506
      f-2     :     0.001263
      f+3     :     0.001475
      f-3     :     0.002514
  7 O s       :     3.802371  s :     3.802371
      pz      :     1.573461  p :     4.628676
      px      :     1.698226
      py      :     1.356989
      dz2     :     0.005375  d :     0.031360
      dxz     :     0.004077
      dyz     :     0.010139
      dx2y2   :     0.004847
      dxy     :     0.006922
      f0      :     0.000061  f :     0.001681
      f+1     :     0.000092
      f-1     :     0.000445
      f+2     :     0.000240
      f-2     :     0.000193
      f+3     :     0.000374
      f-3     :     0.000278
  8 H s       :     0.632742  s :     0.632742
      pz      :     0.016543  p :     0.045221
      px      :     0.013976
      py      :     0.014702
  9 H s       :     0.865564  s :     0.865564
      pz      :     0.006518  p :     0.019629
      px      :     0.003894
      py      :     0.009218
 10 H s       :     0.869628  s :     0.869628
      pz      :     0.011043  p :     0.019156
      px      :     0.003517
      py      :     0.004596
 11 H s       :     0.882137  s :     0.882137
      pz      :     0.005149  p :     0.020075
      px      :     0.011426
      py      :     0.003500


                     *******************************
                     * LOEWDIN POPULATION ANALYSIS *
                     *******************************

----------------------
LOEWDIN ATOMIC CHARGES
----------------------
   0 C :   -0.005862
   1 O :   -0.003006
   2 H :   -0.006645
   3 H :   -0.001258
   4 H :   -0.002651
   5 H :   -0.000085
   6 C :   -0.424261
   7 O :   -0.047809
   8 H :    0.187195
   9 H :    0.112818
  10 H :    0.096570
  11 H :    0.094993

-------------------------------
LOEWDIN REDUCED ORBITAL CHARGES
-------------------------------
  0 C s       :     0.000543  s :     0.000543
      pz      :     0.001629  p :     0.005084
      px      :     0.002291
      py      :     0.001164
      dz2     :     0.000026  d :     0.000232
      dxz     :     0.000102
      dyz     :     0.000037
      dx2y2   :     0.000034
      dxy     :     0.000033
      f0      :     0.000000  f :     0.000003
      f+1     :     0.000001
      f-1     :     0.000000
      f+2     :     0.000000
      f-2     :     0.000001
      f+3     :     0.000000
      f-3     :     0.000000
  1 O s       :     0.000173  s :     0.000173
      pz      :     0.002133  p :     0.002792
      px      :     0.000361
      py      :     0.000298
      dz2     :     0.000016  d :     0.000041
      dxz     :     0.000005
      dyz     :     0.000017
      dx2y2   :     0.000000
      dxy     :     0.000001
      f0      :     0.000000  f :     0.000001
      f+1     :     0.000000
      f-1     :     0.000000
      f+2     :     0.000000
      f-2     :     0.000000
      f+3     :     0.000000
      f-3     :     0.000000
  2 H s       :     0.006488  s :     0.006488
      pz      :     0.000135  p :     0.000157
      px      :     0.000020
      py      :     0.000002
  3 H s       :     0.001245  s :     0.001245
      pz      :     0.000008  p :     0.000013
      px      :     0.000002
      py      :     0.000003
  4 H s       :     0.002635  s :     0.002635
      pz      :     0.000007  p :     0.000016
      px      :     0.000004
      py      :     0.000005
  5 H s       :     0.000083  s :     0.000083
      pz      :     0.000001  p :     0.000001
      px      :     0.000000
      py      :     0.000000
  6 C s       :     2.858195  s :     2.858195
      pz      :     1.096948  p :     3.067126
      px      :     1.013809
      py      :     0.956369
      dz2     :     0.057966  d :     0.438994
      dxz     :     0.040135
      dyz     :     0.108173
      dx2y2   :     0.152106
      dxy     :     0.080615
      f0      :     0.007089  f :     0.059947
      f+1     :     0.003526
      f-1     :     0.004760
      f+2     :     0.006257
      f-2     :     0.011132
      f+3     :     0.010727
      f-3     :     0.016456
  7 O s       :     3.362831  s :     3.362831
      pz      :     1.547442  p :     4.605333
      px      :     1.673766
      py      :     1.384126
      dz2     :     0.008905  d :     0.074743
      dxz     :     0.006659
      dyz     :     0.024960
      dx2y2   :     0.017370
      dxy     :     0.016850
      f0      :     0.000323  f :     0.004901
      f+1     :     0.000302
      f-1     :     0.001144
      f+2     :     0.000476
      f-2     :     0.000775
      f+3     :     0.000900
      f-3     :     0.000981
  8 H s       :     0.664580  s :     0.664580
      pz      :     0.064757  p :     0.148225
      px      :     0.038578
      py      :     0.044890
  9 H s       :     0.831131  s :     0.831131
      pz      :     0.019103  p :     0.056050
      px      :     0.011475
      py      :     0.025472
 10 H s       :     0.843667  s :     0.843667
      pz      :     0.033961  p :     0.059763
      px      :     0.011415
      py      :     0.014387
 11 H s       :     0.845739  s :     0.845739
      pz      :     0.015602  p :     0.059268
      px      :     0.032758
      py      :     0.010907


                      *****************************
                      * MAYER POPULATION ANALYSIS *
                      *****************************

  NA   - Mulliken gross atomic population
  ZA   - Total nuclear charge
  QA   - Mulliken gross atomic charge
  VA   - Mayer's total valence
  BVA  - Mayer's bonded valence
  FA   - Mayer's free valence

  ATOM       NA         ZA         QA         VA         BVA        FA
  0 C     -0.0032     0.0000     0.0032    -0.0064    -0.0064     0.0000
  1 O     -0.0021     0.0000     0.0021    -0.0042    -0.0042    -0.0000
  2 H      0.0016     0.0000    -0.0016     0.0032     0.0032     0.0000
  3 H      0.0003     0.0000    -0.0003     0.0007     0.0007    -0.0000
  4 H      0.0072     0.0000    -0.0072     0.0143     0.0143     0.0000
  5 H      0.0003     0.0000    -0.0003     0.0005     0.0005     0.0000
  6 C      6.1776     6.0000    -0.1776     3.9378     3.9378    -0.0000
  7 O      8.4641     8.0000    -0.4641     1.9028     1.9028    -0.0000
  8 H      0.6780     1.0000     0.3220     0.9057     0.9057     0.0000
  9 H      0.8852     1.0000     0.1148     0.9575     0.9575     0.0000
 10 H      0.8888     1.0000     0.1112     0.9599     0.9599    -0.0000
 11 H      0.9022     1.0000     0.0978     0.9488     0.9488    -0.0000

  Mayer bond orders larger than 0.1
B(  6-C ,  7-O ) :   1.0048 B(  6-C ,  9-H ) :   0.9742 B(  6-C , 10-H ) :   0.9731 
B(  6-C , 11-H ) :   0.9778 B(  7-O ,  8-H ) :   0.8907 

-------
TIMINGS
-------

Total SCF time: 0 days 0 hours 0 min 9 sec 

Total time                  ....       9.679 sec
Sum of individual times     ....       9.342 sec  ( 96.5%)

Fock matrix formation       ....       8.847 sec  ( 91.4%)
  XC integration            ....       0.579 sec  (  6.5% of F)
    Basis function eval.    ....       0.068 sec  ( 11.7% of XC)
    Density eval.           ....       0.060 sec  ( 10.3% of XC)
    XC-Functional eval.     ....       0.085 sec  ( 14.8% of XC)
    XC-Potential eval.      ....       0.075 sec  ( 12.9% of XC)
Diagonalization             ....       0.045 sec  (  0.5%)
Density matrix formation    ....       0.005 sec  (  0.0%)
Population analysis         ....       0.015 sec  (  0.2%)
Initial guess               ....       0.101 sec  (  1.0%)
Orbital Transformation      ....       0.000 sec  (  0.0%)
Orbital Orthonormalization  ....       0.000 sec  (  0.0%)
DIIS solution               ....       0.021 sec  (  0.2%)
SOSCF solution              ....       0.021 sec  (  0.2%)
Grid generation             ....       0.287 sec  (  3.0%)


-------------------------------------------------------------------------------
                          DFT DISPERSION CORRECTION                            
                                                                               
                              DFTD3 V3.1  Rev 1                                
                              USING zero damping                               
-------------------------------------------------------------------------------
The omegaB97X-D3 functional is recognized. Fit by Chai et al.
Active option DFTDOPT                   ...         3   

molecular C6(AA) [au] = 208.769922 


            DFT-D V3
 parameters
 s6 scaling factor         :     1.0000 
 rs6 scaling factor        :     1.2810 
 s8 scaling factor         :     1.0000 
 rs8 scaling factor        :     1.0940 
 Damping factor alpha6     :    14.0000 
 Damping factor alpha8     :    16.0000 
 ad hoc parameters k1-k3   :    16.0000     1.3333    -4.0000 

 Edisp/kcal,au: -0.160428615751  -0.000255659245 
 E6   /kcal   :  -0.033465224 
 E8   /kcal   :  -0.126963391 
 % E8         :  79.140115209 

-------------------------   ----------------
Dispersion correction           -0.000255659
-------------------------   ----------------


-------------------------   --------------------
FINAL SINGLE POINT ENERGY      -115.732670772037
-------------------------   --------------------


                            ***************************************
                            *     ORCA property calculations      *
                            ***************************************

                                    ---------------------
                                    Active property flags
                                    ---------------------
   (+) Dipole Moment


------------------------------------------------------------------------------
                       ORCA ELECTRIC PROPERTIES CALCULATION
------------------------------------------------------------------------------

Dipole Moment Calculation                       ... on
Quadrupole Moment Calculation                   ... off
Polarizability Calculation                      ... off
GBWName                                         ... 19-77_DFT_B.gbw
Electron density file                           ... 19-77_DFT_B.scfp.tmp
The origin for moment calculation is the CENTER OF MASS  = (-5.940389, -14.968521  6.840911)

-------------
DIPOLE MOMENT
-------------
                                X             Y             Z
Electronic contribution:      1.29268      -1.48753       0.34048
Nuclear contribution   :     -1.65294       1.51323      -0.90785
                        -----------------------------------------
Total Dipole Moment    :     -0.36025       0.02570      -0.56737
                        -----------------------------------------
Magnitude (a.u.)       :      0.67257
Magnitude (Debye)      :      1.70955



--------------------
Rotational spectrum 
--------------------
 
Rotational constants in cm-1:     4.355676     0.840539     0.808754 
Rotational constants in MHz : 130579.869235 25198.728197 24245.844543 

 Dipole components along the rotational axes: 
x,y,z [a.u.] :     0.294230    -0.601738     0.060785 
x,y,z [Debye]:     0.747873    -1.529497     0.154502 

 
------------------------------------------------------------------------------
                      ORCA CHELPG CHARGES GENERATION
------------------------------------------------------------------------------

GBW file                           ... 19-77_DFT_B.gbw

Reading the GBW file               ... done

Grid spacing                       ...     0.300000
Point Cut-Off                      ...     2.800000
Van-der-Waals Radii                ...        COSMO
Total charge                       ...            0


Number of points X direction       ...           27
Number of points Y direction       ...           33
Number of points Z direction       ...           32
Maximum number of possible points  ...        28512
Final number of points             ...         5976


CHELPG Charges            
--------------------------------
  0   C   :       0.018929
  1   O   :      -0.005724
  2   H   :       0.002203
  3   H   :       0.002776
  4   H   :      -0.012383
  5   H   :      -0.014250
  6   C   :       0.095346
  7   O   :      -0.578045
  8   H   :       0.401090
  9   H   :       0.070111
 10   H   :       0.006933
 11   H   :       0.013014
--------------------------------
Total charge:     0.000000
--------------------------------

CHELPG charges calculated...

Timings for individual parts in CHELPG calculation:
Grid generation                 ...        0.001 sec (=   0.000 min)
Potential calculation           ...        1.241 sec (=   0.021 min)
Fit to the potential            ...        0.002 sec (=   0.000 min)
------------------------------------------------------------------------------


Timings for individual modules:

Sum of individual times         ...       38.482 sec (=   0.641 min)
GTO integral calculation        ...       24.282 sec (=   0.405 min)  63.1 %
SCF iterations                  ...       12.926 sec (=   0.215 min)  33.6 %
CHELPG charge generation        ...        1.275 sec (=   0.021 min)   3.3 %



                             ****ORCA TERMINATED NORMALLY****
TOTAL RUN TIME: 0 days 0 hours 2 minutes 24 seconds 176 msec
