
                                 *****************
                                 * O   R   C   A *
                                 *****************

           --- An Ab Initio, DFT and Semiempirical electronic structure package ---

                  #######################################################
                  #                        -***-                        #
                  #          Department of theory and spectroscopy      #
                  #               Directorship: Frank Neese             #
                  #        Max Planck Institute fuer Kohlenforschung    #
                  #                Kaiser Wilhelm Platz 1               #
                  #                 D-45470 Muelheim/Ruhr               #
                  #                      Germany                        #
                  #                                                     #
                  #                  All rights reserved                #
                  #                        -***-                        #
                  #######################################################


                         Program Version 4.1.2  - RELEASE  -


 With contributions from (in alphabetic order):
   Daniel Aravena         : Magnetic Properties
   Michael Atanasov       : Ab Initio Ligand Field Theory
   Alexander A. Auer      : GIAO ZORA
   Ute Becker             : Parallelization
   Giovanni Bistoni       : ED, Open-shell LED
   Martin Brehm           : Molecular dynamics
   Dmytro Bykov           : SCF Hessian
   Vijay G. Chilkuri      : MRCI spin determinant printing
   Dipayan Datta          : RHF DLPNO-CCSD density
   Achintya Kumar Dutta   : EOM-CC, STEOM-CC
   Dmitry Ganyushin       : Spin-Orbit,Spin-Spin,Magnetic field MRCI
   Miquel Garcia          : C-PCM Hessian
   Yang Guo               : DLPNO-NEVPT2, CIM, IAO-localization
   Andreas Hansen         : Spin unrestricted coupled pair/coupled cluster methods
   Benjamin Helmich-Paris : CASSCF linear response (MC-RPA)
   Lee Huntington         : MR-EOM, pCC
   Robert Izsak           : Overlap fitted RIJCOSX, COSX-SCS-MP3, EOM
   Christian Kollmar      : KDIIS, OOCD, Brueckner-CCSD(T), CCSD density
   Simone Kossmann        : Meta GGA functionals, TD-DFT gradient, OOMP2, MP2 Hessian
   Martin Krupicka        : AUTO-CI
   Lucas Lang             : DCDCAS
   Dagmar Lenk            : GEPOL surface, SMD
   Dimitrios Liakos       : Extrapolation schemes; parallel MDCI
   Dimitrios Manganas     : ROCIS; embedding schemes
   Dimitrios Pantazis     : SARC Basis sets
   Taras Petrenko         : DFT Hessian,TD-DFT gradient, ASA, ECA, R-Raman, ABS, FL, XAS/XES, NRVS
   Peter Pinski           : DLPNO-MP2, DLPNO-MP2 Gradient
   Christoph Reimann      : Effective Core Potentials
   Marius Retegan         : Local ZFS, SOC
   Christoph Riplinger    : Optimizer, TS searches, QM/MM, DLPNO-CCSD(T), (RO)-DLPNO pert. Triples
   Tobias Risthaus        : Range-separated hybrids, TD-DFT gradient, RPA, STAB
   Michael Roemelt        : Restricted open shell CIS
   Masaaki Saitow         : Open-shell DLPNO
   Barbara Sandhoefer     : DKH picture change effects
   Avijit Sen             : IP-ROCIS
   Kantharuban Sivalingam : CASSCF convergence, NEVPT2, FIC-MRCI
   Bernardo de Souza      : ESD, SOC TD-DFT
   Georgi Stoychev        : AutoAux, RI-MP2 NMR
   Willem Van den Heuvel  : Paramagnetic NMR
   Boris Wezisla          : Elementary symmetry handling
   Frank Wennmohs         : Technical directorship


 We gratefully acknowledge several colleagues who have allowed us to
 interface, adapt or use parts of their codes:
   Stefan Grimme, W. Hujo, H. Kruse,             : VdW corrections, initial TS optimization,
                  C. Bannwarth                     DFT functionals, gCP, sTDA/sTD-DF
   Ed Valeev                                     : LibInt (2-el integral package), F12 methods
   Garnet Chan, S. Sharma, J. Yang, R. Olivares  : DMRG
   Ulf Ekstrom                                   : XCFun DFT Library
   Mihaly Kallay                                 : mrcc  (arbitrary order and MRCC methods)
   Andreas Klamt, Michael Diedenhofen            : otool_cosmo (COSMO solvation model)
   Jiri Pittner, Ondrej Demel                    : Mk-CCSD
   Frank Weinhold                                : gennbo (NPA and NBO analysis)
   Christopher J. Cramer and Donald G. Truhlar   : smd solvation model
   Lars Goerigk                                  : TD-DFT with DH, B97 family of functionals
   V. Asgeirsson, H. Jonsson                     : NEB implementation
   FAccTs GmbH                                   : IRC, NEB, NEB-TS, Multilevel


 Your calculation uses the libint2 library for the computation of 2-el integrals
 For citations please refer to: http://libint.valeyev.net

 This ORCA versions uses:
   CBLAS   interface :  Fast vector & matrix operations
   LAPACKE interface :  Fast linear algebra routines
   SCALAPACK package :  Parallel linear algebra routines


Your calculation utilizes the atom-pairwise dispersion correction
with the zero-damping scheme (D30)
Cite in your paper:
S.Grimme, J.Antony, S.Ehrlich and H.Krieg, J.Chem.Phys., 132, (2010), 154104 
   

XCFun DFT library Copyright 2009-2010 Ulf Ekstrom and contributors.
See http://admol.org/xcfun for more information. This is free soft-
ware; see the source code for copying conditions. There is ABSOLUTELY
NO WARRANTY; not even for MERCHANTABILITY or FITNESS FOR A PARTICULAR
PURPOSE. For details see the documentation. Scientific users of this 
library should cite U. Ekstrom, L. Visscher, R. Bast, A. J. Thorvald-
sen and K. Ruud; J.Chem.Theor.Comp. 2010, DOI: 10.1021/ct100117s
XCFun Version 0.99 
----- Orbital basis set information -----
Your calculation utilizes the basis: def2-TZVP
   F. Weigend and R. Ahlrichs, Phys. Chem. Chem. Phys. 7, 3297 (2005).

================================================================================
                                        WARNINGS
                       Please study these warnings very carefully!
================================================================================


INFO   : the flag for use of LIBINT has been found!

================================================================================
                                       INPUT FILE
================================================================================
NAME = 78.in
|  1> #Run DFT-D3 single point of the dimer
|  2> ! wB97X-D3 def2-TZVP TIGHTSCF  CHELPG PAL8
|  3> 
|  4> %base "78_charges"
|  5> 
|  6> %scf
|  7> MaxIter 1000
|  8> end
|  9> %output
| 10>   Print[ P_Mayer ] 1
| 11>   Print[ P_NatPop ] 1
| 12>   Print[ P_Hirshfeld ] 1
| 13>   Print[ P_Mulliken ] 1
| 14>   Print [ P_Loewdin ] 1
| 15> end
| 16> 
| 17> * xyz 0 1
| 18>   C                      -6.382713            0.616906             2.109065            
| 19>   O                      -6.063089            -0.623811            1.557926            
| 20>   H                      -5.789878            -1.177674            2.303079            
| 21>   H                      -7.235176            1.066133             1.618019            
| 22>   H                      -6.626538            0.560739             3.087833            
| 23>   H                      -5.597071            1.335384             2.021077            
| 24> *
| 25> 
| 26>                          ****END OF INPUT****
================================================================================

                       ****************************
                       * Single Point Calculation *
                       ****************************

---------------------------------
CARTESIAN COORDINATES (ANGSTROEM)
---------------------------------
  C     -6.382713    0.616906    2.109065
  O     -6.063089   -0.623811    1.557926
  H     -5.789878   -1.177674    2.303079
  H     -7.235176    1.066133    1.618019
  H     -6.626538    0.560739    3.087833
  H     -5.597071    1.335384    2.021077

----------------------------
CARTESIAN COORDINATES (A.U.)
----------------------------
  NO LB      ZA    FRAG     MASS         X           Y           Z
   0 C     6.0000    0    12.011  -12.061580    1.165783    3.985555
   1 O     8.0000    0    15.999  -11.457578   -1.178832    2.944053
   2 H     1.0000    0     1.008  -10.941284   -2.225481    4.352189
   3 H     1.0000    0     1.008  -13.672501    2.014699    3.057613
   4 H     1.0000    0     1.008  -12.522342    1.059643    5.835159
   5 H     1.0000    0     1.008  -10.576931    2.523510    3.819282

--------------------------------
INTERNAL COORDINATES (ANGSTROEM)
--------------------------------
 C      0   0   0     0.000000000000     0.00000000     0.00000000
 O      1   0   0     1.394737384881     0.00000000     0.00000000
 H      2   1   0     0.967812722947   105.63654531     0.00000000
 H      1   2   3     1.081491672651   111.76018061   217.46435925
 H      1   2   3     1.010243614352   112.87338438   336.61696377
 H      1   2   3     1.068263018546   113.40398713    98.69747115

---------------------------
INTERNAL COORDINATES (A.U.)
---------------------------
 C      0   0   0     0.000000000000     0.00000000     0.00000000
 O      1   0   0     2.635671686167     0.00000000     0.00000000
 H      2   1   0     1.828900995295   105.63654531     0.00000000
 H      1   2   3     2.043723077427   111.76018061   217.46435925
 H      1   2   3     1.909083759667   112.87338438   336.61696377
 H      1   2   3     2.018724544047   113.40398713    98.69747115

---------------------
BASIS SET INFORMATION
---------------------
There are 3 groups of distinct atoms

 Group   1 Type C   : 11s6p2d1f contracted to 5s3p2d1f pattern {62111/411/11/1}
 Group   2 Type O   : 11s6p2d1f contracted to 5s3p2d1f pattern {62111/411/11/1}
 Group   3 Type H   : 5s1p contracted to 3s1p pattern {311/1}

Atom   0C    basis set group =>   1
Atom   1O    basis set group =>   2
Atom   2H    basis set group =>   3
Atom   3H    basis set group =>   3
Atom   4H    basis set group =>   3
Atom   5H    basis set group =>   3


           ************************************************************
           *        Program running with 8 parallel MPI-processes     *
           *              working on a common directory               *
           ************************************************************
------------------------------------------------------------------------------
                           ORCA GTO INTEGRAL CALCULATION
------------------------------------------------------------------------------

                         BASIS SET STATISTICS AND STARTUP INFO

 # of primitive gaussian shells          ...   64
 # of primitive gaussian functions       ...  124
 # of contracted shells                  ...   38
 # of contracted basis functions         ...   86
 Highest angular momentum                ...    3
 Maximum contraction depth               ...    6
 Integral package used                   ... LIBINT
 Integral threshhold            Thresh   ...  2.500e-11
 Primitive cut-off              TCut     ...  2.500e-12


------------------------------ INTEGRAL EVALUATION ----------------------------


 * One electron integrals 
 Pre-screening matrix                    ... done
 Shell pair data                         ... done (   0.000 sec)



           ************************************************************
           *        Program running with 8 parallel MPI-processes     *
           *              working on a common directory               *
           ************************************************************
-------------------------------------------------------------------------------
                                 ORCA SCF
-------------------------------------------------------------------------------

------------
SCF SETTINGS
------------
Hamiltonian:
 Density Functional     Method          .... DFT(GTOs)
 Exchange Functional    Exchange        .... WB97X-D3
 Correlation Functional Correlation     .... WB97X-D3
 Gradients option       PostSCFGGA      .... off
 Hybrid DFT is turned on
   Fraction HF Exchange ScalHFX         ....  0.195728
   Scaling of DF-GGA-X  ScalDFX         ....  0.000000
   Scaling of DF-GGA-C  ScalDFC         ....  1.000000
   Scaling of DF-LDA-C  ScalLDAC        ....  1.000000
   Perturbative correction              ....  0.000000
   Density functional embedding theory  .... OFF
 Long-range corrected/Screened/Range-Separated Hybrid DFT is turned on
   Amount of maximum screened exact exchange              ....  0.804272
   Range separation parameter mu (erf(mu*r12)/r12)        ....  0.250000


General Settings:
 Integral files         IntName         .... 78_charges
 Hartree-Fock type      HFTyp           .... RHF
 Total Charge           Charge          ....    0
 Multiplicity           Mult            ....    1
 Number of Electrons    NEL             ....   18
 Basis Dimension        Dim             ....   86
 Nuclear Repulsion      ENuc            ....     41.1127545058 Eh

Convergence Acceleration:
 DIIS                   CNVDIIS         .... on
   Start iteration      DIISMaxIt       ....    12
   Startup error        DIISStart       ....  0.200000
   # of expansion vecs  DIISMaxEq       ....     5
   Bias factor          DIISBfac        ....   1.050
   Max. coefficient     DIISMaxC        ....  10.000
 Newton-Raphson         CNVNR           .... off
 SOSCF                  CNVSOSCF        .... on
   Start iteration      SOSCFMaxIt      ....   150
   Startup grad/error   SOSCFStart      ....  0.003300
 Level Shifting         CNVShift        .... on
   Level shift para.    LevelShift      ....    0.2500
   Turn off err/grad.   ShiftErr        ....    0.0010
 Zerner damping         CNVZerner       .... off
 Static damping         CNVDamp         .... on
   Fraction old density DampFac         ....    0.7000
   Max. Damping (<1)    DampMax         ....    0.9800
   Min. Damping (>=0)   DampMin         ....    0.0000
   Turn off err/grad.   DampErr         ....    0.1000
 Fernandez-Rico         CNVRico         .... off

SCF Procedure:
 Maximum # iterations   MaxIter         ....  1000
 SCF integral mode      SCFMode         .... Direct
   Integral package                     .... LIBINT
 Reset frequency        DirectResetFreq ....    20
 Integral Threshold     Thresh          ....  2.500e-11 Eh
 Primitive CutOff       TCut            ....  2.500e-12 Eh

Convergence Tolerance:
 Convergence Check Mode ConvCheckMode   .... Total+1el-Energy
 Convergence forced     ConvForced      .... 0
 Energy Change          TolE            ....  1.000e-08 Eh
 1-El. energy change                    ....  1.000e-05 Eh
 Orbital Gradient       TolG            ....  1.000e-05
 Orbital Rotation angle TolX            ....  1.000e-05
 DIIS Error             TolErr          ....  5.000e-07


Diagonalization of the overlap matrix:
Smallest eigenvalue                        ... 1.412e-03
Time for diagonalization                   ...    0.050 sec
Threshold for overlap eigenvalues          ... 1.000e-08
Number of eigenvalues below threshold      ... 0
Time for construction of square roots      ...    0.113 sec
Total time needed                          ...    0.163 sec

-------------------
DFT GRID GENERATION
-------------------

General Integration Accuracy     IntAcc      ...  4.340
Radial Grid Type                 RadialGrid  ... Gauss-Chebyshev
Angular Grid (max. acc.)         AngularGrid ... Lebedev-110
Angular grid pruning method      GridPruning ... 3 (G Style)
Weight generation scheme         WeightScheme... Becke
Basis function cutoff            BFCut       ...    1.0000e-11
Integration weight cutoff        WCut        ...    1.0000e-14
Grids for H and He will be reduced by one unit

# of grid points (after initial pruning)     ...   6548 (   0.0 sec)
# of grid points (after weights+screening)   ...   6369 (   2.4 sec)
nearest neighbour list constructed           ...    0.0 sec
Grid point re-assignment to atoms done       ...    0.0 sec
Grid point division into batches done        ...    0.0 sec
Reduced shell lists constructed in    0.0 sec

Total number of grid points                  ...     6369
Total number of batches                      ...      103
Average number of points per batch           ...       61
Average number of grid points per atom       ...     1062
Average number of shells per batch           ...    31.64 (83.27%)
Average number of basis functions per batch  ...    72.21 (83.97%)
Average number of large shells per batch     ...    30.71 (97.07%)
Average number of large basis fcns per batch ...    70.43 (97.53%)
Maximum spatial batch extension              ...  25.60, 12.79, 16.19 au
Average spatial batch extension              ...   0.58,  0.38,  0.42 au

Time for grid setup =    5.290 sec

------------------------------
INITIAL GUESS: MODEL POTENTIAL
------------------------------
Loading Hartree-Fock densities                     ... done
Calculating cut-offs                               ... done
Setting up the integral package                    ... done
Initializing the effective Hamiltonian             ... done
Starting the Coulomb interaction                   ... done (   0.0 sec)
Reading the grid                                   ... done
Mapping shells                                     ... done
Starting the XC term evaluation                    ... done (   0.2 sec)
  promolecular density results
     # of electrons  =     18.002201031
     EX              =    -14.455601771
     EC              =     -0.578335468
     EX+EC           =    -15.033937239
Transforming the Hamiltonian                       ... done (   0.0 sec)
Diagonalizing the Hamiltonian                      ... done (   0.0 sec)
Back transforming the eigenvectors                 ... done (   0.0 sec)
Now organizing SCF variables                       ... done
                      ------------------
                      INITIAL GUESS DONE (   5.7 sec)
                      ------------------
--------------
SCF ITERATIONS
--------------
ITER       Energy         Delta-E        Max-DP      RMS-DP      [F,P]     Damp
               ***  Starting incremental Fock matrix formation  ***
  0   -115.6380700635   0.000000000000 0.03591963  0.00151212  0.2389376 0.7000
  1   -115.6766158280  -0.038545764563 0.02087103  0.00108376  0.1205295 0.7000
                               ***Turning on DIIS***
  2   -115.6948289428  -0.018213114717 0.03266856  0.00199146  0.0487849 0.0000
  3   -115.7245808186  -0.029751875870 0.01781045  0.00071294  0.0587621 0.0000
  4   -115.7292006582  -0.004619839567 0.00406592  0.00013664  0.0061974 0.0000
                      *** Initiating the SOSCF procedure ***
                           *** Shutting down DIIS ***
                      *** Re-Reading the Fockian *** 
                      *** Removing any level shift *** 
ITER      Energy       Delta-E        Grad      Rot      Max-DP    RMS-DP
  5   -115.72929771  -0.0000970551  0.000442  0.000442  0.000787  0.000048
               *** Restarting incremental Fock matrix formation ***
  6   -115.72930659  -0.0000088797  0.000140  0.000190  0.000458  0.000028
  7   -115.72930737  -0.0000007778  0.000053  0.000108  0.000213  0.000013
  8   -115.72930743  -0.0000000588  0.000027  0.000021  0.000036  0.000002
  9   -115.72930744  -0.0000000141  0.000011  0.000010  0.000018  0.000001
 10   -115.72930744  -0.0000000013  0.000003  0.000003  0.000005  0.000000
                  ***Gradient check signals convergence***
              ***Rediagonalizing the Fockian in SOSCF/NRSCF***

               *****************************************************
               *                     SUCCESS                       *
               *           SCF CONVERGED AFTER  11 CYCLES          *
               *****************************************************

Setting up the final grid:

General Integration Accuracy     IntAcc      ...  4.670
Radial Grid Type                 RadialGrid  ... Gauss-Chebyshev
Angular Grid (max. acc.)         AngularGrid ... Lebedev-302
Angular grid pruning method      GridPruning ... 3 (G Style)
Weight generation scheme         WeightScheme... Becke
Basis function cutoff            BFCut       ...    1.0000e-11
Integration weight cutoff        WCut        ...    1.0000e-14
Grids for H and He will be reduced by one unit

# of grid points (after initial pruning)     ...  26000 (   0.0 sec)
# of grid points (after weights+screening)   ...  25162 (   0.0 sec)
nearest neighbour list constructed           ...    0.0 sec
Grid point re-assignment to atoms done       ...    0.0 sec
Grid point division into batches done        ...    0.1 sec
Reduced shell lists constructed in    0.1 sec

Total number of grid points                  ...    25162
Total number of batches                      ...      395
Average number of points per batch           ...       63
Average number of grid points per atom       ...     4194
Average number of shells per batch           ...    31.16 (81.99%)
Average number of basis functions per batch  ...    71.27 (82.88%)
Average number of large shells per batch     ...    29.73 (95.41%)
Average number of large basis fcns per batch ...    68.24 (95.74%)
Maximum spatial batch extension              ...  16.88, 13.81, 15.11 au
Average spatial batch extension              ...   0.34,  0.29,  0.31 au

Final grid set up in    0.2 sec
Final integration                            ... done (   0.1 sec)
Change in XC energy                          ...     0.000035691
Integrated number of electrons               ...    18.000001768
Previous integrated no of electrons          ...    18.001810875

----------------
TOTAL SCF ENERGY
----------------

Total Energy       :         -115.72927175 Eh           -3149.15358 eV

Components:
Nuclear Repulsion  :           41.11275451 Eh            1118.73493 eV
Electronic Energy  :         -156.84202626 Eh           -4267.88851 eV
One Electron Energy:         -238.56299722 Eh           -6491.62918 eV
Two Electron Energy:           81.72097096 Eh            2223.74067 eV

Virial components:
Potential Energy   :         -231.17931717 Eh           -6290.70903 eV
Kinetic Energy     :          115.45004542 Eh            3141.55545 eV
Virial Ratio       :            2.00241859


DFT components:
N(Alpha)           :        9.000000884168 electrons
N(Beta)            :        9.000000884168 electrons
N(Total)           :       18.000001768335 electrons
E(XC)              :      -10.694503679396 Eh       
DFET-embed. en.    :        0.000000000000 Eh       

---------------
SCF CONVERGENCE
---------------

  Last Energy change         ...   -3.6974e-10  Tolerance :   1.0000e-08
  Last MAX-Density change    ...    1.9251e-06  Tolerance :   1.0000e-07
  Last RMS-Density change    ...    9.2060e-08  Tolerance :   5.0000e-09
  Last Orbital Gradient      ...    1.0243e-06  Tolerance :   1.0000e-05
  Last Orbital Rotation      ...    6.8148e-07  Tolerance :   1.0000e-05

             **** THE GBW FILE WAS UPDATED (78_charges.gbw) ****
             **** DENSITY FILE WAS UPDATED (78_charges.scfp.tmp) ****
             **** ENERGY FILE WAS UPDATED (78_charges.en.tmp) ****
----------------
ORBITAL ENERGIES
----------------

  NO   OCC          E(Eh)            E(eV) 
   0   2.0000     -19.230993      -523.3019 
   1   2.0000     -10.296542      -280.1832 
   2   2.0000      -1.141886       -31.0723 
   3   2.0000      -0.803893       -21.8750 
   4   2.0000      -0.620802       -16.8929 
   5   2.0000      -0.544549       -14.8179 
   6   2.0000      -0.532267       -14.4837 
   7   2.0000      -0.438663       -11.9366 
   8   2.0000      -0.372966       -10.1489 
   9   0.0000       0.114971         3.1285 
  10   0.0000       0.157925         4.2973 
  11   0.0000       0.205342         5.5876 
  12   0.0000       0.214757         5.8438 
  13   0.0000       0.239960         6.5297 
  14   0.0000       0.305119         8.3027 
  15   0.0000       0.310543         8.4503 
  16   0.0000       0.409935        11.1549 
  17   0.0000       0.452318        12.3082 
  18   0.0000       0.487244        13.2586 
  19   0.0000       0.537519        14.6266 
  20   0.0000       0.558547        15.1988 
  21   0.0000       0.578401        15.7391 
  22   0.0000       0.608715        16.5640 
  23   0.0000       0.639158        17.3924 
  24   0.0000       0.691348        18.8125 
  25   0.0000       0.751364        20.4456 
  26   0.0000       0.797286        21.6953 
  27   0.0000       0.865152        23.5420 
  28   0.0000       0.984399        26.7869 
  29   0.0000       1.060940        28.8697 
  30   0.0000       1.116275        30.3754 
  31   0.0000       1.365714        37.1630 
  32   0.0000       1.467270        39.9264 
  33   0.0000       1.544666        42.0325 
  34   0.0000       1.610744        43.8306 
  35   0.0000       1.636855        44.5411 
  36   0.0000       1.665971        45.3334 
  37   0.0000       1.695203        46.1288 
  38   0.0000       1.710123        46.5348 
  39   0.0000       1.790231        48.7147 
  40   0.0000       1.948603        53.0242 
  41   0.0000       2.024247        55.0826 
  42   0.0000       2.074047        56.4377 
  43   0.0000       2.076751        56.5113 
  44   0.0000       2.157083        58.6972 
  45   0.0000       2.249976        61.2250 
  46   0.0000       2.312235        62.9191 
  47   0.0000       2.408663        65.5430 
  48   0.0000       2.445680        66.5503 
  49   0.0000       2.472477        67.2795 
  50   0.0000       2.544858        69.2491 
  51   0.0000       2.584525        70.3285 
  52   0.0000       2.665155        72.5226 
  53   0.0000       2.721426        74.0538 
  54   0.0000       2.830142        77.0121 
  55   0.0000       2.908390        79.1413 
  56   0.0000       2.951886        80.3249 
  57   0.0000       2.962434        80.6119 
  58   0.0000       3.126660        85.0808 
  59   0.0000       3.195716        86.9599 
  60   0.0000       3.291217        89.5586 
  61   0.0000       3.402761        92.5938 
  62   0.0000       3.491663        95.0130 
  63   0.0000       3.597734        97.8993 
  64   0.0000       3.634358        98.8959 
  65   0.0000       3.670521        99.8800 
  66   0.0000       3.679712       100.1301 
  67   0.0000       4.006190       109.0140 
  68   0.0000       4.309255       117.2608 
  69   0.0000       4.376929       119.1023 
  70   0.0000       4.537366       123.4680 
  71   0.0000       4.539862       123.5359 
  72   0.0000       5.374971       146.2604 
  73   0.0000       5.456610       148.4819 
  74   0.0000       5.555330       151.1682 
  75   0.0000       5.813228       158.1860 
  76   0.0000       5.871034       159.7590 
  77   0.0000       6.021921       163.8648 
  78   0.0000       6.312617       171.7750 
  79   0.0000       6.533408       177.7831 
  80   0.0000       6.778467       184.4515 
  81   0.0000       6.816379       185.4831 
  82   0.0000       7.027649       191.2321 
  83   0.0000       7.198092       195.8700 
  84   0.0000      22.636097       615.9595 
  85   0.0000      43.660319      1188.0577 

                    ********************************
                    * MULLIKEN POPULATION ANALYSIS *
                    ********************************

-----------------------
MULLIKEN ATOMIC CHARGES
-----------------------
   0 C :   -0.158661
   1 O :   -0.467802
   2 H :    0.315846
   3 H :    0.106534
   4 H :    0.107762
   5 H :    0.096320
Sum of atomic charges:    0.0000000

--------------------------------
MULLIKEN REDUCED ORBITAL CHARGES
--------------------------------
  0 C s       :     3.194673  s :     3.194673
      pz      :     1.012413  p :     2.854691
      px      :     1.052234
      py      :     0.790044
      dz2     :     0.016438  d :     0.101527
      dxz     :     0.005347
      dyz     :     0.022530
      dx2y2   :     0.016582
      dxy     :     0.040630
      f0      :     0.000862  f :     0.007768
      f+1     :     0.000196
      f-1     :     0.001226
      f+2     :     0.001034
      f-2     :     0.001215
      f+3     :     0.001508
      f-3     :     0.001727
  1 O s       :     3.797416  s :     3.797416
      pz      :     1.514454  p :     4.637444
      px      :     1.825979
      py      :     1.297010
      dz2     :     0.005789  d :     0.031276
      dxz     :     0.004362
      dyz     :     0.013053
      dx2y2   :     0.004008
      dxy     :     0.004065
      f0      :     0.000011  f :     0.001667
      f+1     :     0.000115
      f-1     :     0.000373
      f+2     :     0.000277
      f-2     :     0.000247
      f+3     :     0.000353
      f-3     :     0.000290
  2 H s       :     0.637259  s :     0.637259
      pz      :     0.015246  p :     0.046894
      px      :     0.017429
      py      :     0.014219
  3 H s       :     0.872629  s :     0.872629
      pz      :     0.005875  p :     0.020837
      px      :     0.009846
      py      :     0.005116
  4 H s       :     0.870645  s :     0.870645
      pz      :     0.011801  p :     0.021593
      px      :     0.006014
      py      :     0.003778
  5 H s       :     0.882443  s :     0.882443
      pz      :     0.004523  p :     0.021237
      px      :     0.008711
      py      :     0.008003


                     *******************************
                     * LOEWDIN POPULATION ANALYSIS *
                     *******************************

----------------------
LOEWDIN ATOMIC CHARGES
----------------------
   0 C :   -0.388478
   1 O :   -0.063025
   2 H :    0.177771
   3 H :    0.104296
   4 H :    0.077967
   5 H :    0.091470

-------------------------------
LOEWDIN REDUCED ORBITAL CHARGES
-------------------------------
  0 C s       :     2.827005  s :     2.827005
      pz      :     1.077272  p :     3.070779
      px      :     1.094704
      py      :     0.898803
      dz2     :     0.081396  d :     0.430051
      dxz     :     0.034437
      dyz     :     0.091880
      dx2y2   :     0.073457
      dxy     :     0.148881
      f0      :     0.006037  f :     0.060642
      f+1     :     0.001900
      f-1     :     0.009493
      f+2     :     0.011895
      f-2     :     0.009285
      f+3     :     0.009399
      f-3     :     0.012633
  1 O s       :     3.364567  s :     3.364567
      pz      :     1.536404  p :     4.619993
      px      :     1.733963
      py      :     1.349627
      dz2     :     0.009856  d :     0.073508
      dxz     :     0.006433
      dyz     :     0.030454
      dx2y2   :     0.012657
      dxy     :     0.014107
      f0      :     0.000219  f :     0.004957
      f+1     :     0.000275
      f-1     :     0.001708
      f+2     :     0.000624
      f-2     :     0.000627
      f+3     :     0.000821
      f-3     :     0.000682
  2 H s       :     0.668335  s :     0.668335
      pz      :     0.065979  p :     0.153895
      px      :     0.047614
      py      :     0.040302
  3 H s       :     0.834883  s :     0.834883
      pz      :     0.017864  p :     0.060821
      px      :     0.028961
      py      :     0.013996
  4 H s       :     0.847053  s :     0.847053
      pz      :     0.039322  p :     0.074980
      px      :     0.021580
      py      :     0.014078
  5 H s       :     0.844740  s :     0.844740
      pz      :     0.014561  p :     0.063791
      px      :     0.026916
      py      :     0.022314


                      *****************************
                      * MAYER POPULATION ANALYSIS *
                      *****************************

  NA   - Mulliken gross atomic population
  ZA   - Total nuclear charge
  QA   - Mulliken gross atomic charge
  VA   - Mayer's total valence
  BVA  - Mayer's bonded valence
  FA   - Mayer's free valence

  ATOM       NA         ZA         QA         VA         BVA        FA
  0 C      6.1587     6.0000    -0.1587     3.9702     3.9702     0.0000
  1 O      8.4678     8.0000    -0.4678     1.8961     1.8961     0.0000
  2 H      0.6842     1.0000     0.3158     0.9108     0.9108     0.0000
  3 H      0.8935     1.0000     0.1065     0.9558     0.9558     0.0000
  4 H      0.8922     1.0000     0.1078     0.9577     0.9577    -0.0000
  5 H      0.9037     1.0000     0.0963     0.9521     0.9521     0.0000

  Mayer bond orders larger than 0.1
B(  0-C ,  1-O ) :   1.0162 B(  0-C ,  3-H ) :   0.9785 B(  0-C ,  4-H ) :   0.9878 
B(  0-C ,  5-H ) :   0.9781 B(  1-O ,  2-H ) :   0.9006 


------------------
HIRSHFELD ANALYSIS
------------------

Total integrated alpha density =      9.000905437
Total integrated beta density  =      9.000905437

  ATOM     CHARGE      SPIN    
   0 C   -0.002408    0.000000
   1 O   -0.244760    0.000000
   2 H    0.162495    0.000000
   3 H    0.033525    0.000000
   4 H    0.027197    0.000000
   5 H    0.022141    0.000000

  TOTAL  -0.001811    0.000000

-------
TIMINGS
-------

Total SCF time: 0 days 0 hours 0 min 28 sec 

Total time                  ....      28.625 sec
Sum of individual times     ....      26.125 sec  ( 91.3%)

Fock matrix formation       ....      16.154 sec  ( 56.4%)
  XC integration            ....       4.282 sec  ( 26.5% of F)
    Basis function eval.    ....       0.037 sec  (  0.9% of XC)
    Density eval.           ....       0.047 sec  (  1.1% of XC)
    XC-Functional eval.     ....       0.107 sec  (  2.5% of XC)
    XC-Potential eval.      ....       0.037 sec  (  0.9% of XC)
Diagonalization             ....       2.626 sec  (  9.2%)
Density matrix formation    ....       0.625 sec  (  2.2%)
Population analysis         ....       0.049 sec  (  0.2%)
Initial guess               ....       0.443 sec  (  1.5%)
Orbital Transformation      ....       0.000 sec  (  0.0%)
Orbital Orthonormalization  ....       0.000 sec  (  0.0%)
DIIS solution               ....       0.323 sec  (  1.1%)
SOSCF solution              ....       0.461 sec  (  1.6%)
Grid generation             ....       5.444 sec  ( 19.0%)


-------------------------------------------------------------------------------
                          DFT DISPERSION CORRECTION                            
                                                                               
                              DFTD3 V3.1  Rev 1                                
                              USING zero damping                               
-------------------------------------------------------------------------------
The omegaB97X-D3 functional is recognized. Fit by Chai et al.
Active option DFTDOPT                   ...         3   

molecular C6(AA) [au] = 208.602382 


            DFT-D V3
 parameters
 s6 scaling factor         :     1.0000 
 rs6 scaling factor        :     1.2810 
 s8 scaling factor         :     1.0000 
 rs8 scaling factor        :     1.0940 
 Damping factor alpha6     :    14.0000 
 Damping factor alpha8     :    16.0000 
 ad hoc parameters k1-k3   :    16.0000     1.3333    -4.0000 

 Edisp/kcal,au: -0.140753694135  -0.000224305265 
 E6   /kcal   :  -0.027449695 
 E8   /kcal   :  -0.113303999 
 % E8         :  80.498063968 

-------------------------   ----------------
Dispersion correction           -0.000224305
-------------------------   ----------------


-------------------------   --------------------
FINAL SINGLE POINT ENERGY      -115.729496059534
-------------------------   --------------------


                            ***************************************
                            *     ORCA property calculations      *
                            ***************************************

                                    ---------------------
                                    Active property flags
                                    ---------------------
   (+) Dipole Moment


------------------------------------------------------------------------------
                       ORCA ELECTRIC PROPERTIES CALCULATION
------------------------------------------------------------------------------

Dipole Moment Calculation                       ... on
Quadrupole Moment Calculation                   ... off
Polarizability Calculation                      ... off
GBWName                                         ... 78_charges.gbw
Electron density file                           ... 78_charges.scfp.tmp
The origin for moment calculation is the CENTER OF MASS  = (-11.743218, -0.045520  3.500817)

-------------
DIPOLE MOMENT
-------------
                                X             Y             Z
Electronic contribution:      0.39508      -1.63096      -0.79436
Nuclear contribution   :     -0.36524       1.75578       1.51530
                        -----------------------------------------
Total Dipole Moment    :      0.02984       0.12482       0.72094
                        -----------------------------------------
Magnitude (a.u.)       :      0.73227
Magnitude (Debye)      :      1.86128



--------------------
Rotational spectrum 
--------------------
 
Rotational constants in cm-1:     4.618840     0.853730     0.823247 
Rotational constants in MHz : 138469.336120 25594.174270 24680.338513 

 Dipole components along the rotational axes: 
x,y,z [a.u.] :     0.349693     0.641425     0.050092 
x,y,z [Debye]:     0.888850     1.630372     0.127324 

 
------------------------------------------------------------------------------
                      ORCA CHELPG CHARGES GENERATION
------------------------------------------------------------------------------

GBW file                           ... 78_charges.gbw

Reading the GBW file               ... done

Grid spacing                       ...     0.300000
Point Cut-Off                      ...     2.800000
Van-der-Waals Radii                ...        COSMO
Total charge                       ...            0


Number of points X direction       ...           24
Number of points Y direction       ...           27
Number of points Z direction       ...           23
Maximum number of possible points  ...        14904
Final number of points             ...         5850


CHELPG Charges            
--------------------------------
  0   C   :       0.237465
  1   O   :      -0.625790
  2   H   :       0.397050
  3   H   :       0.026145
  4   H   :      -0.025289
  5   H   :      -0.009581
--------------------------------
Total charge:    -0.000000
--------------------------------

CHELPG charges calculated...

Timings for individual parts in CHELPG calculation:
Grid generation                 ...        0.001 sec (=   0.000 min)
Potential calculation           ...        0.662 sec (=   0.011 min)
Fit to the potential            ...        0.001 sec (=   0.000 min)
------------------------------------------------------------------------------


Timings for individual modules:

Sum of individual times         ...       38.743 sec (=   0.646 min)
GTO integral calculation        ...        4.929 sec (=   0.082 min)  12.7 %
SCF iterations                  ...       33.100 sec (=   0.552 min)  85.4 %
CHELPG charge generation        ...        0.714 sec (=   0.012 min)   1.8 %
                             ****ORCA TERMINATED NORMALLY****
TOTAL RUN TIME: 0 days 0 hours 0 minutes 40 seconds 657 msec
