
                                 *****************
                                 * O   R   C   A *
                                 *****************

           --- An Ab Initio, DFT and Semiempirical electronic structure package ---

                  #######################################################
                  #                        -***-                        #
                  #          Department of theory and spectroscopy      #
                  #               Directorship: Frank Neese             #
                  #        Max Planck Institute fuer Kohlenforschung    #
                  #                Kaiser Wilhelm Platz 1               #
                  #                 D-45470 Muelheim/Ruhr               #
                  #                      Germany                        #
                  #                                                     #
                  #                  All rights reserved                #
                  #                        -***-                        #
                  #######################################################


                         Program Version 4.1.2  - RELEASE  -


 With contributions from (in alphabetic order):
   Daniel Aravena         : Magnetic Properties
   Michael Atanasov       : Ab Initio Ligand Field Theory
   Alexander A. Auer      : GIAO ZORA
   Ute Becker             : Parallelization
   Giovanni Bistoni       : ED, Open-shell LED
   Martin Brehm           : Molecular dynamics
   Dmytro Bykov           : SCF Hessian
   Vijay G. Chilkuri      : MRCI spin determinant printing
   Dipayan Datta          : RHF DLPNO-CCSD density
   Achintya Kumar Dutta   : EOM-CC, STEOM-CC
   Dmitry Ganyushin       : Spin-Orbit,Spin-Spin,Magnetic field MRCI
   Miquel Garcia          : C-PCM Hessian
   Yang Guo               : DLPNO-NEVPT2, CIM, IAO-localization
   Andreas Hansen         : Spin unrestricted coupled pair/coupled cluster methods
   Benjamin Helmich-Paris : CASSCF linear response (MC-RPA)
   Lee Huntington         : MR-EOM, pCC
   Robert Izsak           : Overlap fitted RIJCOSX, COSX-SCS-MP3, EOM
   Christian Kollmar      : KDIIS, OOCD, Brueckner-CCSD(T), CCSD density
   Simone Kossmann        : Meta GGA functionals, TD-DFT gradient, OOMP2, MP2 Hessian
   Martin Krupicka        : AUTO-CI
   Lucas Lang             : DCDCAS
   Dagmar Lenk            : GEPOL surface, SMD
   Dimitrios Liakos       : Extrapolation schemes; parallel MDCI
   Dimitrios Manganas     : ROCIS; embedding schemes
   Dimitrios Pantazis     : SARC Basis sets
   Taras Petrenko         : DFT Hessian,TD-DFT gradient, ASA, ECA, R-Raman, ABS, FL, XAS/XES, NRVS
   Peter Pinski           : DLPNO-MP2, DLPNO-MP2 Gradient
   Christoph Reimann      : Effective Core Potentials
   Marius Retegan         : Local ZFS, SOC
   Christoph Riplinger    : Optimizer, TS searches, QM/MM, DLPNO-CCSD(T), (RO)-DLPNO pert. Triples
   Tobias Risthaus        : Range-separated hybrids, TD-DFT gradient, RPA, STAB
   Michael Roemelt        : Restricted open shell CIS
   Masaaki Saitow         : Open-shell DLPNO
   Barbara Sandhoefer     : DKH picture change effects
   Avijit Sen             : IP-ROCIS
   Kantharuban Sivalingam : CASSCF convergence, NEVPT2, FIC-MRCI
   Bernardo de Souza      : ESD, SOC TD-DFT
   Georgi Stoychev        : AutoAux, RI-MP2 NMR
   Willem Van den Heuvel  : Paramagnetic NMR
   Boris Wezisla          : Elementary symmetry handling
   Frank Wennmohs         : Technical directorship


 We gratefully acknowledge several colleagues who have allowed us to
 interface, adapt or use parts of their codes:
   Stefan Grimme, W. Hujo, H. Kruse,             : VdW corrections, initial TS optimization,
                  C. Bannwarth                     DFT functionals, gCP, sTDA/sTD-DF
   Ed Valeev                                     : LibInt (2-el integral package), F12 methods
   Garnet Chan, S. Sharma, J. Yang, R. Olivares  : DMRG
   Ulf Ekstrom                                   : XCFun DFT Library
   Mihaly Kallay                                 : mrcc  (arbitrary order and MRCC methods)
   Andreas Klamt, Michael Diedenhofen            : otool_cosmo (COSMO solvation model)
   Jiri Pittner, Ondrej Demel                    : Mk-CCSD
   Frank Weinhold                                : gennbo (NPA and NBO analysis)
   Christopher J. Cramer and Donald G. Truhlar   : smd solvation model
   Lars Goerigk                                  : TD-DFT with DH, B97 family of functionals
   V. Asgeirsson, H. Jonsson                     : NEB implementation
   FAccTs GmbH                                   : IRC, NEB, NEB-TS, Multilevel


 Your calculation uses the libint2 library for the computation of 2-el integrals
 For citations please refer to: http://libint.valeyev.net

 This ORCA versions uses:
   CBLAS   interface :  Fast vector & matrix operations
   LAPACKE interface :  Fast linear algebra routines
   SCALAPACK package :  Parallel linear algebra routines


Your calculation utilizes the atom-pairwise dispersion correction
with the zero-damping scheme (D30)
Cite in your paper:
S.Grimme, J.Antony, S.Ehrlich and H.Krieg, J.Chem.Phys., 132, (2010), 154104 
   

XCFun DFT library Copyright 2009-2010 Ulf Ekstrom and contributors.
See http://admol.org/xcfun for more information. This is free soft-
ware; see the source code for copying conditions. There is ABSOLUTELY
NO WARRANTY; not even for MERCHANTABILITY or FITNESS FOR A PARTICULAR
PURPOSE. For details see the documentation. Scientific users of this 
library should cite U. Ekstrom, L. Visscher, R. Bast, A. J. Thorvald-
sen and K. Ruud; J.Chem.Theor.Comp. 2010, DOI: 10.1021/ct100117s
XCFun Version 0.99 
----- Orbital basis set information -----
Your calculation utilizes the basis: def2-TZVP
   F. Weigend and R. Ahlrichs, Phys. Chem. Chem. Phys. 7, 3297 (2005).

================================================================================
                                        WARNINGS
                       Please study these warnings very carefully!
================================================================================


INFO   : the flag for use of LIBINT has been found!

================================================================================
                                       INPUT FILE
================================================================================
NAME = 109.in
|  1> #Run DFT-D3 single point of the dimer
|  2> ! wB97X-D3 def2-TZVP TIGHTSCF  CHELPG PAL8
|  3> 
|  4> %base "109_charges"
|  5> 
|  6> %scf
|  7> MaxIter 1000
|  8> end
|  9> %output
| 10>   Print[ P_Mayer ] 1
| 11>   Print[ P_NatPop ] 1
| 12>   Print[ P_Hirshfeld ] 1
| 13>   Print[ P_Mulliken ] 1
| 14>   Print [ P_Loewdin ] 1
| 15> end
| 16> 
| 17> * xyz 0 1
| 18>   C                      -6.680361            -8.236174            8.080573            
| 19>   O                      -7.468222            -7.086363            7.862022            
| 20>   H                      -6.975564            -6.624363            7.188072            
| 21>   H                      -5.677859            -7.950119            7.800691            
| 22>   H                      -6.661166            -8.598517            9.090119            
| 23>   H                      -7.053821            -9.051168            7.352118            
| 24> *
| 25> 
| 26>                          ****END OF INPUT****
================================================================================

                       ****************************
                       * Single Point Calculation *
                       ****************************

---------------------------------
CARTESIAN COORDINATES (ANGSTROEM)
---------------------------------
  C     -6.680361   -8.236174    8.080573
  O     -7.468222   -7.086363    7.862022
  H     -6.975564   -6.624363    7.188072
  H     -5.677859   -7.950119    7.800691
  H     -6.661166   -8.598517    9.090119
  H     -7.053821   -9.051168    7.352118

----------------------------
CARTESIAN COORDINATES (A.U.)
----------------------------
  NO LB      ZA    FRAG     MASS         X           Y           Z
   0 C     6.0000    0    12.011  -12.624053  -15.564113   15.270070
   1 O     8.0000    0    15.999  -14.112894  -13.391285   14.857068
   2 H     1.0000    0     1.008  -13.181906  -12.518232   13.583488
   3 H     1.0000    0     1.008  -10.729599  -15.023548   14.741170
   4 H     1.0000    0     1.008  -12.587779  -16.248842   17.177835
   5 H     1.0000    0     1.008  -13.329790  -17.104229   13.893490

--------------------------------
INTERNAL COORDINATES (ANGSTROEM)
--------------------------------
 C      0   0   0     0.000000000000     0.00000000     0.00000000
 O      1   0   0     1.410870238769     0.00000000     0.00000000
 H      2   1   0     0.954130236112   102.45632321     0.00000000
 H      1   2   3     1.079431172865   105.21781207    25.89379521
 H      1   2   3     1.072773985418   115.53306988   145.49104801
 H      1   2   3     1.155133879107   107.26336594   270.05442438

---------------------------
INTERNAL COORDINATES (A.U.)
---------------------------
 C      0   0   0     0.000000000000     0.00000000     0.00000000
 O      1   0   0     2.666158361773     0.00000000     0.00000000
 H      2   1   0     1.803044842346   102.45632321     0.00000000
 H      1   2   3     2.039829297133   105.21781207    25.89379521
 H      1   2   3     2.027249036036   115.53306988   145.49104801
 H      1   2   3     2.182886679527   107.26336594   270.05442438

---------------------
BASIS SET INFORMATION
---------------------
There are 3 groups of distinct atoms

 Group   1 Type C   : 11s6p2d1f contracted to 5s3p2d1f pattern {62111/411/11/1}
 Group   2 Type O   : 11s6p2d1f contracted to 5s3p2d1f pattern {62111/411/11/1}
 Group   3 Type H   : 5s1p contracted to 3s1p pattern {311/1}

Atom   0C    basis set group =>   1
Atom   1O    basis set group =>   2
Atom   2H    basis set group =>   3
Atom   3H    basis set group =>   3
Atom   4H    basis set group =>   3
Atom   5H    basis set group =>   3


           ************************************************************
           *        Program running with 8 parallel MPI-processes     *
           *              working on a common directory               *
           ************************************************************
------------------------------------------------------------------------------
                           ORCA GTO INTEGRAL CALCULATION
------------------------------------------------------------------------------

                         BASIS SET STATISTICS AND STARTUP INFO

 # of primitive gaussian shells          ...   64
 # of primitive gaussian functions       ...  124
 # of contracted shells                  ...   38
 # of contracted basis functions         ...   86
 Highest angular momentum                ...    3
 Maximum contraction depth               ...    6
 Integral package used                   ... LIBINT
 Integral threshhold            Thresh   ...  2.500e-11
 Primitive cut-off              TCut     ...  2.500e-12


------------------------------ INTEGRAL EVALUATION ----------------------------


 * One electron integrals 
 Pre-screening matrix                    ... done
 Shell pair data                         ... done (   0.000 sec)



           ************************************************************
           *        Program running with 8 parallel MPI-processes     *
           *              working on a common directory               *
           ************************************************************
-------------------------------------------------------------------------------
                                 ORCA SCF
-------------------------------------------------------------------------------

------------
SCF SETTINGS
------------
Hamiltonian:
 Density Functional     Method          .... DFT(GTOs)
 Exchange Functional    Exchange        .... WB97X-D3
 Correlation Functional Correlation     .... WB97X-D3
 Gradients option       PostSCFGGA      .... off
 Hybrid DFT is turned on
   Fraction HF Exchange ScalHFX         ....  0.195728
   Scaling of DF-GGA-X  ScalDFX         ....  0.000000
   Scaling of DF-GGA-C  ScalDFC         ....  1.000000
   Scaling of DF-LDA-C  ScalLDAC        ....  1.000000
   Perturbative correction              ....  0.000000
   Density functional embedding theory  .... OFF
 Long-range corrected/Screened/Range-Separated Hybrid DFT is turned on
   Amount of maximum screened exact exchange              ....  0.804272
   Range separation parameter mu (erf(mu*r12)/r12)        ....  0.250000


General Settings:
 Integral files         IntName         .... 109_charges
 Hartree-Fock type      HFTyp           .... RHF
 Total Charge           Charge          ....    0
 Multiplicity           Mult            ....    1
 Number of Electrons    NEL             ....   18
 Basis Dimension        Dim             ....   86
 Nuclear Repulsion      ENuc            ....     40.5334169282 Eh

Convergence Acceleration:
 DIIS                   CNVDIIS         .... on
   Start iteration      DIISMaxIt       ....    12
   Startup error        DIISStart       ....  0.200000
   # of expansion vecs  DIISMaxEq       ....     5
   Bias factor          DIISBfac        ....   1.050
   Max. coefficient     DIISMaxC        ....  10.000
 Newton-Raphson         CNVNR           .... off
 SOSCF                  CNVSOSCF        .... on
   Start iteration      SOSCFMaxIt      ....   150
   Startup grad/error   SOSCFStart      ....  0.003300
 Level Shifting         CNVShift        .... on
   Level shift para.    LevelShift      ....    0.2500
   Turn off err/grad.   ShiftErr        ....    0.0010
 Zerner damping         CNVZerner       .... off
 Static damping         CNVDamp         .... on
   Fraction old density DampFac         ....    0.7000
   Max. Damping (<1)    DampMax         ....    0.9800
   Min. Damping (>=0)   DampMin         ....    0.0000
   Turn off err/grad.   DampErr         ....    0.1000
 Fernandez-Rico         CNVRico         .... off

SCF Procedure:
 Maximum # iterations   MaxIter         ....  1000
 SCF integral mode      SCFMode         .... Direct
   Integral package                     .... LIBINT
 Reset frequency        DirectResetFreq ....    20
 Integral Threshold     Thresh          ....  2.500e-11 Eh
 Primitive CutOff       TCut            ....  2.500e-12 Eh

Convergence Tolerance:
 Convergence Check Mode ConvCheckMode   .... Total+1el-Energy
 Convergence forced     ConvForced      .... 0
 Energy Change          TolE            ....  1.000e-08 Eh
 1-El. energy change                    ....  1.000e-05 Eh
 Orbital Gradient       TolG            ....  1.000e-05
 Orbital Rotation angle TolX            ....  1.000e-05
 DIIS Error             TolErr          ....  5.000e-07


Diagonalization of the overlap matrix:
Smallest eigenvalue                        ... 1.742e-03
Time for diagonalization                   ...    0.050 sec
Threshold for overlap eigenvalues          ... 1.000e-08
Number of eigenvalues below threshold      ... 0
Time for construction of square roots      ...    0.159 sec
Total time needed                          ...    0.209 sec

-------------------
DFT GRID GENERATION
-------------------

General Integration Accuracy     IntAcc      ...  4.340
Radial Grid Type                 RadialGrid  ... Gauss-Chebyshev
Angular Grid (max. acc.)         AngularGrid ... Lebedev-110
Angular grid pruning method      GridPruning ... 3 (G Style)
Weight generation scheme         WeightScheme... Becke
Basis function cutoff            BFCut       ...    1.0000e-11
Integration weight cutoff        WCut        ...    1.0000e-14
Grids for H and He will be reduced by one unit

# of grid points (after initial pruning)     ...   6548 (   0.0 sec)
# of grid points (after weights+screening)   ...   6382 (   1.8 sec)
nearest neighbour list constructed           ...    0.0 sec
Grid point re-assignment to atoms done       ...    0.0 sec
Grid point division into batches done        ...    0.0 sec
Reduced shell lists constructed in    0.0 sec

Total number of grid points                  ...     6382
Total number of batches                      ...      104
Average number of points per batch           ...       61
Average number of grid points per atom       ...     1064
Average number of shells per batch           ...    31.50 (82.89%)
Average number of basis functions per batch  ...    72.21 (83.97%)
Average number of large shells per batch     ...    30.50 (96.83%)
Average number of large basis fcns per batch ...    69.79 (96.64%)
Maximum spatial batch extension              ...  15.16, 12.55, 15.93 au
Average spatial batch extension              ...   0.44,  0.39,  0.42 au

Time for grid setup =    3.152 sec

------------------------------
INITIAL GUESS: MODEL POTENTIAL
------------------------------
Loading Hartree-Fock densities                     ... done
Calculating cut-offs                               ... done
Setting up the integral package                    ... done
Initializing the effective Hamiltonian             ... done
Starting the Coulomb interaction                   ... done (   0.0 sec)
Reading the grid                                   ... done
Mapping shells                                     ... done
Starting the XC term evaluation                    ... done (   0.1 sec)
  promolecular density results
     # of electrons  =     17.998991106
     EX              =    -14.430742279
     EC              =     -0.575917009
     EX+EC           =    -15.006659287
Transforming the Hamiltonian                       ... done (   0.0 sec)
Diagonalizing the Hamiltonian                      ... done (   0.0 sec)
Back transforming the eigenvectors                 ... done (   0.0 sec)
Now organizing SCF variables                       ... done
                      ------------------
                      INITIAL GUESS DONE (   3.5 sec)
                      ------------------
--------------
SCF ITERATIONS
--------------
ITER       Energy         Delta-E        Max-DP      RMS-DP      [F,P]     Damp
               ***  Starting incremental Fock matrix formation  ***
  0   -115.6426496351   0.000000000000 0.03700276  0.00150535  0.2501203 0.7000
  1   -115.6798072756  -0.037157640568 0.02192960  0.00106407  0.1245190 0.7000
                               ***Turning on DIIS***
  2   -115.6968255798  -0.017018304115 0.03104658  0.00190968  0.0478069 0.0000
  3   -115.7244256573  -0.027600077565 0.01719082  0.00070040  0.0609390 0.0000
  4   -115.7289951749  -0.004569517539 0.00414120  0.00013983  0.0063756 0.0000
                      *** Initiating the SOSCF procedure ***
                           *** Shutting down DIIS ***
                      *** Re-Reading the Fockian *** 
                      *** Removing any level shift *** 
ITER      Energy       Delta-E        Grad      Rot      Max-DP    RMS-DP
  5   -115.72909020  -0.0000950301  0.000427  0.000427  0.000699  0.000049
               *** Restarting incremental Fock matrix formation ***
  6   -115.72909890  -0.0000086951  0.000132  0.000242  0.000520  0.000031
  7   -115.72909977  -0.0000008662  0.000051  0.000137  0.000244  0.000014
  8   -115.72909984  -0.0000000762  0.000020  0.000017  0.000032  0.000001
  9   -115.72909985  -0.0000000069  0.000010  0.000008  0.000017  0.000001
                  ***Gradient check signals convergence***
              ***Rediagonalizing the Fockian in SOSCF/NRSCF***

               *****************************************************
               *                     SUCCESS                       *
               *           SCF CONVERGED AFTER  10 CYCLES          *
               *****************************************************

Setting up the final grid:

General Integration Accuracy     IntAcc      ...  4.670
Radial Grid Type                 RadialGrid  ... Gauss-Chebyshev
Angular Grid (max. acc.)         AngularGrid ... Lebedev-302
Angular grid pruning method      GridPruning ... 3 (G Style)
Weight generation scheme         WeightScheme... Becke
Basis function cutoff            BFCut       ...    1.0000e-11
Integration weight cutoff        WCut        ...    1.0000e-14
Grids for H and He will be reduced by one unit

# of grid points (after initial pruning)     ...  26000 (   0.0 sec)
# of grid points (after weights+screening)   ...  25181 (   0.7 sec)
nearest neighbour list constructed           ...    0.0 sec
Grid point re-assignment to atoms done       ...    0.0 sec
Grid point division into batches done        ...    0.1 sec
Reduced shell lists constructed in    0.2 sec

Total number of grid points                  ...    25181
Total number of batches                      ...      397
Average number of points per batch           ...       63
Average number of grid points per atom       ...     4197
Average number of shells per batch           ...    31.16 (81.99%)
Average number of basis functions per batch  ...    71.27 (82.88%)
Average number of large shells per batch     ...    29.82 (95.72%)
Average number of large basis fcns per batch ...    68.80 (96.53%)
Maximum spatial batch extension              ...  15.20, 14.38, 16.05 au
Average spatial batch extension              ...   0.32,  0.30,  0.34 au

Final grid set up in    2.0 sec
Final integration                            ... done (   0.4 sec)
Change in XC energy                          ...    -0.000180004
Integrated number of electrons               ...    17.999998939
Previous integrated no of electrons          ...    17.999847583

----------------
TOTAL SCF ENERGY
----------------

Total Energy       :         -115.72927986 Eh           -3149.15380 eV

Components:
Nuclear Repulsion  :           40.53341693 Eh            1102.97035 eV
Electronic Energy  :         -156.26269678 Eh           -4252.12415 eV
One Electron Energy:         -237.45562474 Eh           -6461.49605 eV
Two Electron Energy:           81.19292796 Eh            2209.37189 eV

Virial components:
Potential Energy   :         -230.99233001 Eh           -6285.62085 eV
Kinetic Energy     :          115.26305016 Eh            3136.46705 eV
Virial Ratio       :            2.00404492


DFT components:
N(Alpha)           :        8.999999469421 electrons
N(Beta)            :        8.999999469421 electrons
N(Total)           :       17.999998938842 electrons
E(XC)              :      -10.654538334000 Eh       
DFET-embed. en.    :        0.000000000000 Eh       

---------------
SCF CONVERGENCE
---------------

  Last Energy change         ...   -2.2063e-09  Tolerance :   1.0000e-08
  Last MAX-Density change    ...    3.3831e-06  Tolerance :   1.0000e-07
  Last RMS-Density change    ...    1.9708e-07  Tolerance :   5.0000e-09
  Last Orbital Gradient      ...    2.1837e-06  Tolerance :   1.0000e-05
  Last Orbital Rotation      ...    2.3677e-06  Tolerance :   1.0000e-05

             **** THE GBW FILE WAS UPDATED (109_charges.gbw) ****
             **** DENSITY FILE WAS UPDATED (109_charges.scfp.tmp) ****
             **** ENERGY FILE WAS UPDATED (109_charges.en.tmp) ****
----------------
ORBITAL ENERGIES
----------------

  NO   OCC          E(Eh)            E(eV) 
   0   2.0000     -19.228265      -523.2277 
   1   2.0000     -10.316359      -280.7224 
   2   2.0000      -1.142261       -31.0825 
   3   2.0000      -0.790220       -21.5030 
   4   2.0000      -0.611732       -16.6461 
   5   2.0000      -0.542719       -14.7681 
   6   2.0000      -0.531852       -14.4724 
   7   2.0000      -0.435733       -11.8569 
   8   2.0000      -0.370482       -10.0813 
   9   0.0000       0.110900         3.0177 
  10   0.0000       0.157624         4.2892 
  11   0.0000       0.193762         5.2725 
  12   0.0000       0.208390         5.6706 
  13   0.0000       0.230162         6.2630 
  14   0.0000       0.301150         8.1947 
  15   0.0000       0.311544         8.4775 
  16   0.0000       0.399868        10.8810 
  17   0.0000       0.441810        12.0223 
  18   0.0000       0.484799        13.1921 
  19   0.0000       0.519913        14.1476 
  20   0.0000       0.552959        15.0468 
  21   0.0000       0.564826        15.3697 
  22   0.0000       0.597600        16.2615 
  23   0.0000       0.611399        16.6370 
  24   0.0000       0.687580        18.7100 
  25   0.0000       0.768262        20.9055 
  26   0.0000       0.791411        21.5354 
  27   0.0000       0.870228        23.6801 
  28   0.0000       0.982071        26.7235 
  29   0.0000       1.039358        28.2824 
  30   0.0000       1.109940        30.2030 
  31   0.0000       1.360370        37.0176 
  32   0.0000       1.481001        40.3001 
  33   0.0000       1.552677        42.2505 
  34   0.0000       1.593338        43.3569 
  35   0.0000       1.629557        44.3425 
  36   0.0000       1.639215        44.6053 
  37   0.0000       1.663214        45.2584 
  38   0.0000       1.697711        46.1971 
  39   0.0000       1.769895        48.1613 
  40   0.0000       1.938259        52.7427 
  41   0.0000       2.021738        55.0143 
  42   0.0000       2.057833        55.9965 
  43   0.0000       2.094280        56.9882 
  44   0.0000       2.164347        58.8949 
  45   0.0000       2.231727        60.7284 
  46   0.0000       2.299464        62.5716 
  47   0.0000       2.361050        64.2474 
  48   0.0000       2.425269        65.9949 
  49   0.0000       2.441754        66.4435 
  50   0.0000       2.504445        68.1494 
  51   0.0000       2.537165        69.0398 
  52   0.0000       2.624809        71.4247 
  53   0.0000       2.679774        72.9204 
  54   0.0000       2.811479        76.5042 
  55   0.0000       2.849445        77.5373 
  56   0.0000       2.955152        80.4138 
  57   0.0000       2.996578        81.5410 
  58   0.0000       3.098044        84.3021 
  59   0.0000       3.171789        86.3088 
  60   0.0000       3.274092        89.0926 
  61   0.0000       3.406645        92.6995 
  62   0.0000       3.440888        93.6313 
  63   0.0000       3.525897        95.9445 
  64   0.0000       3.622442        98.5717 
  65   0.0000       3.630592        98.7934 
  66   0.0000       3.648581        99.2829 
  67   0.0000       4.027950       109.6061 
  68   0.0000       4.180341       113.7529 
  69   0.0000       4.305903       117.1696 
  70   0.0000       4.444269       120.9347 
  71   0.0000       4.543372       123.6315 
  72   0.0000       5.379353       146.3796 
  73   0.0000       5.464794       148.7046 
  74   0.0000       5.540578       150.7668 
  75   0.0000       5.756540       156.6434 
  76   0.0000       5.831943       158.6952 
  77   0.0000       6.020729       163.8324 
  78   0.0000       6.343222       172.6078 
  79   0.0000       6.539843       177.9582 
  80   0.0000       6.786232       184.6628 
  81   0.0000       6.832956       185.9342 
  82   0.0000       7.011628       190.7961 
  83   0.0000       7.210130       196.1976 
  84   0.0000      22.374409       608.8386 
  85   0.0000      43.662304      1188.1117 

                    ********************************
                    * MULLIKEN POPULATION ANALYSIS *
                    ********************************

-----------------------
MULLIKEN ATOMIC CHARGES
-----------------------
   0 C :   -0.168824
   1 O :   -0.462527
   2 H :    0.314282
   3 H :    0.097996
   4 H :    0.122782
   5 H :    0.096292
Sum of atomic charges:    0.0000000

--------------------------------
MULLIKEN REDUCED ORBITAL CHARGES
--------------------------------
  0 C s       :     3.237088  s :     3.237088
      pz      :     1.075955  p :     2.823846
      px      :     0.914403
      py      :     0.833488
      dz2     :     0.012944  d :     0.100078
      dxz     :     0.009124
      dyz     :     0.030879
      dx2y2   :     0.031439
      dxy     :     0.015692
      f0      :     0.001301  f :     0.007812
      f+1     :     0.000243
      f-1     :     0.001136
      f+2     :     0.000236
      f-2     :     0.001419
      f+3     :     0.001230
      f-3     :     0.002247
  1 O s       :     3.800436  s :     3.800436
      pz      :     1.609324  p :     4.629101
      px      :     1.618973
      py      :     1.400804
      dz2     :     0.004617  d :     0.031338
      dxz     :     0.006930
      dyz     :     0.004473
      dx2y2   :     0.004758
      dxy     :     0.010560
      f0      :     0.000166  f :     0.001653
      f+1     :     0.000246
      f-1     :     0.000275
      f+2     :     0.000098
      f-2     :     0.000425
      f+3     :     0.000249
      f-3     :     0.000193
  2 H s       :     0.637237  s :     0.637237
      pz      :     0.018489  p :     0.048481
      px      :     0.014892
      py      :     0.015100
  3 H s       :     0.881628  s :     0.881628
      pz      :     0.004596  p :     0.020376
      px      :     0.011733
      py      :     0.004046
  4 H s       :     0.856892  s :     0.856892
      pz      :     0.011859  p :     0.020326
      px      :     0.003906
      py      :     0.004561
  5 H s       :     0.885891  s :     0.885891
      pz      :     0.006660  p :     0.017817
      px      :     0.003869
      py      :     0.007288


                     *******************************
                     * LOEWDIN POPULATION ANALYSIS *
                     *******************************

----------------------
LOEWDIN ATOMIC CHARGES
----------------------
   0 C :   -0.387866
   1 O :   -0.077657
   2 H :    0.168609
   3 H :    0.092250
   4 H :    0.098866
   5 H :    0.105798

-------------------------------
LOEWDIN REDUCED ORBITAL CHARGES
-------------------------------
  0 C s       :     2.871362  s :     2.871362
      pz      :     1.104436  p :     3.045383
      px      :     1.009678
      py      :     0.931269
      dz2     :     0.063722  d :     0.412913
      dxz     :     0.028700
      dyz     :     0.111120
      dx2y2   :     0.120041
      dxy     :     0.089330
      f0      :     0.006445  f :     0.058208
      f+1     :     0.003624
      f-1     :     0.006458
      f+2     :     0.004519
      f-2     :     0.010865
      f+3     :     0.010713
      f-3     :     0.015585
  1 O s       :     3.371812  s :     3.371812
      pz      :     1.570464  p :     4.628719
      px      :     1.627669
      py      :     1.430587
      dz2     :     0.008616  d :     0.072206
      dxz     :     0.011202
      dyz     :     0.015406
      dx2y2   :     0.014344
      dxy     :     0.022638
      f0      :     0.000383  f :     0.004919
      f+1     :     0.000699
      f-1     :     0.000552
      f+2     :     0.000149
      f-2     :     0.001246
      f+3     :     0.000777
      f-3     :     0.001114
  2 H s       :     0.671323  s :     0.671323
      pz      :     0.064236  p :     0.160068
      px      :     0.053938
      py      :     0.041894
  3 H s       :     0.845111  s :     0.845111
      pz      :     0.015630  p :     0.062639
      px      :     0.033948
      py      :     0.013061
  4 H s       :     0.837796  s :     0.837796
      pz      :     0.037105  p :     0.063338
      px      :     0.012584
      py      :     0.013649
  5 H s       :     0.843452  s :     0.843452
      pz      :     0.019440  p :     0.050750
      px      :     0.011256
      py      :     0.020054


                      *****************************
                      * MAYER POPULATION ANALYSIS *
                      *****************************

  NA   - Mulliken gross atomic population
  ZA   - Total nuclear charge
  QA   - Mulliken gross atomic charge
  VA   - Mayer's total valence
  BVA  - Mayer's bonded valence
  FA   - Mayer's free valence

  ATOM       NA         ZA         QA         VA         BVA        FA
  0 C      6.1688     6.0000    -0.1688     3.9494     3.9494     0.0000
  1 O      8.4625     8.0000    -0.4625     1.8842     1.8842     0.0000
  2 H      0.6857     1.0000     0.3143     0.9122     0.9122     0.0000
  3 H      0.9020     1.0000     0.0980     0.9658     0.9658     0.0000
  4 H      0.8772     1.0000     0.1228     0.9540     0.9540     0.0000
  5 H      0.9037     1.0000     0.0963     0.9596     0.9596     0.0000

  Mayer bond orders larger than 0.1
B(  0-C ,  1-O ) :   1.0013 B(  0-C ,  3-H ) :   0.9946 B(  0-C ,  4-H ) :   0.9688 
B(  0-C ,  5-H ) :   0.9750 B(  1-O ,  2-H ) :   0.9046 


------------------
HIRSHFELD ANALYSIS
------------------

Total integrated alpha density =      8.999923791
Total integrated beta density  =      8.999923791

  ATOM     CHARGE      SPIN    
   0 C    0.009960    0.000000
   1 O   -0.255484    0.000000
   2 H    0.158379    0.000000
   3 H    0.024608    0.000000
   4 H    0.040710    0.000000
   5 H    0.021979    0.000000

  TOTAL   0.000152    0.000000

-------
TIMINGS
-------

Total SCF time: 0 days 0 hours 0 min 29 sec 

Total time                  ....      29.098 sec
Sum of individual times     ....      25.030 sec  ( 86.0%)

Fock matrix formation       ....      16.082 sec  ( 55.3%)
  XC integration            ....       3.859 sec  ( 24.0% of F)
    Basis function eval.    ....       0.040 sec  (  1.0% of XC)
    Density eval.           ....       0.044 sec  (  1.1% of XC)
    XC-Functional eval.     ....       0.080 sec  (  2.1% of XC)
    XC-Potential eval.      ....       0.034 sec  (  0.9% of XC)
Diagonalization             ....       0.778 sec  (  2.7%)
Density matrix formation    ....       1.094 sec  (  3.8%)
Population analysis         ....       0.571 sec  (  2.0%)
Initial guess               ....       0.385 sec  (  1.3%)
Orbital Transformation      ....       0.000 sec  (  0.0%)
Orbital Orthonormalization  ....       0.000 sec  (  0.0%)
DIIS solution               ....       0.362 sec  (  1.2%)
SOSCF solution              ....       0.558 sec  (  1.9%)
Grid generation             ....       5.200 sec  ( 17.9%)


-------------------------------------------------------------------------------
                          DFT DISPERSION CORRECTION                            
                                                                               
                              DFTD3 V3.1  Rev 1                                
                              USING zero damping                               
-------------------------------------------------------------------------------
The omegaB97X-D3 functional is recognized. Fit by Chai et al.
Active option DFTDOPT                   ...         3   

molecular C6(AA) [au] = 208.733059 


            DFT-D V3
 parameters
 s6 scaling factor         :     1.0000 
 rs6 scaling factor        :     1.2810 
 s8 scaling factor         :     1.0000 
 rs8 scaling factor        :     1.0940 
 Damping factor alpha6     :    14.0000 
 Damping factor alpha8     :    16.0000 
 ad hoc parameters k1-k3   :    16.0000     1.3333    -4.0000 

 Edisp/kcal,au: -0.137573794777  -0.000219237774 
 E6   /kcal   :  -0.026125935 
 E8   /kcal   :  -0.111447860 
 % E8         :  81.009511972 

-------------------------   ----------------
Dispersion correction           -0.000219238
-------------------------   ----------------


-------------------------   --------------------
FINAL SINGLE POINT ENERGY      -115.729499092882
-------------------------   --------------------


                            ***************************************
                            *     ORCA property calculations      *
                            ***************************************

                                    ---------------------
                                    Active property flags
                                    ---------------------
   (+) Dipole Moment


------------------------------------------------------------------------------
                       ORCA ELECTRIC PROPERTIES CALCULATION
------------------------------------------------------------------------------

Dipole Moment Calculation                       ... on
Quadrupole Moment Calculation                   ... off
Polarizability Calculation                      ... off
GBWName                                         ... 109_charges.gbw
Electron density file                           ... 109_charges.scfp.tmp
The origin for moment calculation is the CENTER OF MASS  = (-13.346464, -14.436357 15.010867)

-------------
DIPOLE MOMENT
-------------
                                X             Y             Z
Electronic contribution:     -1.11977       1.42828       0.00731
Nuclear contribution   :      1.75981      -1.55539      -0.32266
                        -----------------------------------------
Total Dipole Moment    :      0.64004      -0.12711      -0.31534
                        -----------------------------------------
Magnitude (a.u.)       :      0.72474
Magnitude (Debye)      :      1.84214



--------------------
Rotational spectrum 
--------------------
 
Rotational constants in cm-1:     4.154244     0.842118     0.818281 
Rotational constants in MHz : 124541.088327 25246.052641 24531.440601 

 Dipole components along the rotational axes: 
x,y,z [a.u.] :     0.379953    -0.614412    -0.058127 
x,y,z [Debye]:     0.965764    -1.561711    -0.147747 

 
------------------------------------------------------------------------------
                      ORCA CHELPG CHARGES GENERATION
------------------------------------------------------------------------------

GBW file                           ... 109_charges.gbw

Reading the GBW file               ... done

Grid spacing                       ...     0.300000
Point Cut-Off                      ...     2.800000
Van-der-Waals Radii                ...        COSMO
Total charge                       ...            0


Number of points X direction       ...           24
Number of points Y direction       ...           26
Number of points Z direction       ...           25
Maximum number of possible points  ...        15600
Final number of points             ...         5866


CHELPG Charges            
--------------------------------
  0   C   :       0.140321
  1   O   :      -0.600982
  2   H   :       0.402187
  3   H   :      -0.008082
  4   H   :       0.062458
  5   H   :       0.004099
--------------------------------
Total charge:    -0.000000
--------------------------------

CHELPG charges calculated...

Timings for individual parts in CHELPG calculation:
Grid generation                 ...        0.001 sec (=   0.000 min)
Potential calculation           ...        1.018 sec (=   0.017 min)
Fit to the potential            ...        0.015 sec (=   0.000 min)
------------------------------------------------------------------------------


Timings for individual modules:

Sum of individual times         ...       38.930 sec (=   0.649 min)
GTO integral calculation        ...        5.089 sec (=   0.085 min)  13.1 %
SCF iterations                  ...       32.250 sec (=   0.538 min)  82.8 %
CHELPG charge generation        ...        1.591 sec (=   0.027 min)   4.1 %
                             ****ORCA TERMINATED NORMALLY****
TOTAL RUN TIME: 0 days 0 hours 0 minutes 42 seconds 381 msec
