LAMMPS data file via write_data, version 11 Aug 2017, timestep = 210000

1002 atoms
4 atom types
835 bonds
3 bond types
1169 angles
3 angle types
501 dihedrals
1 dihedral types

-1.1195246337009028e+01 1.1195246337009028e+01 xlo xhi
-1.1195246337009028e+01 1.1195246337009028e+01 ylo yhi
-1.1195246337009028e+01 1.1195246337009028e+01 zlo zhi

Masses

1 1.00794
2 1.00794
3 12.011
4 15.9994

Bond Coeffs # harmonic

1 366.904 1.0961
2 612.22 0.957501
3 368.71 1.41153

Angle Coeffs # harmonic

1 40.9267 108.205
2 61.3287 112.232
3 49.873 108.742

Atoms # full

7 1 3 9.9454000000000001e-02 -7.3190553590562892e+00 -1.0185647517137799e+01 -8.6143397677556983e+00 -2 -1 0
175 29 3 9.9454000000000001e-02 -1.0671276276963154e+01 -6.8784551058895946e+00 -9.9701480082377181e+00 -1 1 0
177 29 2 4.0257300000000001e-01 -9.1606609878065868e+00 -8.0905855760222689e+00 -9.8862098554626829e+00 -1 1 0
8 1 4 -5.9782299999999999e-01 -7.4752195295649511e+00 -1.1090341983761855e+01 -9.6797602249874757e+00 -2 -1 0
254 42 4 -5.9782299999999999e-01 -1.0176179409407521e+01 -1.0455891785104445e+01 -6.2355670792385975e+00 0 4 0
12 1 1 3.1932000000000002e-02 -6.2592030159662810e+00 -9.8880787303573054e+00 -8.2582845958029338e+00 -2 -1 0
45 7 2 4.0257300000000001e-01 -9.8015414269299406e+00 -1.0716066753469894e+01 -1.0889046490117067e+01 -2 1 2
10 1 1 3.1932000000000002e-02 -7.8153650917328630e+00 -9.2469624124821799e+00 -8.9561217503235557e+00 -2 -1 0
44 7 4 -5.9782299999999999e-01 -9.9120527334128621e+00 -1.0030187835930565e+01 -1.0265274666486233e+01 -2 1 2
178 29 1 3.1932000000000002e-02 -1.1052546170133798e+01 -7.4083983025194717e+00 -9.0671775846689613e+00 -1 1 0
176 29 4 -5.9782299999999999e-01 -9.3315065346741299e+00 -7.2520787688781319e+00 -1.0300433369665239e+01 -1 1 0
11 1 1 3.1932000000000002e-02 -7.9770001937994142e+00 -1.0449916649563910e+01 -7.7990199940290399e+00 -2 -1 0
255 42 2 4.0257300000000001e-01 -1.0154023185584823e+01 -9.5169619527262199e+00 -6.2736457034935960e+00 0 4 0
850 141 1 3.1932000000000002e-02 -1.0581240727485353e+01 -5.7398281104412252e+00 -6.1997588583535661e+00 1 2 3
847 141 3 9.9454000000000001e-02 -1.0516279390911441e+01 -6.8085918632238238e+00 -6.0080887808939591e+00 1 2 3
179 29 1 3.1932000000000002e-02 -1.0741169568287594e+01 -5.8133787490374260e+00 -9.6251551324816180e+00 -1 1 0
43 7 3 9.9454000000000001e-02 -1.0734946141018586e+01 -1.0427839548640943e+01 -9.1526754593132793e+00 -2 1 2
848 141 4 -5.9782299999999999e-01 -9.2942233880740002e+00 -7.4167086835713825e+00 -6.3301645581249399e+00 1 2 3
48 7 1 3.1932000000000002e-02 -1.1152918885430605e+01 -9.5700734921001196e+00 -8.6133519000751182e+00 -2 1 2
47 7 1 3.1932000000000002e-02 -1.0208103420269529e+01 -1.1111684998301438e+01 -8.4742511683966146e+00 -2 1 2
849 141 2 4.0257300000000001e-01 -8.6422142832328799e+00 -7.1868818856587948e+00 -5.6441514597077598e+00 1 2 3
927 154 2 4.0257300000000001e-01 -8.2105738099036820e+00 -7.6273493150755991e+00 -2.7962346269415868e+00 1 0 -2
253 42 3 9.9454000000000001e-02 -1.0668665673821303e+01 -1.0702471062665865e+01 -4.9945515384066432e+00 0 4 0
258 42 1 3.1932000000000002e-02 -9.8361698573508853e+00 -1.0670060983695137e+01 -4.2945558055593409e+00 0 4 0
578 96 4 -5.9782299999999999e-01 -9.0401991817475889e+00 -7.8379923423967348e+00 -8.7718788240402468e-01 0 3 1
930 154 1 3.1932000000000002e-02 -6.1988493868959615e+00 -6.8550603043243523e+00 -2.4638128710481819e+00 1 0 -2
925 154 3 9.9454000000000001e-02 -6.6557425277297648e+00 -6.6187523514122875e+00 -3.4401461741071113e+00 1 0 -2
577 96 3 9.9454000000000001e-02 -9.8370254119010685e+00 -8.9604083380973396e+00 -5.4131368854169537e-01 0 3 1
582 96 1 3.1932000000000002e-02 -9.2635929196434450e+00 -9.8954224667175605e+00 -2.9398867404056439e-01 0 3 1
928 154 1 3.1932000000000002e-02 -6.0005311989441603e+00 -6.7595543073292896e+00 -4.2600998744585770e+00 1 0 -2
579 96 2 4.0257300000000001e-01 -8.6146006015994221e+00 -7.4689002633675283e+00 -6.4708071890896335e-02 0 3 1
581 96 1 3.1932000000000002e-02 -1.0497616671783630e+01 -9.1753429106883679e+00 -1.3785805848941202e+00 0 3 1
852 141 1 3.1932000000000002e-02 -1.0845172657331474e+01 -7.1188315488772549e+00 -5.0090886107016113e+00 1 2 3
926 154 4 -5.9782299999999999e-01 -7.7826353000118793e+00 -7.4542841023552651e+00 -3.6428179418164834e+00 1 0 -2
997 166 3 9.9454000000000001e-02 -6.4707630110316829e+00 -6.9207624518610427e+00 1.5204339440070260e+00 2 -1 1
295 49 3 9.9454000000000001e-02 -8.8828062582824572e+00 -9.7101315223731941e+00 3.3324045629154480e+00 0 3 2
299 49 1 3.1932000000000002e-02 -8.6690042827800955e+00 -8.6618315519874969e+00 3.5811667495245203e+00 0 3 2
298 49 1 3.1932000000000002e-02 -8.0343559070508004e+00 -1.0050963573439082e+01 2.7566354782661602e+00 0 3 2
300 49 1 3.1932000000000002e-02 -8.8534855483260255e+00 -1.0267451872294270e+01 4.2728428263442897e+00 0 3 2
998 166 4 -5.9782299999999999e-01 -7.8775725250054371e+00 -6.7853893691293958e+00 1.6400888119078818e+00 2 -1 1
296 49 4 -5.9782299999999999e-01 -1.0157318774276815e+01 -9.7917238781925047e+00 2.7354139398254080e+00 0 3 2
1000 166 1 3.1932000000000002e-02 -6.2373579359464095e+00 -7.8834056156050289e+00 1.0374084588293826e+00 2 -1 1
999 166 2 4.0257300000000001e-01 -8.0075633127949786e+00 -6.3787195725117787e+00 2.5210958730588224e+00 2 -1 1
1001 166 1 3.1932000000000002e-02 -5.9891640861205735e+00 -6.0538275522957354e+00 1.1576943279988559e+00 2 -1 1
960 159 1 3.1932000000000002e-02 -6.0933579366437147e+00 -9.2432116328461067e+00 3.6309366900682800e+00 1 3 -3
668 111 4 -5.9782299999999999e-01 -1.0632499838448963e+01 -6.1340382779914275e+00 1.2753633862128471e+00 1 0 -2
580 96 1 3.1932000000000002e-02 -1.0437605364794187e+01 -8.7034103333138688e+00 3.7104202572093925e-01 0 3 1
669 111 2 4.0257300000000001e-01 -1.0662079863151309e+01 -6.3001292267638931e+00 2.1860789745533360e+00 1 0 -2
1002 166 1 3.1932000000000002e-02 -6.0796946635106499e+00 -6.9794486123172241e+00 2.5107783965961552e+00 2 -1 1
297 49 2 4.0257300000000001e-01 -1.0330260507653090e+01 -1.0705886423548602e+01 2.6488859680677024e+00 0 3 2
568 94 1 3.1932000000000002e-02 -8.9788747037410879e+00 -9.0303915999127415e+00 6.8731666201990471e+00 0 -1 0
115 19 3 9.9454000000000001e-02 -7.1906207089136984e+00 -9.5129560136286990e+00 9.5341583235599359e+00 3 1 2
567 94 2 4.0257300000000001e-01 -9.3825739767835721e+00 -6.4188128676490006e+00 7.7323748024598657e+00 0 -1 0
119 19 1 3.1932000000000002e-02 -7.7329423798052979e+00 -9.0559084735979312e+00 1.0318358841324823e+01 3 1 2
118 19 1 3.1932000000000002e-02 -7.8991671828741055e+00 -1.0282817718865926e+01 9.1955549123670153e+00 3 1 2
239 39 1 3.1932000000000002e-02 -1.0434446603860966e+01 -8.3496932335857004e+00 9.5547557617552386e+00 2 2 -4
120 19 1 3.1932000000000002e-02 -7.0368910166463206e+00 -8.7947843316657135e+00 8.7645575031118099e+00 3 1 2
590 98 4 -5.9782299999999999e-01 -8.7729225952642444e+00 -6.2202670501417838e+00 9.6569604323370335e+00 0 -2 1
566 94 4 -5.9782299999999999e-01 -9.7076356161946418e+00 -7.1704100683655287e+00 7.1805311895367616e+00 0 -1 0
591 98 2 4.0257300000000001e-01 -8.8317770007206118e+00 -6.4478757080971736e+00 1.0617922921700298e+01 0 -2 1
116 19 4 -5.9782299999999999e-01 -5.9826245710661663e+00 -9.8595829032083966e+00 1.0086499618031382e+01 3 1 2
565 94 3 9.9454000000000001e-02 -8.6781976602931952e+00 -8.0008815178794794e+00 6.6940229950119381e+00 0 -1 0
569 94 1 3.1932000000000002e-02 -8.5045586688812698e+00 -7.8385770464541569e+00 5.6272372038608722e+00 0 -1 0
117 19 2 4.0257300000000001e-01 -6.1192904421236749e+00 -1.0290564220706239e+01 1.0924101313713841e+01 3 1 2
570 94 1 3.1932000000000002e-02 -7.7046946185201932e+00 -7.9722777723140332e+00 7.1509909955960573e+00 0 -1 0
594 98 1 3.1932000000000002e-02 -6.7406151746371759e+00 -6.4070018155589707e+00 9.1475826312519430e+00 0 -2 1
589 98 3 9.9454000000000001e-02 -7.4950810826400920e+00 -5.6800840180812981e+00 9.5517784363203440e+00 0 -2 1
238 39 1 3.1932000000000002e-02 -1.0708526628274756e+01 -1.0075813532635399e+01 9.4040073762786918e+00 2 2 -4
141 23 2 4.0257300000000001e-01 -9.2010543786908450e+00 -1.3561077149868179e+00 -1.0866620765574927e+01 0 1 0
749 124 1 3.1932000000000002e-02 -9.1992232985733580e+00 -1.6874014387585614e+00 -8.2145727978733944e+00 1 0 -4
748 124 1 3.1932000000000002e-02 -9.2626093310914133e+00 -1.7683995211544481e+00 -6.4269660024838720e+00 1 0 -4
34 5 1 3.1932000000000002e-02 -8.9153012148912154e+00 -4.3539299279873829e+00 -8.3642854630895336e+00 0 1 0
31 5 3 9.9454000000000001e-02 -7.8053929424502897e+00 -4.4931182366140012e+00 -8.3596543710472311e+00 0 1 0
32 5 4 -5.9782299999999999e-01 -7.1292656418083178e+00 -4.1446715358549735e+00 -9.5528855769164736e+00 0 1 0
36 5 1 3.1932000000000002e-02 -7.4081589071864329e+00 -3.8787596638603281e+00 -7.5219352808635351e+00 0 1 0
745 124 3 9.9454000000000001e-02 -8.7059987414047804e+00 -1.3259870721888642e+00 -7.2841492393545195e+00 1 0 -4
750 124 1 3.1932000000000002e-02 -7.7125055035658052e+00 -1.7528085751171698e+00 -7.4610449907080607e+00 1 0 -4
139 23 3 9.9454000000000001e-02 -1.1094486561937261e+01 -8.7452538902115684e-01 -1.0914768324564617e+01 0 1 0
143 23 1 3.1932000000000002e-02 -1.0947474549628240e+01 -1.2412690622415745e-01 -1.0142653389820913e+01 0 1 0
33 5 2 4.0257300000000001e-01 -6.2051974134963999e+00 -4.3650387701907007e+00 -9.4781358604568506e+00 0 1 0
352 58 1 3.1932000000000002e-02 -6.8604731714165705e+00 -1.3935212876539538e+00 -1.0061251155545190e+01 3 2 1
349 58 3 9.9454000000000001e-02 -5.9193180310615094e+00 -1.1620017163909591e+00 -1.0560395566441407e+01 3 2 1
35 5 1 3.1932000000000002e-02 -7.6808758841764391e+00 -5.5955352500801476e+00 -8.1531883756879715e+00 0 1 0
645 107 2 4.0257300000000001e-01 -8.2860637671859720e+00 -3.4203485931662909e+00 -1.9095925819797266e+00 -1 2 1
929 154 1 3.1932000000000002e-02 -6.9506172059059752e+00 -5.5844244478748521e+00 -3.4847707192177007e+00 1 0 -2
643 107 3 9.9454000000000001e-02 -9.4711361249084796e+00 -2.6331216239112614e+00 -3.1860525961502475e+00 -1 2 1
644 107 4 -5.9782299999999999e-01 -9.2565139788614506e+00 -3.4023927632593285e+00 -2.0222702935905641e+00 -1 2 1
134 22 4 -5.9782299999999999e-01 -6.3406832639956177e+00 -2.2691924314061360e+00 -1.9980909398614877e+00 3 1 0
646 107 1 3.1932000000000002e-02 -1.0521390006029517e+01 -2.5203801339248919e+00 -3.5135212011579871e+00 -1 2 1
137 22 1 3.1932000000000002e-02 -6.5302223237483581e+00 -2.5188413030309267e+00 -3.9154579712946322e+00 3 1 0
648 107 1 3.1932000000000002e-02 -9.0898529387349178e+00 -3.2135141654072594e+00 -4.0031431445381811e+00 -1 2 1
60 9 1 3.1932000000000002e-02 -5.9613085856670072e+00 -6.2228395081487164e-01 -5.4482397892426668e+00 1 -1 0
135 22 2 4.0257300000000001e-01 -6.8676603245504051e+00 -1.4354200677749489e+00 -2.0405546345103094e+00 3 1 0
501 83 2 4.0257300000000001e-01 -1.0446789766663692e+01 -2.1734484530580716e+00 -9.2046666521163445e-01 2 1 2
133 22 3 9.9454000000000001e-02 -5.7385587741118123e+00 -2.5173097382202609e+00 -3.2085447705237256e+00 3 1 0
377 62 1 3.1932000000000002e-02 -1.1161353740444858e+01 -4.8292540188046971e+00 -1.9672766417024263e+00 -2 0 0
647 107 1 3.1932000000000002e-02 -9.0405811978118571e+00 -1.6182178947783736e+00 -3.2789187956362627e+00 -1 2 1
500 83 4 -5.9782299999999999e-01 -1.1068294754791335e+01 -1.4769738680287841e+00 -7.0860438873185672e-01 2 1 2
933 155 2 4.0257300000000001e-01 -5.6201000706019784e+00 -3.0691069845474885e+00 -4.3538302632059889e-01 -3 -1 2
670 111 1 3.1932000000000002e-02 -9.3480261347066094e+00 -4.6039677033771165e+00 1.6793366065392039e+00 1 0 -2
779 129 1 3.1932000000000002e-02 -9.6949082021089179e+00 -2.1247982158493137e+00 1.2503480298320575e+00 0 4 1
667 111 3 9.9454000000000001e-02 -1.0245644307321957e+01 -4.7735513723170380e+00 1.1211879198685324e+00 1 0 -2
690 114 1 3.1932000000000002e-02 -6.6138274149198661e+00 -4.9958110850121802e+00 4.8020494594529328e+00 -1 1 0
780 129 1 3.1932000000000002e-02 -1.0535411581099934e+01 -8.7251943966674617e-01 2.1366432795142796e+00 0 4 1
685 114 3 9.9454000000000001e-02 -7.6729553062629705e+00 -4.7841639167426662e+00 4.9069413987762438e+00 -1 1 0
777 129 2 4.0257300000000001e-01 -9.0997610281568058e+00 -2.9300276559098446e+00 3.6877080269585623e+00 0 4 1
686 114 4 -5.9782299999999999e-01 -8.4627145728646145e+00 -5.3664499464239288e+00 3.8604092415083340e+00 -1 1 0
672 111 1 3.1932000000000002e-02 -1.0927079829130255e+01 -4.0536695161088030e+00 1.4155485296186665e+00 1 0 -2
687 114 2 4.0257300000000001e-01 -9.4198382542259562e+00 -5.2794004976410145e+00 4.1110608535178503e+00 -1 1 0
776 129 4 -5.9782299999999999e-01 -9.9370935362134549e+00 -2.4956100973746889e+00 3.3635300646587591e+00 0 4 1
775 129 3 9.9454000000000001e-02 -9.7526115799991899e+00 -1.5982258047319089e+00 2.2413019726255410e+00 0 4 1
936 155 1 3.1932000000000002e-02 -6.2777512026930076e+00 -2.4145927789765995e+00 1.7678463840071803e+00 -3 -1 2
778 129 1 3.1932000000000002e-02 -8.8091058603185832e+00 -1.1476980632705764e+00 2.4122508921054404e+00 0 4 1
688 114 1 3.1932000000000002e-02 -7.8222472945394417e+00 -3.6089116769482432e+00 5.0278874807327760e+00 -1 1 0
671 111 1 3.1932000000000002e-02 -9.8807592149825894e+00 -4.4745089179600601e+00 1.6368419185686811e-01 1 0 -2
22 3 1 3.1932000000000002e-02 -5.7068405120788448e+00 -1.6917804805826080e+00 4.7909587910455631e+00 0 1 1
353 58 1 3.1932000000000002e-02 -6.1541467353253720e+00 -8.3149006418463323e-01 1.0851583402705110e+01 3 2 0
708 117 1 3.1932000000000002e-02 -1.0544129946981194e+01 -1.2106589620517489e+00 6.8364648405304997e+00 -2 0 -1
593 98 1 3.1932000000000002e-02 -7.1668676008577039e+00 -5.4098714149504605e+00 1.0558890762681120e+01 0 -2 1
707 117 1 3.1932000000000002e-02 -9.2455827101098542e+00 -2.1682278912531832e+00 7.5437309562823778e+00 -2 0 -1
592 98 1 3.1932000000000002e-02 -7.4818156160899258e+00 -4.7191481392904926e+00 8.9433768234670268e+00 0 -2 1
704 117 4 -5.9782299999999999e-01 -8.6070046992504423e+00 -1.0623384270379130e+00 6.1104565880256985e+00 -2 0 -1
703 117 3 9.9454000000000001e-02 -9.6501892037336656e+00 -1.8544336997278315e+00 6.6303768003892394e+00 -2 0 -1
706 117 1 3.1932000000000002e-02 -9.9500977949843801e+00 -2.7010873762519285e+00 5.9924983124665374e+00 -2 0 -1
20 3 4 -5.9782299999999999e-01 -6.1818921302933729e+00 -2.0036694722928328e+00 6.6825889921836215e+00 0 1 1
705 117 2 4.0257300000000001e-01 -7.6978172300630465e+00 -1.4502279846102102e+00 6.2286563222728724e+00 -2 0 -1
21 3 2 4.0257300000000001e-01 -5.9575547558126507e+00 -1.6209870416364982e+00 7.5808077513756764e+00 0 1 1
140 23 4 -5.9782299999999999e-01 -9.8339676719275175e+00 -1.0232374882778608e+00 1.0835224217522594e+01 0 1 -1
689 114 1 3.1932000000000002e-02 -8.0167069787903671e+00 -5.2650433307221300e+00 5.7981726972590124e+00 -1 1 0
588 97 1 3.1932000000000002e-02 -7.5435629207452273e+00 3.7958698908446475e+00 -1.0330021364631083e+01 -1 2 3
747 124 2 4.0257300000000001e-01 -9.6354047921392318e+00 4.5833222795111261e-01 -7.1424987133111459e+00 1 0 -4
746 124 4 -5.9782299999999999e-01 -8.7239834474235671e+00 9.4582565233126914e-02 -7.1957588683709108e+00 1 0 -4
586 97 1 3.1932000000000002e-02 -7.7818211257026837e+00 2.1605027738660763e+00 -9.7213957148745731e+00 -1 2 3
621 103 2 4.0257300000000001e-01 -1.1057955811898481e+01 4.5621300957618924e+00 -1.0029407775091267e+01 2 -2 -1
280 46 1 3.1932000000000002e-02 -9.9840171264068172e+00 3.0409527019599718e+00 -7.1417782258336970e+00 3 2 0
277 46 3 9.9454000000000001e-02 -1.0982927648350586e+01 2.5190688730370656e+00 -7.0337935301628534e+00 3 2 0
278 46 4 -5.9782299999999999e-01 -1.1141906048412183e+01 1.4783195635807012e+00 -6.0922157983928136e+00 3 2 0
583 97 3 9.9454000000000001e-02 -7.0419284114607077e+00 2.9772787862633301e+00 -9.8542762148590679e+00 -1 2 3
587 97 1 3.1932000000000002e-02 -6.6094881843429274e+00 3.2278458286635576e+00 -8.9015571611417794e+00 -1 2 3
57 9 2 4.0257300000000001e-01 -6.4783226271239567e+00 5.5306500024617122e-01 -7.3669081649008934e+00 1 -1 0
584 97 4 -5.9782299999999999e-01 -6.0357485224391079e+00 2.5311908018485418e+00 -1.0769777283027462e+01 -1 2 3
56 9 4 -5.9782299999999999e-01 -5.6253169725307277e+00 8.1585044934176310e-01 -7.0342501847384167e+00 1 -1 0
55 9 3 9.9454000000000001e-02 -5.7450696648034114e+00 4.2342183845138237e-01 -5.6022641727700195e+00 1 -1 0
753 125 2 4.0257300000000001e-01 -9.8358100692271897e+00 4.6921450095877635e+00 -2.5025589431071555e+00 1 0 0
59 9 1 3.1932000000000002e-02 -6.4927637452775242e+00 1.0162391591542583e+00 -5.0710732387015058e+00 1 -1 0
896 149 4 -5.9782299999999999e-01 -7.8825412708504725e+00 1.6315103375822204e-01 -1.2467818184432620e+00 -2 1 0
751 125 3 9.9454000000000001e-02 -9.1005093250656550e+00 4.7131029519219556e+00 -4.2540534136264423e+00 1 0 0
888 147 1 3.1932000000000002e-02 -1.0182705312887945e+01 7.7730259692015125e-01 -3.8379469337174257e+00 1 -1 -1
900 149 1 3.1932000000000002e-02 -7.7285418516779227e+00 1.9716391397782331e+00 -2.2695688925789828e+00 -2 1 0
886 147 1 3.1932000000000002e-02 -1.0045720419820174e+01 1.3447382056978920e+00 -2.1694656204913585e+00 1 -1 -1
895 149 3 9.9454000000000001e-02 -7.4537801737443612e+00 8.8997160010862686e-01 -2.3296629469192052e+00 -2 1 0
756 125 1 3.1932000000000002e-02 -9.9085210618599984e+00 3.9682125083302520e+00 -4.4518808538069532e+00 1 0 0
227 37 1 3.1932000000000002e-02 -6.4189708147048190e+00 3.5149645143569952e+00 -3.1898492643788714e+00 0 -1 2
752 125 4 -5.9782299999999999e-01 -8.9115256921728232e+00 4.7645509285756891e+00 -2.8305896664538039e+00 1 0 0
436 72 1 3.1932000000000002e-02 -8.0593359901700268e+00 4.5721274119141597e+00 -7.1383967439853002e-01 0 -2 3
898 149 1 3.1932000000000002e-02 -6.3283451064394525e+00 1.0003913395178490e+00 -2.3363263987619511e+00 -2 1 0
899 149 1 3.1932000000000002e-02 -7.6674250216129689e+00 4.2337789831122485e-01 -3.3489635938320683e+00 -2 1 0
812 135 4 -5.9782299999999999e-01 -1.1129734478560296e+01 4.5686425345556145e+00 -1.1398581444882137e+00 0 -1 0
755 125 1 3.1932000000000002e-02 -8.3954508709227778e+00 4.1320664809146379e+00 -4.8277374825550403e+00 1 0 0
883 147 3 9.9454000000000001e-02 -1.0763948518590842e+01 1.2794715527957052e+00 -2.9907125462498616e+00 1 -1 -1
897 149 2 4.0257300000000001e-01 -8.2478263691747493e+00 7.4377180366453111e-01 -5.6919583356732417e-01 -2 1 0
228 37 1 3.1932000000000002e-02 -6.5334339711520188e+00 5.2127314987344313e+00 -3.8466051180300989e+00 0 -1 2
223 37 3 9.9454000000000001e-02 -5.8717959424000536e+00 4.4621906316369238e+00 -3.4217245836398718e+00 0 -1 2
742 123 1 3.1932000000000002e-02 -1.0805215312141973e+01 9.7949822561630562e-01 3.6378518207761736e+00 1 -2 -1
325 54 3 9.9454000000000001e-02 -5.7100610114305583e+00 1.8518405679982237e+00 1.9686393198316612e+00 2 1 1
326 54 4 -5.9782299999999999e-01 -6.7267997679301343e+00 2.5414494039651885e+00 2.5870731072702746e+00 2 1 1
741 123 2 4.0257300000000001e-01 -8.6858443647295971e+00 1.7819308514697774e-01 4.6004958246761305e+00 1 -2 -1
1 0 3 9.9454000000000001e-02 -8.4876545349618961e+00 4.9912643848044667e+00 5.0818596937121789e+00 0 0 -1
435 72 2 4.0257300000000001e-01 -8.0595724042822745e+00 3.7449999641715515e+00 1.7083246694103114e+00 0 -2 3
3 0 2 4.0257300000000001e-01 -9.5299190933507703e+00 5.2247244723889246e+00 3.4555362363192792e+00 0 0 -1
739 123 3 9.9454000000000001e-02 -1.0054208559685945e+01 1.6428432845505476e+00 4.1130219676356443e+00 1 -2 -1
744 123 1 3.1932000000000002e-02 -9.9404454691420021e+00 2.6372270555657931e+00 3.6002374012006939e+00 1 -2 -1
743 123 1 3.1932000000000002e-02 -1.0447311360254600e+01 1.8092036292050366e+00 5.1429005083278021e+00 1 -2 -1
330 54 1 3.1932000000000002e-02 -6.0785066263594736e+00 8.9318748645728441e-01 1.6042351563169781e+00 2 1 1
5 0 1 3.1932000000000002e-02 -7.7116223631350245e+00 4.5536534159327893e+00 4.4334933228149769e+00 0 0 -1
740 123 4 -5.9782299999999999e-01 -8.7664799979399071e+00 9.9770236197687545e-01 4.0970021482501267e+00 1 -2 -1
327 54 2 4.0257300000000001e-01 -7.2651667740044941e+00 2.1096550747332010e+00 3.2623082100986931e+00 2 1 1
434 72 4 -5.9782299999999999e-01 -8.6822773595426384e+00 4.3557400244349918e+00 1.2925542046709726e+00 0 -2 3
433 72 3 9.9454000000000001e-02 -7.9580704991819609e+00 5.1333868015984159e+00 2.3645663625778468e-01 0 -2 3
438 72 1 3.1932000000000002e-02 -6.9292956988598453e+00 5.2600567544610755e+00 5.5572337258839966e-01 0 -2 3
724 120 1 3.1932000000000002e-02 -7.7291491273526871e+00 4.4355230558311654e-01 8.4392063848952255e+00 0 0 -1
924 153 1 3.1932000000000002e-02 -5.8452870619282953e+00 4.6508965689720778e+00 7.8985146753257069e+00 -3 1 1
540 89 1 3.1932000000000002e-02 -1.0940708916099146e+01 4.7250575304994769e-01 8.8783135375312590e+00 2 -2 -2
725 120 1 3.1932000000000002e-02 -6.7898944222240738e+00 1.8136761943730715e+00 9.1785333280384442e+00 0 0 -1
721 120 3 9.9454000000000001e-02 -6.8086927615863138e+00 1.0038190225711983e+00 8.3691703784977776e+00 0 0 -1
597 99 2 4.0257300000000001e-01 -1.0533392270517210e+01 4.1987822211012293e+00 8.2335562701082274e+00 -2 -1 1
596 99 4 -5.9782299999999999e-01 -1.0270912087316075e+01 4.9680386782685844e+00 8.7855572521166572e+00 -2 -1 1
599 99 1 3.1932000000000002e-02 -9.0227997309023600e+00 3.6498498950406262e+00 9.7716174028425016e+00 -2 -1 1
600 99 1 3.1932000000000002e-02 -8.1866198636035072e+00 4.5576068596868247e+00 8.5772768791067797e+00 -2 -1 1
595 99 3 9.9454000000000001e-02 -9.0106604516103896e+00 4.6665030076579903e+00 9.3114879308483047e+00 -2 -1 1
726 120 1 3.1932000000000002e-02 -6.9622878313880383e+00 1.6046283466959448e+00 7.4701508101521412e+00 0 0 -1
539 89 1 3.1932000000000002e-02 -1.0289390343656015e+01 1.3865358881411272e+00 7.4178969243312700e+00 2 -2 -2
598 99 1 3.1932000000000002e-02 -8.6618206836418832e+00 5.3356706227980837e+00 1.0070354027522779e+01 -2 -1 1
722 120 4 -5.9782299999999999e-01 -5.7487150288108815e+00 8.6485808223219607e-02 8.4042542148372625e+00 0 0 -1
535 89 3 9.9454000000000001e-02 -1.1102639966421044e+01 1.2178134279128336e+00 8.1357047630825114e+00 2 -2 -2
4 0 1 3.1932000000000002e-02 -8.9113576504641561e+00 4.1299336568601746e+00 5.6139556828769344e+00 0 0 -1
197 32 1 3.1932000000000002e-02 -8.8657967034126983e+00 9.6913752564854398e+00 -6.4253043911222836e+00 1 -2 2
194 32 4 -5.9782299999999999e-01 -7.4988473436822147e+00 8.9877424872884575e+00 -7.6925369295958665e+00 1 -2 2
241 40 3 9.9454000000000001e-02 -1.0460608391142651e+01 7.5838131083724285e+00 -1.0139744750520528e+01 1 -2 1
244 40 1 3.1932000000000002e-02 -1.0178624775250821e+01 8.5722364554948278e+00 -9.8696532202873382e+00 1 -2 1
693 115 2 4.0257300000000001e-01 -6.9758042032753371e+00 6.7281010729442414e+00 -8.3442693443914653e+00 1 1 1
245 40 1 3.1932000000000002e-02 -1.0259819113549762e+01 7.3041349580298203e+00 -1.1172414551513937e+01 1 -2 1
198 32 1 3.1932000000000002e-02 -8.3190026341702854e+00 8.0613940703396167e+00 -6.0051662599136444e+00 1 -2 2
196 32 1 3.1932000000000002e-02 -7.1934867417651969e+00 9.5795695333823758e+00 -5.8126274620479412e+00 1 -2 2
193 32 3 9.9454000000000001e-02 -7.9706725625315737e+00 9.0612184507152520e+00 -6.4236937608445563e+00 1 -2 2
195 32 2 4.0257300000000001e-01 -7.1758762224494408e+00 9.8915129870900280e+00 -7.8579740969427823e+00 1 -2 2
692 115 4 -5.9782299999999999e-01 -6.3953529507134634e+00 6.0715464180497918e+00 -8.7651103666814638e+00 1 1 1
691 115 3 9.9454000000000001e-02 -6.2326566387799698e+00 6.7201221224386316e+00 -9.9840733332837761e+00 1 1 1
695 115 1 3.1932000000000002e-02 -7.1517198568884757e+00 7.1514395295308084e+00 -1.0336936360828874e+01 1 1 1
694 115 1 3.1932000000000002e-02 -5.8955630821521821e+00 6.0103919907168333e+00 -1.0787019314122535e+01 1 1 1
243 40 2 4.0257300000000001e-01 -1.0171561353686148e+01 6.9340932981324421e+00 -8.3592170741722729e+00 1 -2 1
9 1 2 4.0257300000000001e-01 -8.3810006240737742e+00 1.0930717463284779e+01 -9.6559922629940864e+00 -2 -2 0
100 16 1 3.1932000000000002e-02 -1.1141599360154007e+01 8.4973853907476915e+00 -6.5514548960679724e+00 -2 -2 0
242 40 4 -5.9782299999999999e-01 -9.7920460959791491e+00 6.7094533573009727e+00 -9.2326465487426752e+00 1 -2 1
310 51 1 3.1932000000000002e-02 -6.7863161109938037e+00 7.8440769370124244e+00 -1.1493562855595627e+00 -2 0 3
312 51 1 3.1932000000000002e-02 -7.1720326336839264e+00 7.0942824861440279e+00 -2.6976141987966713e+00 -2 0 3
307 51 3 9.9454000000000001e-02 -6.6355870488707538e+00 7.9277091660908532e+00 -2.2183869599992114e+00 -2 0 3
754 125 1 3.1932000000000002e-02 -9.4916101956998826e+00 5.6402592557922908e+00 -4.6362110571560553e+00 1 0 0
532 88 1 3.1932000000000002e-02 -9.6368290192217074e+00 8.6609621309981861e+00 -2.0137800817440166e+00 -1 -2 0
529 88 3 9.9454000000000001e-02 -1.0447260771089780e+01 9.3545122491122683e+00 -2.3346570061518719e+00 -1 -2 0
533 88 1 3.1932000000000002e-02 -1.0759829781175625e+01 8.9844538471506930e+00 -3.3113659184564863e+00 -1 -2 0
311 51 1 3.1932000000000002e-02 -7.2080290553214210e+00 8.8261169290575978e+00 -2.4712946809434406e+00 -2 0 3
257 42 1 3.1932000000000002e-02 -1.1106560556543128e+01 1.0689209650228094e+01 -4.9293601980053179e+00 0 3 0
534 88 1 3.1932000000000002e-02 -1.0140406520512744e+01 1.0349477189400936e+01 -2.5178128898490666e+00 -1 -2 0
168 27 1 3.1932000000000002e-02 -8.8914953902457796e+00 8.3338799690874552e+00 1.6976387575296190e+00 0 3 -2
769 128 3 9.9454000000000001e-02 -6.0858404754297757e+00 7.5796358200857306e+00 4.1490454053410080e+00 3 1 -2
166 27 1 3.1932000000000002e-02 -1.0111346902413448e+01 7.5295526666485024e+00 2.6616822692784829e+00 0 3 -2
773 128 1 3.1932000000000002e-02 -6.3524558012239911e+00 6.7702970878872328e+00 4.8366114419799544e+00 3 1 -2
167 27 1 3.1932000000000002e-02 -1.0465130629330174e+01 8.5095076445792941e+00 1.1198988660908302e+00 0 3 -2
164 27 4 -5.9782299999999999e-01 -1.0195104927306074e+01 9.5497864109356208e+00 2.8758560070827439e+00 0 3 -2
163 27 3 9.9454000000000001e-02 -9.9081496025164331e+00 8.4196550141688924e+00 2.0839794484179652e+00 0 3 -2
906 150 1 3.1932000000000002e-02 -8.7625169676465102e+00 9.8204457976230088e+00 5.3649022064731078e+00 0 -3 -2
770 128 4 -5.9782299999999999e-01 -5.6240776500864573e+00 8.6829352851216086e+00 4.8563762190382640e+00 3 1 -2
2 0 4 -5.9782299999999999e-01 -9.4213674022938090e+00 5.7025214947566560e+00 4.2661791922935510e+00 0 0 -1
946 157 1 3.1932000000000002e-02 -6.2312128102079587e+00 9.9017222516310923e+00 8.1433657940603155e-01 -1 1 0
774 128 1 3.1932000000000002e-02 -6.9543040230112902e+00 7.8942315352016870e+00 3.5650725983856741e+00 3 1 -2
948 157 1 3.1932000000000002e-02 -5.7698558508522089e+00 1.0321242351865603e+01 2.5606600958168340e+00 -1 1 0
165 27 2 4.0257300000000001e-01 -1.0880814580515429e+01 9.3415755017495208e+00 3.4469587054720652e+00 0 3 -2
943 157 3 9.9454000000000001e-02 -5.6045284294033664e+00 1.0539803152184458e+01 1.5078362699419383e+00 -1 1 0
437 72 1 3.1932000000000002e-02 -8.4064701911343924e+00 6.1425710615354205e+00 1.0606344446234317e-01 0 -2 3
513 85 2 4.0257300000000001e-01 -9.5845495971504810e+00 1.0271535597044107e+01 9.1320893766516278e+00 -3 0 -1
511 85 3 9.9454000000000001e-02 -8.3458624006233748e+00 9.4386709373958801e+00 1.0142353347290378e+01 -3 0 -1
555 92 2 4.0257300000000001e-01 -1.0154613129090338e+01 6.8660852117577740e+00 8.0126275226035695e+00 1 -1 -1
901 150 3 9.9454000000000001e-02 -8.5696269749494292e+00 9.6196746695598918e+00 6.4052474267291473e+00 0 -3 -2
514 85 1 3.1932000000000002e-02 -7.5410036575825927e+00 9.7141879792193961e+00 9.5163546964704970e+00 -3 0 -1
554 92 4 -5.9782299999999999e-01 -1.0660856923147330e+01 7.7098443299404344e+00 7.7838446519843565e+00 1 -1 -1
903 150 2 4.0257300000000001e-01 -1.0332491675991818e+01 9.7924185711755065e+00 6.9255439167488078e+00 0 -3 -2
173 28 1 3.1932000000000002e-02 -5.7164932843746437e+00 9.3611408852327394e+00 8.2169086015414479e+00 -2 3 1
905 150 1 3.1932000000000002e-02 -8.5136821756316419e+00 8.5812900175516056e+00 6.5686321602180868e+00 0 -3 -2
516 85 1 3.1932000000000002e-02 -8.6652620926567323e+00 8.3963661223413446e+00 9.8974719236241810e+00 -3 0 -1
902 150 4 -5.9782299999999999e-01 -9.5457720381748707e+00 1.0247646791316953e+01 7.1859047548652022e+00 0 -3 -2
512 85 4 -5.9782299999999999e-01 -9.4576401097610798e+00 1.0225020070550720e+01 1.0090407578691337e+01 -3 0 -1
904 150 1 3.1932000000000002e-02 -7.5336425934739921e+00 1.0020271093401504e+01 6.6208751588551564e+00 0 -3 -2
6 0 1 3.1932000000000002e-02 -7.9290495941764343e+00 5.6395935184295247e+00 5.7196006392836800e+00 0 0 -1
515 85 1 3.1932000000000002e-02 -7.8896919072542868e+00 9.3948461832720689e+00 1.1156177177735984e+01 -3 0 -1
913 152 3 9.9454000000000001e-02 -7.2848041173399203e-01 -7.3352009222853463e+00 -6.6772379178471484e+00 -1 1 1
641 106 1 3.1932000000000002e-02 -3.9605543318376251e+00 -1.0053453435677529e+01 -5.6834424672438413e+00 2 -2 2
964 160 1 3.1932000000000002e-02 -3.5739803999301865e+00 -7.3029734641258983e+00 -1.0168074361325681e+01 0 -2 1
490 81 1 3.1932000000000002e-02 -1.3632538343767404e+00 -9.6791543081466447e+00 -1.0095536362198683e+01 0 2 -1
961 160 3 9.9454000000000001e-02 -4.2563273662340757e+00 -7.5305695204016017e+00 -1.0999942784263137e+01 0 -2 1
640 106 1 3.1932000000000002e-02 -4.0063276539406090e+00 -9.6918896038485016e+00 -7.3190219135451384e+00 2 -2 2
916 152 1 3.1932000000000002e-02 -1.6418413579708719e+00 -6.8815096397697406e+00 -7.0543612635097510e+00 -1 1 1
965 160 1 3.1932000000000002e-02 -5.2075237976318620e+00 -7.0843192047574757e+00 -1.0738136238096144e+01 0 -2 1
491 81 1 3.1932000000000002e-02 -1.7329855574977415e+00 -1.0394197764032734e+01 -8.4229401737477776e+00 0 2 -1
917 152 1 3.1932000000000002e-02 -8.5071091055823977e-01 -8.3886570534385765e+00 -6.7075599137156328e+00 -1 1 1
637 106 3 9.9454000000000001e-02 -3.8838413537264120e+00 -1.0535236187740242e+01 -6.6162219344279247e+00 2 -2 2