LAMMPS data file via vdw_self_gen.py, on 2021-08-05 13:23:31.954159

3000 atoms
4 atom types
2500 bonds
3 bond types
3500 angles
3 angle types
1500 dihedrals
1 dihedral types

-30.6155693231294563  30.6155693231294528 xlo xhi
-30.6155693231294563  30.6155693231294528 ylo yhi
-30.6155693231294563  30.6155693231294528 zlo zhi

Masses

1  1.007940
2  12.011000
3  12.011000
4  14.006740

Atoms

1         0    3    0.1837560000000000  -23.9237777763851511 -17.4207048317326176  24.0236590878139644 0 0 0
2         0    2    0.0917600000000000  -23.5853416151624522 -16.1718890436887150  23.3825225248968849 0 0 0
3         0    4   -0.3612230000000000  -23.3155747135496121 -15.1764600546330257  22.8714736361966153 0 0 0
4         0    1    0.0285690000000000  -23.7208526796061747 -17.3790140727368474  25.0980631830740286 0 0 0
5         0    1    0.0285690000000000  -23.3428310611216752 -18.2480190139586149  23.6049477371052632 0 0 0
6         0    1    0.0285690000000000  -24.9842789954457274 -17.6558107270150195  23.8919906721840292 0 0 0
7         1    3    0.1837560000000000   17.1373733207268337  3.6267393514846709  -10.6049565954093588 0 0 0
8         1    2    0.0917600000000000   16.7472579023819819  2.9448032637622070  -9.3933835961099366  0 0 0
9         1    4   -0.3612230000000000   16.4362975508105755  2.4012331416504105  -8.4276407720630999  0 0 0
10        1    1    0.0285690000000000   18.1934496742951630  3.4523133258468071  -10.8319789978589789 0 0 0
11        1    1    0.0285690000000000   16.9883524009630911  4.7069065009518569  -10.5138592190217786 0 0 0
12        1    1    0.0285690000000000   16.5491668945872092  3.2783839650570106  -11.4593194657957600 0 0 0
13        2    3    0.1837560000000000   2.9475969873813850   23.6680152009552316 -17.0050916506920125 0 0 0
14        2    2    0.0917600000000000   4.3239343003866173   24.1047250017661305 -17.0158689743505427 0 0 0
15        2    4   -0.3612230000000000   5.4210104850418510   24.4528256581590320 -17.0244595611263101 0 0 0
16        2    1    0.0285690000000000   2.3435719945209703   24.2873374536201290 -16.3351255100893304 0 0 0
17        2    1    0.0285690000000000   2.8666086825881658   22.6307599979853897 -16.6662560331741538 0 0 0
18        2    1    0.0285690000000000   2.5076570988339766   23.7289935287848763 -18.0050960143324907 0 0 0
19        3    3    0.1837560000000000   16.9530893642838585  3.5175079259985571  -17.4674753592782750 0 0 0
20        3    2    0.0917600000000000   17.1214806531219850  3.1666153949255365  -16.0769161892029402 0 0 0
21        3    4   -0.3612230000000000   17.2557050695801344  2.8869195416081164  -14.9685037859145638 0 0 0
22        3    1    0.0285690000000000   17.4452754123481100  2.7894357928739026  -18.1193378733548336 0 0 0
23        3    1    0.0285690000000000   17.3825499086497466  4.5012538285859378  -17.6797833366966728 0 0 0
24        3    1    0.0285690000000000   15.8937973357810307  3.5486470647609130  -17.7398811993175585 0 0 0
25        4    3    0.1837560000000000   3.5725655838408414  -3.2312601242677075  -3.8125434690125166  0 0 0
26        4    2    0.0917600000000000   3.0548155933268735  -3.7478957110270703  -2.5674898083951936  0 0 0
27        4    4   -0.3612230000000000   2.6421179364144884  -4.1597050785588578  -1.5750596048583900  0 0 0
28        4    1    0.0285690000000000   4.0512267205016972  -2.2582844256447032  -3.6660420002839897  0 0 0
29        4    1    0.0285690000000000   2.7729027140133828  -3.1037042164080719  -4.5484346445876920  0 0 0
30        4    1    0.0285690000000000   4.3167510006556800  -3.9095299928465481  -4.2408100216151832  0 0 0
31        5    3    0.1837560000000000   17.1738123382455896 -16.6744559844524467  3.6984594860606248  0 0 0
32        5    2    0.0917600000000000   16.6732610516477777 -17.6872978200354218  2.7991620794268748  0 0 0
33        5    4   -0.3612230000000000   16.2742724530418528 -18.4946323637849765  2.0823336112762427  0 0 0
34        5    1    0.0285690000000000   18.2672885539308432 -16.6387299212813353  3.6813046517289014  0 0 0
35        5    1    0.0285690000000000   16.8613215568465371 -16.8733030013169270  4.7280596087901738  0 0 0
36        5    1    0.0285690000000000   16.8019417900522683 -15.6834786528937364  3.4210601114701489  0 0 0
37        6    3    0.1837560000000000   16.9180560115705525  24.2318458928622853 -3.6081922194157374  0 0 0
38        6    2    0.0917600000000000   17.1926236407313944  22.9597521375722522 -2.9824717588511973  0 0 0
39        6    4   -0.3612230000000000   17.4114810415904060  21.9457683195138173 -2.4837110197138044  0 0 0
40        6    1    0.0285690000000000   17.5544989335287909  24.3844830936317045 -4.4850634563887226  0 0 0
41        6    1    0.0285690000000000   17.0993284849836940  25.0586359719398715 -2.9147764041781854  0 0 0
42        6    1    0.0285690000000000   15.8759096313600292  24.2921714257508619 -3.9361646902053193  0 0 0
43        7    3    0.1837560000000000   16.6923609813077540 -16.6624707363521445  10.2896540609776981 0 0 0
44        7    2    0.0917600000000000   17.6509321339677143 -17.7116349875969412  10.0336624220554338 0 0 0
45        7    4   -0.3612230000000000   18.4150076065599180 -18.5479220685008706  9.8296119121413703  0 0 0
46        7    1    0.0285690000000000   15.8281084735488520 -16.7482250597623974  9.6240906357138876  0 0 0
47        7    1    0.0285690000000000   17.1383689414214437 -15.6755058824291176  10.1339482038755229 0 0 0
48        7    1    0.0285690000000000   16.3271196069591724 -16.7061390091233619  11.3201714114949752 0 0 0
49        8    3    0.1837560000000000  -10.6648280793385286  3.2898736426899648  -17.0655121263171914 0 0 0
50        8    2    0.0917600000000000  -9.2718050382165167   3.6288809144263587  -16.8931843090240079 0 0 0
51        8    4   -0.3612230000000000  -8.1614286874119113   3.8991030472804442  -16.7558220922770325 0 0 0
52        8    1    0.0285690000000000  -11.0645555475713415  3.7248214292176813  -17.9865437481059480 0 0 0
53        8    1    0.0285690000000000  -11.2664746321938232  3.6620173444703035  -16.2307681368434338 0 0 0
54        8    1    0.0285690000000000  -10.8020466615268020  2.2056831706682134  -17.1200673311972302 0 0 0
55        9    3    0.1837560000000000   23.9237705627324075  3.5671480513838953   16.5760052111172733 0 0 0
56        9    2    0.0917600000000000   23.5853666336781771  3.0658168837479258   17.8872206172033295 0 0 0
57        9    4   -0.3612230000000000   23.3156254242732466  2.6662066432626901   18.9323882380891391 0 0 0
58        9    1    0.0285690000000000   25.0079612707084493  3.5853369131869610   16.4295110192708904 0 0 0
59        9    1    0.0285690000000000   23.5497098156014424  4.5858009720787170   16.4356776588841917 0 0 0
60        9    1    0.0285690000000000   23.4902231342770733  2.9400700850927808   15.7910949992000287 0 0 0
61        10   3    0.1837560000000000   3.7155998463909681   3.2546481294916529  -16.6817472513553540 0 0 0
62        10   2    0.0917600000000000   2.7643604234940100   3.7004066359534042  -17.6724938961862392 0 0 0
63        10   4   -0.3612230000000000   2.0061290605101916   4.0557200005812053  -18.4622164001106093 0 0 0
64        10   1    0.0285690000000000   4.7116123683930073   3.1347200801462658  -17.1185964166233582 0 0 0
65        10   1    0.0285690000000000   3.4182918567219622   2.2913981507099681  -16.2562775403816424 0 0 0
66        10   1    0.0285690000000000   3.7943859932428348   3.9734865518704603  -15.8605662391076319 0 0 0
67        11   3    0.1837560000000000  -17.0508619811804714  9.8564067848422088  -9.8833496175939128  0 0 0
68        11   2    0.0917600000000000  -16.9229237916930479  10.9134645306957818 -10.8587453022274119 0 0 0
69        11   4   -0.3612230000000000  -16.8209444734922826  11.7560435030329824 -11.6362315812925132 0 0 0
70        11   1    0.0285690000000000  -16.4915910615285277  10.0915351773793240 -8.9727500614472042  0 0 0
71        11   1    0.0285690000000000  -16.6679560907949949  8.9098091467491987  -10.2765455330925803 0 0 0
72        11   1    0.0285690000000000  -18.0976203450755087  9.7038795035593886  -9.6035165506052813  0 0 0
73        12   3    0.1837560000000000   23.7768216152076768 -3.1518465859336300  -10.6093254291054446 0 0 0
74        12   2    0.0917600000000000   23.8837705812240451 -3.9091609705597454  -9.3845099974969077  0 0 0
75        12   4   -0.3612230000000000   23.9690194242811785 -4.5128150078509623  -8.4082116526660684  0 0 0
76        12   1    0.0285690000000000   24.2841339639621481 -2.1864399626377558  -10.5205273058275193 0 0 0
77        12   1    0.0285690000000000   22.7299630227391134 -2.9580958645618916  -10.8619413087382632 0 0 0
78        12   1    0.0285690000000000   24.2289482338566309 -3.6920211572089663  -11.4466229524247129 0 0 0
79        13   3    0.1837560000000000   3.7262653649366810  -10.3480142632445524  16.6903880069252111 0 0 0
80        13   2    0.0917600000000000   2.7427024851107120  -9.9151560680112443   17.6549468927625774 0 0 0
81        13   4   -0.3612230000000000   1.9587061483319732  -9.5701255200226854   18.4237951775185707 0 0 0
82        13   1    0.0285690000000000   4.6731646219264507  -10.5972069065662051  17.1787994091534877 0 0 0
83        13   1    0.0285690000000000   3.9257184638834346  -9.5644440716157622   15.9531612755790455 0 0 0
84        13   1    0.0285690000000000   3.3838224645637252  -11.2361918167984669  16.1508069818259692 0 0 0
85        14   3    0.1837560000000000   16.7917920690265348 -3.1537706454791929  -16.6644090974697221 0 0 0
86        14   2    0.0917600000000000   17.4490242911477154 -3.9052536566370253  -17.7076996083758793 0 0 0
87        14   4   -0.3612230000000000   17.9729030030477723 -4.5042595158287062  -18.5393047406183236 0 0 0
88        14   1    0.0285690000000000   16.8507510305089809 -2.0783409285135814  -16.8573744801894669 0 0 0
89        14   1    0.0285690000000000   17.2535839589560922 -3.3452067030726482  -15.6910810317342495 0 0 0
90        14   1    0.0285690000000000   15.7338433910777642 -3.4235480992217964  -16.5920287853771953 0 0 0
91        15   3    0.1837560000000000  -17.3959726188734152 -3.6302228170339097  -16.8512188797738318 0 0 0
92        15   2    0.0917600000000000  -16.2221186736483318 -2.9377248078456395  -17.3283450921640174 0 0 0
93        15   4   -0.3612230000000000  -15.2864416449132019 -2.3857357956879044  -17.7086616030526791 0 0 0
94        15   1    0.0285690000000000  -18.3101000654893618 -3.1170601749064675  -17.1647407901217335 0 0 0
95        15   1    0.0285690000000000  -17.4020018656729896 -3.6875154709512810  -15.7585394952835216 0 0 0
96        15   1    0.0285690000000000  -17.4352628751675525 -4.6521204823277600  -17.2403918833690533 0 0 0
97        16   3    0.1837560000000000  -17.0674353100911453  17.4702464421547674  23.9145065630923277 0 0 0
98        16   2    0.0917600000000000  -16.8892808793678668  16.0712864257576697  23.6041714678550854 0 0 0
99        16   4   -0.3612230000000000  -16.7472742787398765  14.9561777218288476  23.3568038792338868 0 0 0
100       16   1    0.0285690000000000  -18.1160733816069772  17.6945396621710778  24.1320189090000525 0 0 0
101       16   1    0.0285690000000000  -16.7566679271961618  18.1017566259438354  23.0767204574548046 0 0 0
102       16   1    0.0285690000000000  -16.4751659667628161  17.7578908659086743  24.7884355646346286 0 0 0
103       17   3    0.1837560000000000   17.4003430460851369  16.9551418906573694  23.5461663801029459 0 0 0
104       17   2    0.0917600000000000   16.2132426882099274  17.1173130579397998  24.3521621945057376 0 0 0
105       17   4   -0.3612230000000000   15.2670069659675853  17.2465794258440468  24.9946201185609667 0 0 0
106       17   1    0.0285690000000000   18.2359573656165459  17.5302728643425070  23.9563296967245769 0 0 0
107       17   1    0.0285690000000000   17.2295548359279458  17.2972398099506819  22.5209505793144125 0 0 0
108       17   1    0.0285690000000000   17.7057928419577273  15.9053506950304637  23.5024278720621389 0 0 0
109       18   3    0.1837560000000000   3.3838044648074357  -23.7136823449834822  10.6710259276061148 0 0 0
110       18   2    0.0917600000000000   3.4381240499273860  -24.0119862910660835  9.2592185262853963  0 0 0
111       18   4   -0.3612230000000000   3.4814221009446507  -24.2497638706924938  8.1338691931869533  0 0 0
112       18   1    0.0285690000000000   2.4370772932191276  -24.0463287177283753  11.1072769189815830 0 0 0
113       18   1    0.0285690000000000   3.4752694164210429  -22.6380476019928061  10.8496627088066404 0 0 0
114       18   1    0.0285690000000000   4.1946822234333156  -24.2128480148075411  11.2100853713922124 0 0 0
115       19   3    0.1837560000000000   10.4139979837793923 -10.4925028125797635 -10.5227789636960996 0 0 0
116       19   2    0.0917600000000000   9.7811670917671965  -9.6217389110681406  -9.5602659560233079  0 0 0
117       19   4   -0.3612230000000000   9.2767386395407740  -8.9276544524262604  -8.7930484373519331  0 0 0
118       19   1    0.0285690000000000   11.2126593983212501 -9.9714176286545086  -11.0593151229767148 0 0 0
119       19   1    0.0285690000000000   9.6922898904038668  -10.8515116443099426 -11.2627229642772093 0 0 0
120       19   1    0.0285690000000000   10.8542856424464134 -11.3663131972202969 -10.0330072019336605 0 0 0
121       20   3    0.1837560000000000  -10.3459965056954442  16.9391564022342145  2.9518891752399812  0 0 0
122       20   2    0.0917600000000000  -9.9192518182682807   17.1497624553508672  4.3152196788755957  0 0 0
123       20   4   -0.3612230000000000  -9.5790943371910480   17.3176361902523936  5.4019281574002642  0 0 0
124       20   1    0.0285690000000000  -10.3441953833726146  15.8745688708774324  2.6990828892460126  0 0 0
125       20   1    0.0285690000000000  -9.6827761967742845   17.4515613525658146  2.2484355335476698  0 0 0
126       20   1    0.0285690000000000  -11.3598244049572354  17.3192124724841356  2.7938241144434293  0 0 0
127       21   3    0.1837560000000000  -24.1019107202558054 -23.5568404303793244  10.4842336713075728 0 0 0
128       21   2    0.0917600000000000  -23.2236111577366913 -24.3304776818680466  9.6385320208493752  0 0 0
129       21   4   -0.3612230000000000  -22.5235200362303800 -24.9471426492060253  8.9644246408674615  0 0 0
130       21   1    0.0285690000000000  -24.4893453506445731 -22.6820218772711684  9.9533402916979874  0 0 0
131       21   1    0.0285690000000000  -23.5770995149103761 -23.2019293122377945  11.3763538057420490 0 0 0
132       21   1    0.0285690000000000  -24.9571700614929668 -24.1542448903084157  10.8142542157944526 0 0 0
133       22   3    0.1837560000000000   9.9550188146617078  -10.5550100843586172  10.4102575315879236 0 0 0
134       22   2    0.0917600000000000   10.7132162893889369 -9.4948157749974698   9.7887588463797375  0 0 0
135       22   4   -0.3612230000000000   11.3175742363319962 -8.6497366531015007   9.2933632773621060  0 0 0
136       22   1    0.0285690000000000   10.6022511223064964 -11.3942808243327338  10.6822425296376640 0 0 0
137       22   1    0.0285690000000000   9.1816506452640692  -10.9335741963577942  9.7350850166194896  0 0 0
138       22   1    0.0285690000000000   9.4614275383056796  -10.2037211131108112  11.3214314446719690 0 0 0
139       23   3    0.1837560000000000  -10.3241835914373254  23.7075483471143222 -24.2614645511276024 0 0 0
140       23   2    0.0917600000000000  -9.9635427460939763   24.0244418125059660 -22.8996082032472081 0 0 0
141       23   4   -0.3612230000000000  -9.6760765276738692   24.2770370670768934 -21.8140747718249024 0 0 0
142       23   1    0.0285690000000000  -9.4386686248319958   23.4649016104479173 -24.8566508071039323 0 0 0
143       23   1    0.0285690000000000  -10.8292660113840604  24.5513524583958045 -24.7412076158457879 0 0 0
144       23   1    0.0285690000000000  -10.9994011448376838  22.8473755457298857 -24.2996508921213668 0 0 0
145       24   3    0.1837560000000000  -10.0908651230571191  17.0065688755818876  16.5461152057871708 0 0 0
146       24   2    0.0917600000000000  -10.4373504471982521  17.0128681954483874  17.9479155620162771 0 0 0
147       24   4   -0.3612230000000000  -10.7135333231952696  17.0178893728442056  19.0652882961044021 0 0 0
148       24   1    0.0285690000000000  -10.5167975758646435  16.1352640966415741  16.0394887141376010 0 0 0
149       24   1    0.0285690000000000  -9.0056887846056011   16.9762861505827729  16.4092126552938993 0 0 0
150       24   1    0.0285690000000000  -10.4669033923380237  17.9030210526660341  16.0438773104255006 0 0 0
151       25   3    0.1837560000000000  -16.7280273676776545 -3.6681349044042446   23.5340949424055239 0 0 0
152       25   2    0.0917600000000000  -17.5785132501462016 -2.8607433563682947   24.3766675813404845 0 0 0
153       25   4   -0.3612230000000000  -18.2564341335119202 -2.2171728953538423   25.0482808314378040 0 0 0
154       25   1    0.0285690000000000  -17.1660123184364615 -3.7951442940423350   22.5394599982915622 0 0 0
155       25   1    0.0285690000000000  -16.5789030307963010 -4.6632523509969870   23.9639440286397658 0 0 0
156       25   1    0.0285690000000000  -15.7440076431962961 -3.2059317475872673   23.4102094591556416 0 0 0
157       26   3    0.1837560000000000  -3.1342314198787595  -3.6943475998500563   10.4694472047755998 0 0 0
158       26   2    0.0917600000000000  -3.9449356436259095  -2.8075159260410056   9.6685575470027061  0 0 0
159       26   4   -0.3612230000000000  -4.5911466329439126  -2.1006238728062621   9.0301697319104903  0 0 0
160       26   1    0.0285690000000000  -2.4205576536594799  -4.2437080501804063   9.8480506122332514  0 0 0
161       26   1    0.0285690000000000  -3.7541285113413725  -4.4270200667280299   10.9949809235559606 0 0 0
162       26   1    0.0285690000000000  -2.5653796873035244  -3.1371640331472124   11.2199326267808885 0 0 0
163       27   3    0.1837560000000000  -9.9820383156948953   24.2192149184025780 -17.1157996433916786 0 0 0
164       27   2    0.0917600000000000  -10.6583482011692201  22.9854060733860344 -16.7910587116188914 0 0 0
165       27   4   -0.3612230000000000  -11.1974336868200339  22.0019390936751620 -16.5322082546384195 0 0 0
166       27   1    0.0285690000000000  -10.5247702549751398  25.0819215679892089 -16.7177542275857220 0 0 0
167       27   1    0.0285690000000000  -9.8968361300337158   24.3478367603558112 -18.1990650986846525 0 0 0
168       27   1    0.0285690000000000  -8.9717120575659024   24.2363384274620053 -16.6960118078454798 0 0 0
169       28   3    0.1837560000000000  -23.6879407338708248  10.6161055345248201 -3.6084734991971334  0 0 0
170       28   2    0.0917600000000000  -24.0642578600283343  9.3707481854179964  -2.9818903095198284  0 0 0
171       28   4   -0.3612230000000000  -24.3642196158306490  8.3780759122909494  -2.4824418904405690  0 0 0
172       28   1    0.0285690000000000  -23.2870006576116815  11.3208148081724662 -2.8736995413813018  0 0 0
173       28   1    0.0285690000000000  -24.5482373751086271  11.0891991753942261 -4.0915253942807439  0 0 0
174       28   1    0.0285690000000000  -22.9210005988206689  10.4561950304584457 -4.3723489139333926  0 0 0
175       29   3    0.1837560000000000   10.1038249536025635  23.4179147061024118  16.7609639323300890 0 0 0
176       29   2    0.0917600000000000   10.4110348743757424  24.6126012624633965  17.5116183778833516 0 0 0
177       29   4   -0.3612230000000000   10.6559113916258354  25.5648839309100993  18.1099637888087592 0 0 0
178       29   1    0.0285690000000000   10.7730752782901718  23.3099699542960757  15.9020618379892866 0 0 0
179       29   1    0.0285690000000000   9.0768369680392453   23.4431890366436697  16.3842360158913536 0 0 0
180       29   1    0.0285690000000000   10.2104551803253294  22.5240979508551256  17.3830537908620144 0 0 0
181       30   3    0.1837560000000000   16.5440372891544030 -23.9049480230195890 -16.9583612009833828 0 0 0
182       30   2    0.0917600000000000   17.9521341278835003 -23.6235773678488528 -17.1107746097436468 0 0 0
183       30   4   -0.3612230000000000   19.0745257777073114 -23.3992972862643356 -17.2322630845477676 0 0 0
184       30   1    0.0285690000000000   15.9559118004482148 -23.3985802021764897 -17.7296982957407501 0 0 0
185       30   1    0.0285690000000000   16.1787677579776172 -23.5679770884405855 -15.9835300380926881 0 0 0
186       30   1    0.0285690000000000   16.3465209905937989 -24.9782768735209366 -17.0372705146566013 0 0 0
187       31   3    0.1837560000000000  -3.6753866797677852  -23.5106044280689517 -9.9577645706947351  0 0 0
188       31   2    0.0917600000000000  -2.8460222704785374  -24.4243769982773635 -10.7076381377305516 0 0 0
189       31   4   -0.3612230000000000  -2.1849372782790688  -25.1527435952549148 -11.3053611116875281 0 0 0
190       31   1    0.0285690000000000  -4.7301165019827076  -23.7950782397336909 -10.0200584452525909 0 0 0
191       31   1    0.0285690000000000  -3.5807566774488064  -22.4895978094624027 -10.3396777607297441 0 0 0
192       31   1    0.0285690000000000  -3.3931601407960685  -23.5002557704734549 -8.9006386201637575  0 0 0
193       32   3    0.1837560000000000   3.7194605298898731   3.3703535630279231   3.0480700176567614  0 0 0
194       32   2    0.0917600000000000   2.7565129954417418   3.4654395600049828   4.1199033531521421  0 0 0
195       32   4   -0.3612230000000000   1.9889491161999542   3.5412324501577466   4.9742599234350600  0 0 0
196       32   1    0.0285690000000000   3.4282798853252401   2.6029162149228364   2.3245269137822415  0 0 0
197       32   1    0.0285690000000000   4.7106530930443444   3.1101803827345269   3.4316247807653371  0 0 0
198       32   1    0.0285690000000000   3.8065239288518220   4.3202573779049445   2.5119945599614106  0 0 0
199       33   3    0.1837560000000000   10.3046206085302945 -23.8091729376848136  17.4746082373428955 0 0 0
200       33   2    0.0917600000000000   10.0032811664126431 -23.8180775574229742  16.0624286282380382 0 0 0
201       33   4   -0.3612230000000000   9.7630839979418376  -23.8251754150163215  14.9367826089334823 0 0 0
202       33   1    0.0285690000000000   11.2572088995755735 -24.3081387864973415  17.6767703101514364 0 0 0
203       33   1    0.0285690000000000   9.5277972912847595  -24.3262983603777165  18.0459171452800220 0 0 0
204       33   1    0.0285690000000000   10.3751466825137868 -22.7857937842716218  17.8553908138190032 0 0 0
205       34   3    0.1837560000000000  -23.7548561558130977 -17.4239536903010652  10.4315901575436918 0 0 0
206       34   2    0.0917600000000000  -23.9283782719408684 -16.1652916066564067  9.7454445211006444  0 0 0
207       34   4   -0.3612230000000000  -24.0666924623039016 -15.1620141517424010  9.1985189747001357  0 0 0
208       34   1    0.0285690000000000  -24.5456113348888429 -17.5810300354814544  11.1713834683742750 0 0 0
209       34   1    0.0285690000000000  -22.7947490271067323 -17.4574111401327201  10.9553667680924622 0 0 0
210       34   1    0.0285690000000000  -23.7823695892173426 -18.2621971194508070  9.7288347564476911  0 0 0
211       35   3    0.1837560000000000   23.6515566009751161 -23.3696786015541385  23.8862056409706121 0 0 0
212       35   2    0.0917600000000000   24.1381367522748320 -24.7105539471927180  23.6616414768219840 0 0 0
213       35   4   -0.3612230000000000   24.5259889821553756 -25.7793634565995440  23.4826417548159689 0 0 0
214       35   1    0.0285690000000000   22.5639379659762191 -23.3606821268223150  24.0056445058578376 0 0 0
215       35   1    0.0285690000000000   23.9016791422608321 -22.7145635062019906  23.0462473304084163 0 0 0
216       35   1    0.0285690000000000   24.0913573976284070 -22.9378152029000688  24.7902761323959737 0 0 0
217       36   3    0.1837560000000000   17.0946736940216546  10.4410212549388746  23.4071453818601327 0 0 0
218       36   2    0.0917600000000000   16.8339562830887068  9.7262837317394926   24.6344646983247770 0 0 0
219       36   4   -0.3612230000000000   16.6261388681593907  9.1565676399266884   25.6127588856128554 0 0 0
220       36   1    0.0285690000000000   16.3401172240275834  10.2096876443692182  22.6492600551708598 0 0 0
221       36   1    0.0285690000000000   18.0736575972084239  10.1748738766728870  22.9972391393566618 0 0 0
222       36   1    0.0285690000000000   17.0833540772591022  11.5227044986117377  23.5717886809454882 0 0 0
223       37   3    0.1837560000000000  -3.1647098890008749   10.0438088207954266  24.1926225927185783 0 0 0
224       37   2    0.0917600000000000  -3.8830451057691739   10.5329119393293524  23.0394059366687110 0 0 0
225       37   4   -0.3612230000000000  -4.4556289131462519   10.9227752221989540  22.1201788568349507 0 0 0
226       37   1    0.0285690000000000  -3.1390021308387066   10.7949832690075258  24.9878187532497620 0 0 0
227       37   1    0.0285690000000000  -2.1312012815567076   9.7931327816056548   23.9351570241178031 0 0 0
228       37   1    0.0285690000000000  -3.6367922284412422   9.1435266133219741   24.5974736776809948 0 0 0
229       38   3    0.1837560000000000  -16.8734295966673713  24.1693081669127459 -17.2934955140199236 0 0 0
230       38   2    0.0917600000000000  -17.2832335027928892  23.0867468244940106 -16.4302124211559288 0 0 0
231       38   4   -0.3612230000000000  -17.6098875152510246  22.2238389777229592 -15.7420909026536044 0 0 0
232       38   1    0.0285690000000000  -15.7877607862031635  24.1744678524674157 -17.4297213773139994 0 0 0
233       38   1    0.0285690000000000  -17.1630183828502219  25.1377677846655274 -16.8745786475663735 0 0 0
234       38   1    0.0285690000000000  -17.3345679600001681  24.0805272350081374 -18.2817988810550176 0 0 0
235       39   3    0.1837560000000000  -23.9519648938126863 -17.2295120287636117 -10.6035273234160510 0 0 0
236       39   2    0.0917600000000000  -23.5281075266515742 -16.5601390955922447 -9.3962904748064560  0 0 0
237       39   4   -0.3612230000000000  -23.1902515237595104 -16.0265830430925540 -8.4340039892675893  0 0 0
238       39   1    0.0285690000000000  -24.0940849172860680 -16.5153055362996177 -11.4202107744851986 0 0 0
239       39   1    0.0285690000000000  -24.8990893063430967 -17.7554727237616099 -10.4499443432192756 0 0 0
240       39   1    0.0285690000000000  -23.2091586734178570 -17.9648853162552093 -10.9271617410643511 0 0 0
241       40   3    0.1837560000000000  -23.6656199431582728 -16.6337754757729996 -23.5571139168861095 0 0 0
242       40   2    0.0917600000000000  -24.1095910408608489 -17.7699012590242660 -24.3299294634665841 0 0 0
243       40   4   -0.3612230000000000  -24.4634796649374628 -18.6755052325561621 -24.9459394511878898 0 0 0
244       40   1    0.0285690000000000  -24.4838276497585916 -15.9262748159524499 -23.3920689550928493 0 0 0
245       40   1    0.0285690000000000  -22.8596092580571053 -16.1000432485102607 -24.0696992486932899 0 0 0
246       40   1    0.0285690000000000  -23.2905292844985041 -16.9463977119486913 -22.5779058059440594 0 0 0
247       41   3    0.1837560000000000   16.7577982142730200 -9.8384435744239891   3.5737280017767366  0 0 0
248       41   2    0.0917600000000000   17.5180542004001758 -10.9499356227527027  3.0524485545894553  0 0 0
249       41   4   -0.3612230000000000   18.1240529833587551 -11.8359040871203298  2.6369375736289138  0 0 0
250       41   1    0.0285690000000000   16.6076406311928153 -9.0710682982425634   2.8083204241104340  0 0 0
251       41   1    0.0285690000000000   17.2723095682599741 -9.3719559693303047   4.4192659478279142  0 0 0
252       41   1    0.0285690000000000   15.7720421462801177 -10.1638310943890140  3.9196790468195140  0 0 0
253       42   3    0.1837560000000000  -10.4364387604490361 -16.6099672592314747 -23.9328936691279353 0 0 0
254       42   2    0.0917600000000000  -9.7355873749670536  -17.8182484290505130 -23.5668336328924468 0 0 0
255       42   4   -0.3612230000000000  -9.1769399004493284  -18.7813673412897302 -23.2750477864191865 0 0 0
256       42   1    0.0285690000000000  -9.7390522978867740  -15.8380445611746676 -24.2720814405165868 0 0 0
257       42   1    0.0285690000000000  -10.9952340117370237 -16.2064588669618601 -23.0830725810123489 0 0 0
258       42   1    0.0285690000000000  -11.1478863007697022 -16.7978112860565822 -24.7427277313022884 0 0 0
259       43   3    0.1837560000000000   16.6254998369957860  23.6921902969005203  24.0686794936758481 0 0 0
260       43   2    0.0917600000000000   17.7867062425159972  24.0556281653688906  23.2910879559505410 0 0 0
261       43   4   -0.3612230000000000   18.7123019383732263  24.3453238862731531  22.6712710336256222 0 0 0
262       43   1    0.0285690000000000   15.8392688442984628  23.2768490765837015  23.4310327489747365 0 0 0
263       43   1    0.0285690000000000   16.2113770025028892  24.5620668788463696  24.5874126114095688 0 0 0
264       43   1    0.0285690000000000   16.8767438790784823  22.9405985372981505  24.8231729976344759 0 0 0
265       44   3    0.1837560000000000   16.8311458777228431  9.9846091178987102  -3.0185209250705145  0 0 0
266       44   2    0.0917600000000000   17.3691064545811606  10.6531278416992876 -4.1799067927623526  0 0 0
267       44   4   -0.3612230000000000   17.7979139362776060  11.1860030053292618 -5.1056455376183107  0 0 0
268       44   1    0.0285690000000000   16.5769656754100509  10.7031872413830680 -2.2334739332273932  0 0 0
269       44   1    0.0285690000000000   17.5536506677691051  9.2758652879065551  -2.6026651218066510  0 0 0
270       44   1    0.0285690000000000   15.9231151320040887  9.4283461520420051  -3.2701672382677240  0 0 0
271       45   3    0.1837560000000000  -17.4694277662247366 -3.3135655568423057  -10.2883948898691457 0 0 0