LAMMPS data file via vdw_self_gen.py, on 2021-08-05 13:22:55.026441

8000 atoms
9 atom types
7500 bonds
9 bond types
13500 angles
16 angle types
16500 dihedrals
12 dihedral types

-46.4077311912485868  46.4077311912485797 xlo xhi
-46.4077311912485868  46.4077311912485797 ylo yhi
-46.4077311912485868  46.4077311912485797 zlo zhi

Masses

1  1.007940
2  1.007940
3  1.007940
4  1.007940
5  12.011000
6  12.011000
7  12.011000
8  12.011000
9  14.006740

Atoms

1         0    5   -0.1079060000000000  -15.5057241263910903 -7.0903641705863034  -27.1528013841208313 0 0 0
2         0    6   -0.0058890000000000  -15.5672351716242030 -6.3434435429872362  -25.8298039380230158 0 0 0
3         0    8   -0.0737440000000000  -15.5004611617827006 -4.8298076289777798  -26.0365917394776574 0 0 0
4         0    7    0.4196630000000000  -15.5472149764941410 -4.0866177829087178  -24.7025835024679381 0 0 0
5         0    9   -0.9730690000000000  -15.4950619193542458 -2.6461018022218781  -24.9229309681143469 0 0 0
6         0    1    0.0285690000000000  -15.5568446513228427 -8.1701420898967161  -26.9812710491932215 0 0 0
7         0    1    0.0285690000000000  -14.5719966124265099 -6.8745854186716189  -27.6819380403710511 0 0 0
8         0    1    0.0285690000000000  -16.3414767847020173 -6.8094669362488158  -27.8015918212172579 0 0 0
9         0    2    0.0140440000000000  -14.7359416048922682 -6.6699141966333615  -25.1941356217463799 0 0 0
10        0    2    0.0140440000000000  -16.4960081345819489 -6.6074776694919928  -25.3106973888256839 0 0 0
11        0    2    0.0140440000000000  -16.3384335350531948 -4.5106327868212182  -26.6693051990861498 0 0 0
12        0    2    0.0140440000000000  -14.5770332734317858 -4.5750372746496542  -26.5721498327516628 0 0 0
13        0    3   -0.0517540000000000  -14.7039333289858032 -4.3876480092520813  -24.0713083488278734 0 0 0
14        0    3   -0.0517540000000000  -16.4700501627600175 -4.3320667921180407  -24.1661699973547819 0 0 0
15        0    4    0.3512850000000000  -14.6257205662886616 -2.4022093512442937  -25.3962086590171019 0 0 0
16        0    4    0.3512850000000000  -15.4747636765676972 -2.1671177761766911  -24.0236786538369103 0 0 0
17        1    5   -0.1079060000000000  -35.8933380564024631  26.2930914118233616  7.4626280312069415  0 0 0
18        1    6   -0.0058890000000000  -36.1423312474012235  25.3755637314355127  6.2759765990001863  0 0 0
19        1    8   -0.0737440000000000  -35.9452024199351357  26.1090269055845070  4.9487668789675432  0 0 0
20        1    7    0.4196630000000000  -36.2119648255925455  25.1854480704604278  3.7613600417214657  0 0 0
21        1    9   -0.9730690000000000  -36.0064155571942308  25.9003214945969589  2.5071412716003083  0 0 0
22        1    1    0.0285690000000000  -36.0380117733658736  25.7476725969583846  8.4004681833177770  0 0 0
23        1    1    0.0285690000000000  -36.5843489852863470  27.1421007903406135  7.4536774752033983  0 0 0
24        1    1    0.0285690000000000  -34.8702470064504482  26.6822527182765405  7.4502597464535789  0 0 0
25        1    2    0.0140440000000000  -37.1631367320416217  24.9804518556939215  6.3355505721432985  0 0 0
26        1    2    0.0140440000000000  -35.4592078324675697  24.5200815320963592  6.3334000496386960  0 0 0
27        1    2    0.0140440000000000  -34.9199491078200310  26.4967779838588307  4.8949027211805678  0 0 0
28        1    2    0.0140440000000000  -36.6194631728638171  26.9738986318850600  4.9061194428670065  0 0 0
29        1    3   -0.0517540000000000  -37.2394259493108208  24.8070748802857644  3.7988943194502438  0 0 0
30        1    3   -0.0517540000000000  -35.5373116952836554  24.3232889083654378  3.7950376096277547  0 0 0
31        1    4    0.3512850000000000  -36.6501017065400276  26.6888791646824046  2.4516919200279879  0 0 0
32        1    4    0.3512850000000000  -36.2379765342487943  25.2872354680877187  1.7267583664795896  0 0 0
33        2    5   -0.1079060000000000  -36.7366070835765228  2.9713390534721800  -4.4975913357975026  0 0 0
34        2    6   -0.0058890000000000  -36.0710148287180488  3.9914345866440373  -5.4077497442491449  0 0 0
35        2    8   -0.0737440000000000  -36.1673276039350569  5.4045536019649729  -4.8314406767615816  0 0 0
36        2    7    0.4196630000000000  -35.5102489664771355  6.4259673464705660  -5.7582937771132565  0 0 0
37        2    9   -0.9730690000000000  -35.6020745016472020  7.7634783829751282  -5.1847159393970301  0 0 0
38        2    1    0.0285690000000000  -36.6541844810939637  1.9684121426085812  -4.9280567176409233  0 0 0
39        2    1    0.0285690000000000  -37.7994945569928760  3.1978431268349947  -4.3658367734300398  0 0 0
40        2    1    0.0285690000000000  -36.2630510963510559  2.9574775463309670  -3.5107441444944665  0 0 0
41        2    2    0.0140440000000000  -36.5480071540228977  3.9577878718441024  -6.3941839844717023  0 0 0
42        2    2    0.0140440000000000  -35.0187392756855544  3.7170424575396206  -5.5464218974585018  0 0 0
43        2    2    0.0140440000000000  -35.6833067092768275  5.4308665459334255  -3.8468453270295444  0 0 0
44        2    2    0.0140440000000000  -37.2223995981606564  5.6653362228337940  -4.6789120520591503  0 0 0
45        2    3   -0.0517540000000000  -35.9990090168847345  6.4175398913581123  -6.7387498163755364  0 0 0
46        2    3   -0.0517540000000000  -34.4549940743559588  6.1744193010789497  -5.9091915541478803  0 0 0
47        2    4    0.3512850000000000  -36.5815716495180112  8.0201850523144849  -5.0667468259408555  0 0 0
48        2    4    0.3512850000000000  -35.2064020055080960  8.4389500986824171  -5.8371526625192853  0 0 0
49        3    5   -0.1079060000000000   24.7513313964173811 -3.1731205957220450   4.3661580096930503  0 0 0
50        3    6   -0.0058890000000000   25.8699485701645457 -4.1995148885771849   4.4510499951351026  0 0 0
51        3    8   -0.0737440000000000   25.4883196483674297 -5.3715270225322156   5.3560696453693613  0 0 0
52        3    7    0.4196630000000000   26.6224669075380618 -6.3909331146123307   5.4488934399788214  0 0 0
53        3    9   -0.9730690000000000   26.2335625449521785 -7.5050639719734225   6.3055293410695414  0 0 0
54        3    1    0.0285690000000000   25.0449959164464779 -2.3454940511636875   3.7128956035204066  0 0 0
55        3    1    0.0285690000000000   24.5215985246159960 -2.7608235494575766   5.3538963831277728  0 0 0
56        3    1    0.0285690000000000   23.8385529145907640 -3.6197974834664235   3.9591813586806204  0 0 0
57        3    2    0.0140440000000000   26.7752880358405534 -3.7132351961734003   4.8326241068685576  0 0 0
58        3    2    0.0140440000000000   26.0985020822189711 -4.5663867556315525   3.4435912260573565  0 0 0
59        3    2    0.0140440000000000   24.5846383919603362 -5.8557241859742799   4.9645215717779392  0 0 0
60        3    2    0.0140440000000000   25.2439128280322542 -4.9948075299970558   6.3574672686028659  0 0 0
61        3    3   -0.0517540000000000   27.5239811648742148 -5.9189431712870073   5.8547862719177344  0 0 0
62        3    3   -0.0517540000000000   26.8665784180357079 -6.7753866121364323   4.4527937841792369  0 0 0
63        3    4    0.3512850000000000   26.0319136685485546 -7.1625301017676932   7.2442720997138004  0 0 0
64        3    4    0.3512850000000000   27.0175751318283837 -8.1493449984140831   6.3989031231941684  0 0 0
65        4    5   -0.1079060000000000   13.4170360422628523  37.2385699414830142  4.8388365518352829  0 0 0
66        4    6   -0.0058890000000000   14.8082517852550986  36.7762120112131754  4.4354258730387066  0 0 0
67        4    8   -0.0737440000000000   15.4187720050073338  35.8501800007758860  5.4880622871528804  0 0 0
68        4    7    0.4196630000000000   16.8221978908000764  35.4020527483267102  5.0834973460133677  0 0 0
69        4    9   -0.9730690000000000   17.3804992183709999  34.5108992318229966  6.0936974624534797  0 0 0
70        4    1    0.0285690000000000   12.9991895409383531  37.8976256567556931  4.0713691685561697  0 0 0
71        4    1    0.0285690000000000   13.4461580001357621  37.7924311314862962  5.7826494755006594  0 0 0
72        4    1    0.0285690000000000   12.7401051685691566  36.3869541299909187  4.9606146092058445  0 0 0
73        4    2    0.0140440000000000   15.4506444898922641  37.6529186456630356  4.2925154806924537  0 0 0
74        4    2    0.0140440000000000   14.7491288819353130  36.2565273401733492  3.4719752146813172  0 0 0
75        4    2    0.0140440000000000   14.7726682709506463  34.9731496407860050  5.6213451168573068  0 0 0
76        4    2    0.0140440000000000   15.4583837321778841  36.3709087447286805  6.4533197429603550  0 0 0
77        4    3   -0.0517540000000000   17.4780818612656219  36.2714922427368691  4.9645745279919877  0 0 0
78        4    3   -0.0517540000000000   16.7880915603941254  34.8758608335784004  4.1235138708015509  0 0 0
79        4    4    0.3512850000000000   17.4441819064509644  34.9999986188616603  6.9858611208353389  0 0 0
80        4    4    0.3512850000000000   18.3345093322525656  34.2626516838219075  5.8353753803096344  0 0 0
81        5    5   -0.1079060000000000  -5.2530826700878581   37.5791167282904581  3.3102968927621403  0 0 0
82        5    6   -0.0058890000000000  -4.5681208877426691   36.8699424521215562  4.4678354354235950  0 0 0
83        5    8   -0.0737440000000000  -5.5046191785907057   35.8689341048876926  5.1455277575040732  0 0 0
84        5    7    0.4196630000000000  -4.8148843532715881   35.1715727304916399  6.3168722956919048  0 0 0
85        5    9   -0.9730690000000000  -5.7201310301761490   34.2134084743112297  6.9404177629446924  0 0 0
86        5    1    0.0285690000000000  -4.5649586953601800   38.2882503645597865  2.8395833915574031  0 0 0
87        5    1    0.0285690000000000  -6.1304410949981403   38.1355826850703963  3.6552330814752536  0 0 0
88        5    1    0.0285690000000000  -5.5775274646113369   36.8635697879454867  2.5480351628625240  0 0 0
89        5    2    0.0140440000000000  -4.2296232604171395   37.6159387996955914  5.1962687513840864  0 0 0
90        5    2    0.0140440000000000  -3.6765802410179322   36.3520861536976057  4.0952968796735867  0 0 0
91        5    2    0.0140440000000000  -5.8346390637426691   35.1231083302924745  4.4112067176626963  0 0 0
92        5    2    0.0140440000000000  -6.4023467220405035   36.3913153111998682  5.5000028662542357  0 0 0
93        5    3   -0.0517540000000000  -4.4970082768198916   35.9084460065009168  7.0626765789479196  0 0 0
94        5    3   -0.0517540000000000  -3.9213340591011825   34.6429313615399295  5.9679946374492845  0 0 0
95        5    4    0.3512850000000000  -6.5431835036955910   34.6991014541012461  7.2952651156418993  0 0 0
96        5    4    0.3512850000000000  -5.2641527272128545   33.7951278574986986  7.7501199016510460  0 0 0
97        6    5   -0.1079060000000000  -15.7508160744770915  3.2613192421759676  -34.6985785939933251 0 0 0
98        6    6   -0.0058890000000000  -14.9407409403433959  4.2739355744342884  -35.4925450389404489 0 0 0
99        6    8   -0.0737440000000000  -15.8359779171359438  5.3508196778658048  -36.1066989500733442 0 0 0
100       6    7    0.4196630000000000  -15.0173108623238800  6.3556927754604953  -36.9154692227687491 0 0 0
101       6    9   -0.9730690000000000  -15.8876325676789953  7.3797665622776769  -37.4813068725780241 0 0 0
102       6    1    0.0285690000000000  -15.0907431712908355  2.5022624334791925  -34.2671937976104033 0 0 0
103       6    1    0.0285690000000000  -16.4793731677876210  2.7534326380219616  -35.3386167961405206 0 0 0
104       6    1    0.0285690000000000  -16.2916226113987435  3.7463408990480191  -33.8796786761841418 0 0 0
105       6    2    0.0140440000000000  -14.3892983694646048  3.7520197828503572  -36.2832543961747689 0 0 0
106       6    2    0.0140440000000000  -14.1993330562747015  4.7385703101701750  -34.8320650938335277 0 0 0
107       6    2    0.0140440000000000  -16.3802531183443847  5.8716490084041508  -35.3086401088839992 0 0 0
108       6    2    0.0140440000000000  -16.5863595609792469  4.8769899847784934  -36.7523476782776370 0 0 0
109       6    3   -0.0517540000000000  -14.4836854526470304  5.8455928715678853  -37.7249712079398520 0 0 0
110       6    3   -0.0517540000000000  -14.2706308415030776  6.8366947077156466  -36.2745983049749512 0 0 0
111       6    4    0.3512850000000000  -16.5691617358317060  6.9461377713709371  -38.1031700031411944 0 0 0
112       6    4    0.3512850000000000  -15.3349602391778710  8.0114089892653091  -38.0592978606897105 0 0 0
113       7    5   -0.1079060000000000  -4.0881931292668368  -38.0648025923623265  26.5558837233539364 0 0 0
114       7    6   -0.0058890000000000  -4.5206350830257698  -37.0622657529562218  25.4976256653818858 0 0 0
115       7    8   -0.0737440000000000  -5.2508380541690975  -35.8708986215215901  26.1187227773303086 0 0 0
116       7    7    0.4196630000000000  -5.6957869931761875  -34.8755897810899214  25.0484537472565449 0 0 0
117       7    9   -0.9730690000000000  -6.3780962505963696  -33.7425317119561967  25.6624510817863261 0 0 0
118       7    1    0.0285690000000000  -3.5668348988527727  -38.9068059123078456  26.0898662090046969 0 0 0
119       7    1    0.0285690000000000  -4.9529634447547091  -38.4595402056754807  27.0987903996684096 0 0 0
120       7    1    0.0285690000000000  -3.4090395524308752  -37.6033011313380428  27.2798185366785617 0 0 0
121       7    2    0.0140440000000000  -5.1735331931158939  -37.5635120968714631  24.7736212105251816 0 0 0
122       7    2    0.0140440000000000  -3.6370201839332150  -36.7131599498711907  24.9506753070731762 0 0 0
123       7    2    0.0140440000000000  -4.5890269181997834  -35.3718955730500895  26.8380270092955762 0 0 0
124       7    2    0.0140440000000000  -6.1236974822867269  -36.2295763145017844  26.6790050285257117 0 0 0
125       7    3   -0.0517540000000000  -6.3704417780310649  -35.3621621315280379  24.3354742785047868 0 0 0
126       7    3   -0.0517540000000000  -4.8278166154624014  -34.5091076815873024  24.4899488325462542 0 0 0
127       7    4    0.3512850000000000  -7.2050566230030348  -34.0687598445504207  26.1613913953240349 0 0 0
128       7    4    0.3512850000000000  -6.7136530285816534  -33.1145233010366411  24.9334109421764154 0 0 0
129       8    5   -0.1079060000000000  -23.8944216829895062  24.6398146874855577 -24.9146585498123869 0 0 0
130       8    6   -0.0058890000000000  -24.7347331968718791  25.8697920249445659 -25.2196644251229500 0 0 0
131       8    8   -0.0737440000000000  -26.0661183359911135  25.4922878234719832 -25.8702163697077054 0 0 0
132       8    7    0.4196630000000000  -26.8982649567103635  26.7335592783758997 -26.1878202421120818 0 0 0
133       8    9   -0.9730690000000000  -28.1674765471659931  26.3509477174938134 -26.7953312047559429 0 0 0
134       8    1    0.0285690000000000  -22.9485009837226848  24.9329893653322472 -24.4485695477236646 0 0 0
135       8    1    0.0285690000000000  -23.6642429981197076  24.0852674728521698 -25.8300209375441234 0 0 0
136       8    1    0.0285690000000000  -24.4176777280186421  23.9672433355819834 -24.2275154196429447 0 0 0
137       8    2    0.0140440000000000  -24.1703913623557973  26.5345178515197695 -25.8840168612582779 0 0 0
138       8    2    0.0140440000000000  -24.9179406822341178  26.4198261720822885 -24.2892331808121540 0 0 0
139       8    2    0.0140440000000000  -26.6267804311952325  24.8313566674258261 -25.1969967753933375 0 0 0
140       8    2    0.0140440000000000  -25.8749225373417246  24.9269845606094407 -26.7912624365663632 0 0 0
141       8    3   -0.0517540000000000  -26.3518692871616018  27.3909779380235072 -26.8730238118966405 0 0 0
142       8    3   -0.0517540000000000  -27.0978048473233066  27.2986520224011322 -25.2710522952988157 0 0 0
143       8    4    0.3512850000000000  -27.9943232061052036  25.8490082220755646 -27.6655635598880352 0 0 0
144       8    4    0.3512850000000000  -28.6876973611250321  27.1899410047560686 -27.0482205268964329 0 0 0
145       9    5   -0.1079060000000000   37.4183965047139111 -24.6721382683700519  3.5325931530858159  0 0 0
146       9    6   -0.0058890000000000   36.1680168105626265 -24.8891473723986572  4.3701216267646803  0 0 0
147       9    8   -0.0737440000000000   36.3479233027883595 -26.0421822251108956  5.3582804833691737  0 0 0
148       9    7    0.4196630000000000   35.0827850310020324 -26.2643875186339564  6.1854110677945302  0 0 0
149       9    9   -0.9730690000000000   35.2798195871355063 -27.3587185970179867  7.1287965203917931  0 0 0
150       9    1    0.0285690000000000   37.2680290653972719 -23.8423803453323941  2.8348483994333131  0 0 0
151       9    1    0.0285690000000000   37.6598673007654199 -25.5665253647332698  2.9493635948386294  0 0 0
152       9    1    0.0285690000000000   38.2784251751147693 -24.4319659891107150  4.1658251451423567  0 0 0
153       9    2    0.0140440000000000   35.3218159412420789 -25.0968422400928510  3.7049049546986135  0 0 0
154       9    2    0.0140440000000000   35.9347282020433951 -23.9661784832414035  4.9137296665166703  0 0 0
155       9    2    0.0140440000000000   37.1931899634742038 -25.8242069169853252  6.0234177906828972  0 0 0
156       9    2    0.0140440000000000   36.5985001626089925 -26.9583103163213309  4.8083986528659466  0 0 0
157       9    3   -0.0517540000000000   34.2373937040027485 -26.4990440751091931  5.5292851206337907  0 0 0
158       9    3   -0.0517540000000000   34.8312236610065895 -25.3550539098040062  6.7416832229293311  0 0 0
159       9    4    0.3512850000000000   35.4860891978460060 -28.2177955556565649  6.6202010865412539  0 0 0
160       9    4    0.3512850000000000   34.4122289925006797 -27.5282889665132657  7.6357727431975855  0 0 0
161       10   5   -0.1079060000000000  -26.3877504821334092 -26.4457765604212014 -38.2887663334952535 0 0 0
162       10   6   -0.0058890000000000  -25.5135767594201361 -26.4504913440384293 -37.0446625000741534 0 0 0
163       10   8   -0.0737440000000000  -26.1085567334697544 -25.5792405616806349 -35.9377593660462296 0 0 0
164       10   7    0.4196630000000000  -25.2174659261693463 -25.5764043032454467 -34.6967742042965881 0 0 0
165       10   9   -0.9730690000000000  -25.8086802968876512 -24.7507615695169783 -33.6502853693358119 0 0 0
166       10   1    0.0285690000000000  -25.9444623613326328 -27.0761875241269721 -39.0659625620607756 0 0 0
167       10   1    0.0285690000000000  -26.4914611105335673 -25.4330817195422583 -38.6913658937458820 0 0 0
168       10   1    0.0285690000000000  -27.3878545807530926 -26.8319576908607935 -38.0674730443595450 0 0 0
169       10   2    0.0140440000000000  -24.5130492409280230 -26.0877232118826292 -37.3074366562086936 0 0 0
170       10   2    0.0140440000000000  -25.4018979214103950 -27.4809510012418947 -36.6876112738937508 0 0 0
171       10   2    0.0140440000000000  -27.1073411343741455 -25.9519494308757892 -35.6771554145540932 0 0 0
172       10   2    0.0140440000000000  -26.2337911308070808 -24.5537572604436747 -36.3080967990822714 0 0 0
173       10   3   -0.0517540000000000  -24.2229546785851397 -25.1897871913733056 -34.9452214643663055 0 0 0
174       10   3   -0.0517540000000000  -25.0940096319594339 -26.5969050450828277 -34.3186919051482136 0 0 0
175       10   4    0.3512850000000000  -25.9015492075076672 -23.7910356835998371 -33.9812404687689522 0 0 0
176       10   4    0.3512850000000000  -25.1787649481603992 -24.7171560464991984 -32.8499293467680289 0 0 0
177       11   5   -0.1079060000000000   24.1809168759123168  35.2355514676238215 -3.6338494691530920  0 0 0
178       11   6   -0.0058890000000000   25.4825759392083846  35.2073016181217753 -4.4192677678591572  0 0 0
179       11   8   -0.0737440000000000   25.6777477374962331  36.4904256250206203 -5.2278556699903556  0 0 0
180       11   7    0.4196630000000000   26.9796496556176884  36.4485695652267694 -6.0262255772076738  0 0 0
181       11   9   -0.9730690000000000   27.1522424997562588  37.6852596145619998 -6.7793315920737154  0 0 0
182       11   1    0.0285690000000000   24.0629898005191194  34.3097423978507265 -3.0620740848324011  0 0 0
183       11   1    0.0285690000000000   23.3206352357031079  35.3326065375158578 -4.3038412258390881  0 0 0
184       11   1    0.0285690000000000   24.1650057073124316  36.0738812669089768 -2.9300989624077753  0 0 0
185       11   2    0.0140440000000000   25.4781943927382990  34.3406497021621604 -5.0905363793062168  0 0 0
186       11   2    0.0140440000000000   26.3194508962262788  35.0749221678279142 -3.7236235818299717  0 0 0
187       11   2    0.0140440000000000   25.6860976691683618  37.3522046556187064 -4.5483972229441125  0 0 0
188       11   2    0.0140440000000000   24.8278846025382123  36.6253545731790382 -5.9090137283646333  0 0 0
189       11   3   -0.0517540000000000   26.9721281691824437  35.6000564274081199 -6.7192048957958637  0 0 0
190       11   3   -0.0517540000000000   27.8323468554465165  36.3204392699801488 -5.3508741439197109  0 0 0
191       11   4    0.3512850000000000   26.3782961047058784  37.8004298447700364 -7.4327629076397361  0 0 0
192       11   4    0.3512850000000000   27.9970040029003187  37.6210378684279760 -7.3456760197228981  0 0 0
193       12   5   -0.1079060000000000  -35.0602321690481631 -24.3785578545402259  13.8630082879661050 0 0 0
194       12   6   -0.0058890000000000  -35.9153243426943405 -24.6674863439494452  15.0866642762147567 0 0 0
195       12   8   -0.0737440000000000  -35.9270624669086232 -26.1590896822151322  15.4232580092440230 0 0 0
196       12   7    0.4196630000000000  -36.8002606867681479 -26.4438520097175598  16.6441307825375944 0 0 0
197       12   9   -0.9730690000000000  -36.7875444443495709 -27.8684614198837259  16.9550738050429821 0 0 0
198       12   1    0.0285690000000000  -35.0647304740096288 -23.3066221557174700  13.6418975877685860 0 0 0
199       12   1    0.0285690000000000  -35.4417374974980746 -24.9080168294510180  12.9840771078668222 0 0 0
200       12   1    0.0285690000000000  -34.0228798182963885 -24.6872869576963403  14.0270242465011510 0 0 0
201       12   2    0.0140440000000000  -36.9379547402234110 -24.3192477248340033  14.9004836534149927 0 0 0
202       12   2    0.0140440000000000  -35.5280865667375707 -24.0967642381751155  15.9387957384625665 0 0 0
203       12   2    0.0140440000000000  -34.9008071188468918 -26.4984058446912947  15.6131556202272481 0 0 0
204       12   2    0.0140440000000000  -36.2990223695906380 -26.7251442149765381  14.5597317696675539 0 0 0
205       12   3   -0.0517540000000000  -37.8307580426894745 -26.1229120869112670  16.4561833984423238 0 0 0
206       12   3   -0.0517540000000000  -36.4298871607600958 -25.8863731322902915  17.5111084051177919 0 0 0
207       12   4    0.3512850000000000  -37.1579521585760091 -28.3958170763797462  16.1651853158856866 0 0 0
208       12   4    0.3512850000000000  -37.4141925452075412 -28.0491285730027329  17.7381216822988819 0 0 0
209       13   5   -0.1079060000000000   27.7634525846158198 -27.0189272821769997  15.0633938179894251 0 0 0
210       13   6   -0.0058890000000000   26.4336563159540390 -26.7410197343384652  15.7463327271955116 0 0 0
211       13   8   -0.0737440000000000   25.7520628055653447 -25.5022611833270894  15.1639057512644531 0 0 0
212       13   7    0.4196630000000000   24.4243030752318404 -25.2202663710299788  15.8650676920757032 0 0 0
213       13   9   -0.9730690000000000   23.7856837502939271 -24.0438016661857645  15.2867465065121042 0 0 0
214       13   1    0.0285690000000000   28.2320060151439023 -27.9093987692952439  15.4940613606134061 0 0 0
215       13   1    0.0285690000000000   28.4526542052408189 -26.1778744194115340  15.1899811367139765 0 0 0
216       13   1    0.0285690000000000   27.6256958576894434 -27.1922875139136622  13.9913471270105649 0 0 0
217       13   2    0.0140440000000000   26.6035891879865645 -26.6027232446814992  16.8204384901682928 0 0 0
218       13   2    0.0140440000000000   25.7807128504054219 -27.6140004972617277  15.6306855721794928 0 0 0
219       13   2    0.0140440000000000   25.5809890594591813 -25.6508132070825887  14.0900981940963455 0 0 0
220       13   2    0.0140440000000000   26.4185252321863118 -24.6364722404081427  15.2672827792823558 0 0 0
221       13   3   -0.0517540000000000   24.5887311707176366 -25.0542951886422998  16.9354267074680891 0 0 0
222       13   3   -0.0517540000000000   23.7523176897561150 -26.0787265141147486  15.7597525932439950 0 0 0
223       13   4    0.3512850000000000   24.3902915969690639 -23.2316021030089388  15.4051141955755444 0 0 0
224       13   4    0.3512850000000000   22.9284947472163161 -23.8386962095531629  15.7982650352697096 0 0 0
225       14   5   -0.1079060000000000   6.1627751253612333   4.6584244817631975   38.1828754050674490 0 0 0
226       14   6   -0.0058890000000000   6.0984790027959797   4.6989490550920214   36.6642510135276609 0 0 0
227       14   8   -0.0737440000000000   4.8327967860653942   5.4039548212664279   36.1750383406411373 0 0 0
228       14   7    0.4196630000000000   4.7673521405144683   5.4273234967352479   34.6488450546267046 0 0 0
229       14   9   -0.9730690000000000   3.5605190562731264   6.1142631550517574   34.2038427510230534 0 0 0
230       14   1    0.0285690000000000   7.0761311427562630   4.1519122078814776   38.5102626693210439 0 0 0
231       14   1    0.0285690000000000   5.3068158839720496   4.1162355754969591   38.5973125029511408 0 0 0
232       14   1    0.0285690000000000   6.1656500904467553   5.6692937587277399   38.6029347257174322 0 0 0
233       14   2    0.0140440000000000   6.1281109851479307   3.6741686331552055   36.2761101595366142 0 0 0
234       14   2    0.0140440000000000   6.9850375349811644   5.2172098859853842   36.2805525299870126 0 0 0
235       14   2    0.0140440000000000   4.8133832749249423   6.4301591621878780   36.5635281943814405 0 0 0
236       14   2    0.0140440000000000   3.9503042289839163   4.8903470954166774   36.5773609230837238 0 0 0
237       14   3   -0.0517540000000000   4.7695412706452522   4.4054905600556600   34.2537449267780190 0 0 0
238       14   3   -0.0517540000000000   5.6427138515580246   5.9445419501001977   34.2416149084713837 0 0 0
239       14   4    0.3512850000000000   2.7376787185807316   5.6242290434811286   34.5531707296669666 0 0 0
240       14   4    0.3512850000000000   3.5053441358790862   6.0761303464894469   33.1869877674237870 0 0 0
241       15   5   -0.1079060000000000  -16.3788277225974284 -15.0690311470992349 -17.6216552433169511 0 0 0
242       15   6   -0.0058890000000000  -15.7022072996787383 -14.6678840771285266 -16.3204011918176874 0 0 0
243       15   8   -0.0737440000000000  -15.4386887276585174 -15.8812946628640752 -15.4279291440619453 0 0 0
244       15   7    0.4196630000000000  -14.7729079654881286 -15.4690161223017615 -14.1161145898601674 0 0 0
245       15   9   -0.9730690000000000  -14.5193568545401615 -16.6409744264708372 -13.2863044880740873 0 0 0
246       15   1    0.0285690000000000  -16.5558776635498965 -14.1866671355626544 -18.2445865304215502 0 0 0
247       15   1    0.0285690000000000  -17.3441199127947776 -15.5485460753128582 -17.4301622610323079 0 0 0
248       15   1    0.0285690000000000  -15.7551009696073478 -15.7664686143228234 -18.1898635768682837 0 0 0
249       15   2    0.0140440000000000  -16.3378926719589899 -13.9476732527762621 -15.7922849488798711 0 0 0
250       15   2    0.0140440000000000  -14.7571372135969110 -14.1610530127098020 -16.5479306418532630 0 0 0
251       15   2    0.0140440000000000  -14.7978535201916692 -16.5945907308341063 -15.9617226963735135 0 0 0
252       15   2    0.0140440000000000  -16.3866040906800556 -16.3934332845151189 -15.2190752083529439 0 0 0
253       15   3   -0.0517540000000000  -15.4143525986621714 -14.7693092398014159 -13.5691132050777590 0 0 0
254       15   3   -0.0517540000000000  -13.8228469376134555 -14.9628402560971647 -14.3180538911013180 0 0 0
255       15   4    0.3512850000000000  -15.4007151642989939 -17.1041862656475843 -13.0675077550876431 0 0 0
256       15   4    0.3512850000000000  -14.1234103737418266 -16.3449313832149414 -12.3951943144798200 0 0 0
257       16   5   -0.1079060000000000   26.4575759872507952 -14.3456805241711756 -17.4445132691507752 0 0 0
258       16   6   -0.0058890000000000   26.6919347708080821 -15.0901551379836985 -16.1395880663294662 0 0 0
259       16   8   -0.0737440000000000   25.3749866469446523 -15.5418300541088641 -15.5071712318002852 0 0 0
260       16   7    0.4196630000000000   25.6171870708065619 -16.2754072122185462 -14.1891050154511902 0 0 0
261       16   9   -0.9730690000000000   24.3508383800691881 -16.7079487610440331 -13.6097708807694655 0 0 0
262       16   1    0.0285690000000000   27.4121771132668108 -14.0339132838496425 -17.8798225809869038 0 0 0
263       16   1    0.0285690000000000   25.8502476651806639 -13.4496459030975721 -17.2812116826644697 0 0 0
264       16   1    0.0285690000000000   25.9436749667925390 -14.9814535071382249 -18.1725333572672554 0 0 0
265       16   2    0.0140440000000000   27.2339405996610715 -14.4369567757326394 -15.4458533395484530 0 0 0
266       16   2    0.0140440000000000   27.3301984298279663 -15.9604867106735497 -16.3318048742672239 0 0 0
267       16   2    0.0140440000000000   24.8413091895925753 -16.1990016807324331 -16.2055339061143862 0 0 0
268       16   2    0.0140440000000000   24.7345410055260189 -14.6675814803306981 -15.3340577391581956 0 0 0
269       16   3   -0.0517540000000000   26.1351605188419711 -15.6200364016857485 -13.4802721284941160 0 0 0
270       16   3   -0.0517540000000000   26.2508038921373519 -17.1529350164950287 -14.3566881949423930 0 0 0
271       16   4    0.3512850000000000   23.7636746500963234 -15.8959654291722661 -13.4222835172838977 0 0 0