LAMMPS data file via vdw_self_gen.py, on 2021-08-05 13:22:27.271697

9500 atoms
9 atom types
9000 bonds
11 bond types
16500 angles
19 angle types
19500 dihedrals
16 dihedral types

-51.5406721905367320  51.5406721905367391 xlo xhi
-51.5406721905367320  51.5406721905367391 ylo yhi
-51.5406721905367320  51.5406721905367391 zlo zhi

Masses

1  1.007940
2  1.007940
3  12.011000
4  12.011000
5  12.011000
6  12.011000
7  12.011000
8  12.011000
9  15.999400

Atoms

1         0    3   -0.1079060000000000  -38.4471839007344727  7.4519288860677282   19.1619147757974773 0 0 0
2         0    4   -0.0058890000000000  -39.1790870416232266  7.2002830115732728   17.8518173106037175 0 0 0
3         0    6   -0.0280880000000000  -39.7617030431970591  5.7881598661760982   17.7914505395810494 0 0 0
4         0    7    0.0768000000000000  -40.5075629368687800  5.5390869356219925   16.4806372453330852 0 0 0
5         0    5    0.1779090000000000  -41.0915065065770690  4.1388114588689184   16.4016968044913405 0 0 0
6         0    8   -0.0003600000000000  -41.8356484882229580  3.7949664413685684   15.1376369348679418 0 0 0
7         0    9   -0.3681440000000000  -40.9898900942514217  3.3213566131759875   17.3172371264320013 0 0 0
8         0    1    0.0285690000000000  -37.9981971974070944  8.4503849116102128   19.1589595443148184 0 0 0
9         0    1    0.0285690000000000  -37.6463313414621012  6.7212169658969607   19.3138468702582600 0 0 0
10        0    1    0.0285690000000000  -39.1328838271642354  7.3923536761745643   20.0132776502290568 0 0 0
11        0    2    0.0140440000000000  -38.4819461616115888  7.3488133626704197   17.0191504232954998 0 0 0
12        0    2    0.0140440000000000  -39.9797944893056183  7.9407283938092315   17.7412391755525469 0 0 0
13        0    2    0.0140440000000000  -40.4423212992854104  5.6327576655545526   18.6377563521696388 0 0 0
14        0    2    0.0140440000000000  -38.9538045196016824  5.0533591747543101   17.8979064673562398 0 0 0
15        0    2    0.0140440000000000  -39.8250179483527305  5.6670211444245053   15.6329119160726524 0 0 0
16        0    2    0.0140440000000000  -41.3320450730586728  6.2531195686187395   16.3759922682941266 0 0 0
17        0    1    0.0285690000000000  -41.1946890157730792  3.9746539216224201   14.2709900954247964 0 0 0
18        0    1    0.0285690000000000  -42.7416791411237895  4.4018524950125180   15.0698407631724400 0 0 0
19        0    1    0.0285690000000000  -42.1153081234218121  2.7372312425766228   15.1499949434860373 0 0 0
20        1    3   -0.1079060000000000  -4.3128202069766948  -14.5077069160292567  40.7591027856387242 0 0 0
21        1    4   -0.0058890000000000  -4.3521189261427118  -16.0100796411759028  40.5209956091249452 0 0 0
22        1    6   -0.0280880000000000  -5.7643224127176742  -16.4938589793857346  40.1911226115534959 0 0 0
23        1    7    0.0768000000000000  -5.8020549048226471  -18.0011679503171145  39.9397827554038329 0 0 0
24        1    5    0.1779090000000000  -7.1990567403437975  -18.5006723892639648  39.6128664302945950 0 0 0
25        1    8   -0.0003600000000000  -7.3386000805269607  -19.9796067970549061  39.3616599165204022 0 0 0
26        1    9   -0.3681440000000000  -8.1735098039788436  -17.7516998976851390  39.5337852395443292 0 0 0
27        1    1    0.0285690000000000  -3.3022321067322116  -14.1955059599132198  41.0415111473146439 0 0 0
28        1    1    0.0285690000000000  -4.9943279216431335  -14.2173806694008675  41.5651089882629918 0 0 0
29        1    1    0.0285690000000000  -4.5958364614365328  -13.9586719757498745  39.8552140907409864 0 0 0
30        1    2    0.0140440000000000  -3.9851118533716487  -16.5233260106191295  41.4172571723916931 0 0 0
31        1    2    0.0140440000000000  -3.6694159267884037  -16.2604114354315712  39.7007091273044921 0 0 0
32        1    2    0.0140440000000000  -6.1394929306564583  -15.9635353022751811  39.3070250700652934 0 0 0
33        1    2    0.0140440000000000  -6.4401227296245338  -16.2440041182988892  41.0186680333642073 0 0 0
34        1    2    0.0140440000000000  -5.4532689493716227  -18.5366690496926445  40.8299849722330919 0 0 0
35        1    2    0.0140440000000000  -5.1481928228657150  -18.2583313157297020  39.0990120694444485 0 0 0
36        1    1    0.0285690000000000  -6.9387217203903857  -20.5381466889611985  40.2115563022309104 0 0 0
37        1    1    0.0285690000000000  -6.8031425357262449  -20.2476211726521313  38.4477386621504067 0 0 0
38        1    1    0.0285690000000000  -8.3957367014612636  -20.2358609370961631  39.2434991654593190 0 0 0
39        2    3   -0.1079060000000000  -42.5532646779450872 -41.9236847973982449 -16.8077371729188272 0 0 0
40        2    4   -0.0058890000000000  -41.7339686700631276 -40.8677070912576710 -17.5350805290463150 0 0 0
41        2    6   -0.0280880000000000  -40.4233229983151077 -40.5681006334429597 -16.8073297312701087 0 0 0
42        2    7    0.0768000000000000  -39.5943274372552949 -39.5162605895266523 -17.5441978876300233 0 0 0
43        2    5    0.1779090000000000  -38.2884868140837895 -39.2035753959780777 -16.8335634294093808 0 0 0
44        2    8   -0.0003600000000000  -37.4074631638672059 -38.1661255175814276 -17.4795658415363206 0 0 0
45        2    9   -0.3681440000000000  -37.9417678307615205 -39.7694936714579583 -15.7961171160119829 0 0 0
46        2    1    0.0285690000000000  -43.5067599165141559 -42.0832124935618381 -17.3214588604918198 0 0 0
47        2    1    0.0285690000000000  -42.7700557346522316 -41.6167206652921848 -15.7795529712155673 0 0 0
48        2    1    0.0285690000000000  -42.0223272256051459 -42.8805829782116632 -16.7760570220553191 0 0 0
49        2    2    0.0140440000000000  -42.3281705420838037 -39.9505638875470979 -17.6197758428164128 0 0 0
50        2    2    0.0140440000000000  -41.5257061869870370 -41.2151686376200956 -18.5536660761371905 0 0 0
51        2    2    0.0140440000000000  -39.8391395616506045 -41.4908849412855645 -16.7032940814846818 0 0 0
52        2    2    0.0140440000000000  -40.6404441894261339 -40.2164530900859276 -15.7908813367504930 0 0 0
53        2    2    0.0140440000000000  -40.1636270072902803 -38.5835892227841839 -17.6272350974623109 0 0 0
54        2    2    0.0140440000000000  -39.3516787223866658 -39.8682801862580263 -18.5530426575474152 0 0 0
55        2    1    0.0285690000000000  -37.9730198961778740 -37.2433786635533011 -17.6308179691883424 0 0 0
56        2    1    0.0285690000000000  -37.0380706029641402 -38.5439746570102244 -18.4359014054376118 0 0 0
57        2    1    0.0285690000000000  -36.5549989710136103 -37.9488430291896961 -16.8289821783224660 0 0 0
58        3    3   -0.1079060000000000  -40.6912301919074295 -15.3907260681721230  26.1789521721306535 0 0 0
59        3    4   -0.0058890000000000  -41.0804065138545837 -16.2995060982821478  27.3356819890753577 0 0 0
60        3    6   -0.0280880000000000  -39.8561090166801790 -16.7757871117035258  28.1176214782730867 0 0 0
61        3    7    0.0768000000000000  -40.2475369906852336 -17.6788526090152907  29.2871652554919422 0 0 0
62        3    5    0.1779090000000000  -39.0425050513684795 -18.1643410118051492  30.0746880377548109 0 0 0
63        3    8   -0.0003600000000000  -39.3284248753242736 -19.0731296669571186  31.2418114560084952 0 0 0
64        3    9   -0.3681440000000000  -37.8889799397496319 -17.8297993448163368  29.8022286994801284 0 0 0
65        3    1    0.0285690000000000  -41.5796908110418855 -15.1046172891185897  25.6068580165096478 0 0 0
66        3    1    0.0285690000000000  -39.9974080623479509 -15.8934528892243776  25.4975824566103384 0 0 0
67        3    1    0.0285690000000000  -40.2136178635375643 -14.4748644921733387  26.5417694485910332 0 0 0
68        3    2    0.0140440000000000  -41.6273699554937409 -17.1639970638416521  26.9421249017599003 0 0 0
69        3    2    0.0140440000000000  -41.7629410220475066 -15.7588465248282734  28.0016047890743707 0 0 0
70        3    2    0.0140440000000000  -39.2969904145525035 -15.9094163340641899  28.4923382343801244 0 0 0
71        3    2    0.0140440000000000  -39.1806821360330062 -17.3198707002808057  27.4455080037465677 0 0 0
72        3    2    0.0140440000000000  -40.7832898451285644 -18.5595578129900858  28.9154122734628096 0 0 0
73        3    2    0.0140440000000000  -40.9034639391828421 -17.1366388050146341  29.9773304488230323 0 0 0
74        3    1    0.0285690000000000  -39.9176093426929341 -19.9304127635286505  30.9069671101637020 0 0 0
75        3    1    0.0285690000000000  -39.8706588400068753 -18.5197099071570470  32.0122057991908804 0 0 0
76        3    1    0.0285690000000000  -38.3876853374076319 -19.4407307137592547  31.6625781073609360 0 0 0
77        4    3   -0.1079060000000000  -15.6787039430855568 -17.3001475704162928 -25.9274096558494271 0 0 0
78        4    4   -0.0058890000000000  -16.9267616056780916 -17.2319730822181079 -26.7952042929053320 0 0 0
79        4    6   -0.0280880000000000  -16.5799884138735720 -17.2062007341560950 -28.2839156382040429 0 0 0
80        4    7    0.0768000000000000  -17.8339078411978988 -17.1501163428907155 -29.1563354963772881 0 0 0
81        4    5    0.1779090000000000  -17.5083740044059155 -17.1211408348878393 -30.6399733354874435 0 0 0
82        4    8   -0.0003600000000000  -18.6829131484626636 -17.0523722419202919 -31.5810114423671351 0 0 0
83        4    9   -0.3681440000000000  -16.3556418594083262 -17.1697310204441251 -31.0708097277024820 0 0 0
84        4    1    0.0285690000000000  -15.9521227935754020 -17.2672849742183629 -24.8678463448255229 0 0 0
85        4    1    0.0285690000000000  -15.0096646425935916 -16.4578182995810174 -26.1305251579444828 0 0 0
86        4    1    0.0285690000000000  -15.1262794116305201 -18.2284743621005667 -26.1051421615647747 0 0 0
87        4    2    0.0140440000000000  -17.4957807649437704 -16.3328281930638255 -26.5322280930387038 0 0 0
88        4    2    0.0140440000000000  -17.5640387547851766 -18.0960391158698428 -26.5741001782549802 0 0 0
89        4    2    0.0140440000000000  -15.9914393155879626 -18.0954683445925149 -28.5416706746938580 0 0 0
90        4    2    0.0140440000000000  -15.9463992402593462 -16.3362619063666976 -28.4977757328529968 0 0 0
91        4    2    0.0140440000000000  -18.4119348078333367 -16.2492776485537220 -28.9212875658876278 0 0 0
92        4    2    0.0140440000000000  -18.4624797728483330 -18.0275114151645930 -28.9675520781680902 0 0 0
93        4    1    0.0285690000000000  -19.3108128479782444 -16.1950218813792155 -31.3262847126579871 0 0 0
94        4    1    0.0285690000000000  -19.2606650714872245 -17.9772570742661202 -31.5132670009859552 0 0 0
95        4    1    0.0285690000000000  -18.3263489670976689 -16.9293321646426307 -32.6080893881195522 0 0 0
96        5    3   -0.1079060000000000  -38.2902742129121876 -3.6561383708679585  -15.7391525160773114 0 0 0
97        5    4   -0.0058890000000000  -38.8518589710670810 -4.3571930819969120  -16.9673658825214453 0 0 0
98        5    6   -0.0280880000000000  -39.8588682266926710 -5.4430991933111628  -16.5880011416785820 0 0 0
99        5    7    0.0768000000000000  -40.4324400538466548 -6.1392675540780361  -17.8220760059645400 0 0 0
100       5    5    0.1779090000000000  -41.4338185878385730 -7.2241804660251576  -17.4640283809890207 0 0 0
101       5    8   -0.0003600000000000  -42.0449284512381567 -7.9769754624790679  -18.6171408937429632 0 0 0
102       5    9   -0.3681440000000000  -41.7563269681609910 -7.4769751507744573  -16.3026259558648441 0 0 0
103       5    1    0.0285690000000000  -37.5367822668716542 -2.9192242518065790  -16.0353276272531673 0 0 0
104       5    1    0.0285690000000000  -37.8158261047912134 -4.3705142308514917  -15.0587451258520097 0 0 0
105       5    1    0.0285690000000000  -39.0791080431188433 -3.1311059237282102  -15.1908510875984764 0 0 0
106       5    2    0.0140440000000000  -38.0253596939317404 -4.8008300247387412  -17.5343632589963470 0 0 0
107       5    2    0.0140440000000000  -39.3293023871440539 -3.6141133663373615  -17.6165959075665590 0 0 0
108       5    2    0.0140440000000000  -40.6744454677934897 -5.0020935864047011  -16.0015095378380714 0 0 0
109       5    2    0.0140440000000000  -39.3722073485676418 -6.1850831285290866  -15.9425664240803542 0 0 0
110       5    2    0.0140440000000000  -39.6240965705680495 -6.6044476743682221  -18.3974552945454093 0 0 0
111       5    2    0.0140440000000000  -40.9417738595017511 -5.4101404886253706  -18.4620109729270219 0 0 0
112       5    1    0.0285690000000000  -41.2548654035085534 -8.3989632060420423  -19.2431761204633354 0 0 0
113       5    1    0.0285690000000000  -42.6717725440840425 -7.3013834573749330  -19.2040314055963997 0 0 0
114       5    1    0.0285690000000000  -42.6625449874054397 -8.7963571172379957  -18.2372336671767421 0 0 0
115       6    3   -0.1079060000000000   5.2068048037694545  -41.7959409669692690 -26.1033268114334618 0 0 0
116       6    4   -0.0058890000000000   5.5356719327517219  -41.6011659618200227 -27.5761717900188188 0 0 0
117       6    6   -0.0280880000000000   5.5685498152060129  -40.1210921241557870 -27.9575873245834146 0 0 0
118       6    7    0.0768000000000000   5.9109743796586507  -39.9245476495158016 -29.4343037784932058 0 0 0
119       6    5    0.1779090000000000   5.9455606179265104  -38.4588322914896139 -29.8323934392087793 0 0 0
120       6    8   -0.0003600000000000   6.2626436313213052  -38.1652747672481851 -31.2756904916126572 0 0 0
121       6    9   -0.3681440000000000   5.7471752675623922  -37.5452376044544991 -29.0306700444633528 0 0 0
122       6    1    0.0285690000000000   5.1406806858356715  -42.8630985790818713 -25.8681365479496286 0 0 0
123       6    1    0.0285690000000000   4.2481993623870089  -41.3331021968479888 -25.8478978116613618 0 0 0
124       6    1    0.0285690000000000   5.9811322329856864  -41.3568676584401658 -25.4660011483689068 0 0 0
125       6    2    0.0140440000000000   4.7853503603152339  -42.1226703449509543 -28.1815241942526171 0 0 0
126       6    2    0.0140440000000000   6.5055797387965724  -42.0647342026546340 -27.7906540472401815 0 0 0
127       6    2    0.0140440000000000   6.3039870534493190  -39.5955398090837676 -27.3358547328468440 0 0 0
128       6    2    0.0140440000000000   4.5931995173437556  -39.6658225633135260 -27.7445465572863910 0 0 0
129       6    2    0.0140440000000000   5.1639641559603557  -40.4254504495517466 -30.0603590217476508 0 0 0
130       6    2    0.0140440000000000   6.8946874438190457  -40.3550313811769996 -29.6523779156007734 0 0 0
131       6    1    0.0285690000000000   5.5680512572269132  -38.7052781106370176 -31.9238657789993248 0 0 0
132       6    1    0.0285690000000000   7.2911835236580158  -38.4635583797049208 -31.4923264152535545 0 0 0
133       6    1    0.0285690000000000   6.1546899556039847  -37.0933551079460528 -31.4667408268667828 0 0 0
134       7    3   -0.1079060000000000  -37.4417831554062701  18.2560320119712287  38.8882520223587420 0 0 0
135       7    4   -0.0058890000000000  -38.5446653148545906  17.2209963953028122  39.0547315607365348 0 0 0
136       7    6   -0.0280880000000000  -39.6078366855174124  17.6824890251493656  40.0516611065421841 0 0 0
137       7    7    0.0768000000000000  -40.7222962305499578  16.6483220943770576  40.2099471763109193 0 0 0
138       7    5    0.1779090000000000  -41.7873000801781131  17.0890384452170423  41.1996587479213048 0 0 0
139       7    8   -0.0003600000000000  -42.9230106792031023  16.1268383849679502  41.4323742785997382 0 0 0
140       7    9   -0.3681440000000000  -41.7527668518812263  18.1768956519817202  41.7759803204253686 0 0 0
141       7    1    0.0285690000000000  -36.6698500128748464  17.8807033693333217  38.2087228753921622 0 0 0
142       7    1    0.0285690000000000  -36.9662305582522492  18.4845426049490307  39.8474291329785615 0 0 0
143       7    1    0.0285690000000000  -37.8364479582169650  19.1875025326241939  38.4697371465456186 0 0 0
144       7    2    0.0140440000000000  -38.1012752956342595  16.2786334999969284  39.3964306701975886 0 0 0
145       7    2    0.0140440000000000  -39.0050430599168152  17.0284223836484934  38.0787259835563674 0 0 0
146       7    2    0.0140440000000000  -40.0354379646342551  18.6369888579562257  39.7204333930741171 0 0 0
147       7    2    0.0140440000000000  -39.1401087775561507  17.8683123557563128  41.0266817417168070 0 0 0
148       7    2    0.0140440000000000  -40.3037117143437982  15.7003738488709867  40.5663937833005619 0 0 0
149       7    2    0.0140440000000000  -41.2120083386319109  16.4731490514149037  39.2455507737267482 0 0 0
150       7    1    0.0285690000000000  -42.5269635664179191  15.1525303572609715  41.7291299555466892 0 0 0
151       7    1    0.0285690000000000  -43.5150232009531166  16.0318009080564288  40.5189808260977671 0 0 0
152       7    1    0.0285690000000000  -43.5648407040198364  16.5006854278977215  42.2357786540150144 0 0 0
153       8    3   -0.1079060000000000   3.2462244925171886   18.4134849411154526 -4.3414283543383938  0 0 0
154       8    4   -0.0058890000000000   3.9663975903560411   17.7201128767760601 -5.4885766061537211  0 0 0
155       8    6   -0.0280880000000000   5.4472364374870939   17.5020479745864144 -5.1775439111510781  0 0 0
156       8    7    0.0768000000000000   6.1683839027261209   16.7944993981551924 -6.3246695117151450  0 0 0
157       8    5    0.1779090000000000   7.6428030031363932   16.5715653072683935 -6.0341840489707215  0 0 0
158       8    8   -0.0003600000000000   8.4417310451472005   15.8907213160012333 -7.1149196698069090  0 0 0
159       8    9   -0.3681440000000000   8.1710178996964373   16.9041996116135778 -4.9725269274268271  0 0 0
160       8    1    0.0285690000000000   2.2015338351989655   18.6019188017478321 -4.6090593293378834  0 0 0
161       8    1    0.0285690000000000   3.7136043789894657   19.3747156253393342 -4.1048280442632832  0 0 0
162       8    1    0.0285690000000000   3.2573076985461364   17.7944201163144555 -3.4385505974198747  0 0 0
163       8    2    0.0140440000000000   3.8643109384505991   18.3289813154325216 -6.3942577624724048  0 0 0
164       8    2    0.0140440000000000   3.4799089040873805   16.7580938679919562 -5.6872408698516788  0 0 0
165       8    2    0.0140440000000000   5.5487160064754395   16.9113613408239800 -4.2586229239751905  0 0 0
166       8    2    0.0140440000000000   5.9277250422681069   18.4694921015634961 -4.9848070258562451  0 0 0
167       8    2    0.0140440000000000   6.0926997179984701   17.3937767501674898 -7.2390062202351793  0 0 0
168       8    2    0.0140440000000000   5.7108825878795599   15.8161820611009247 -6.5094712975092630  0 0 0
169       8    1    0.0285690000000000   8.3313953457675041   16.4362861904119661 -8.0553336113515783  0 0 0
170       8    1    0.0285690000000000   8.0953153250849148   14.8611691419825842 -7.2324654773339923  0 0 0
171       8    1    0.0285690000000000   9.5008915837645898   15.8812284683398701 -6.8405935464081455  0 0 0
172       9    3   -0.1079060000000000   26.3210029175112368 -18.0980691940823597  15.3357865886786833 0 0 0
173       9    4   -0.0058890000000000   27.7498919102044432 -18.1373361302663554  15.8574163197935434 0 0 0
174       9    6   -0.0280880000000000   27.9722538231242943 -17.1185093854660586  16.9753271274442561 0 0 0
175       9    7    0.0768000000000000   29.4042242557471454 -17.1661370881399478  17.5080259918432013 0 0 0
176       9    5    0.1779090000000000   29.6445855889371011 -16.1577918205515019  18.6186381417133227 0 0 0
177       9    8   -0.0003600000000000   31.0342625352412576 -16.1213296082862172  19.1994070552128981 0 0 0
178       9    9   -0.3681440000000000   28.7607039848407737 -15.4154251245087508  19.0480766118655431 0 0 0
179       9    1    0.0285690000000000   26.2020502783842986 -18.8004683360120808  14.5045237282301311 0 0 0
180       9    1    0.0285690000000000   26.0596667231480303 -17.0984122469860758  14.9741549045885325 0 0 0
181       9    1    0.0285690000000000   25.6086336347448658 -18.3774524220164359  16.1187472234618454 0 0 0
182       9    2    0.0140440000000000   28.4381107118098946 -17.9337320514980583  15.0289834153132595 0 0 0
183       9    2    0.0140440000000000   27.9701380294959172 -19.1473576866658775  16.2220632824099056 0 0 0
184       9    2    0.0140440000000000   27.2679720604725553 -17.3092925158480071  17.7946033805224140 0 0 0
185       9    2    0.0140440000000000   27.7545427620022807 -16.1102671417467285  16.6011421238097583 0 0 0
186       9    2    0.0140440000000000   30.1107109713900662 -16.9497540566030551  16.6987497959230531 0 0 0
187       9    2    0.0140440000000000   29.6239798490977506 -18.1629938852969985  17.9062068179170986 0 0 0
188       9    1    0.0285690000000000   31.7645860343601001 -15.9688288993426983  18.4009306932543737 0 0 0
189       9    1    0.0285690000000000   31.2368107776449975 -17.0588144309570566  19.7227568080178237 0 0 0
190       9    1    0.0285690000000000   31.1163018297308440 -15.2922851824583255  19.9087171967330541 0 0 0
191       10   3   -0.1079060000000000  -5.1068198873216533  -40.3769740120243554  25.6129931641709341 0 0 0
192       10   4   -0.0058890000000000  -5.3417900819495268  -40.9147149370611416  27.0169115831957605 0 0 0
193       10   6   -0.0280880000000000  -5.6223268473882237  -39.7901904791978680  28.0138675486247806 0 0 0
194       10   7    0.0768000000000000  -5.8705703868314210  -40.3308706586450469  29.4219214846576556 0 0 0
195       10   5    0.1779090000000000  -6.1486583149559371  -39.2265334274515851  30.4274559100411750 0 0 0
196       10   8   -0.0003600000000000  -6.3932950433856810  -39.6624132252396464  31.8487179238456086 0 0 0
197       10   9   -0.3681440000000000  -6.1949686064817104  -38.0362005214821437  30.1148294061021282 0 0 0
198       10   1    0.0285690000000000  -4.8597073836367297  -41.1963040155049498  24.9302443201447907 0 0 0
199       10   1    0.0285690000000000  -4.2781501671304696  -39.6618178407898085  25.5973011635528920 0 0 0
200       10   1    0.0285690000000000  -6.0010306785409613  -39.8753784785355521  25.2291425156746527 0 0 0
201       10   2    0.0140440000000000  -4.4581322044534666  -41.4796232046965514  27.3353895599795322 0 0 0
202       10   2    0.0140440000000000  -6.1848164918623967  -41.6150476746812927  26.9954678520165814 0 0 0
203       10   2    0.0140440000000000  -6.4935655889169990  -39.2115312768683850  27.6826256948098894 0 0 0
204       10   2    0.0140440000000000  -4.7722828892786104  -39.0966308043442083  28.0329775407295223 0 0 0
205       10   2    0.0140440000000000  -4.9923167084588718  -40.8874100204724016  29.7680536446224515 0 0 0
206       10   2    0.0140440000000000  -6.7330686034826659  -41.0066273618763617  29.4182242679548871 0 0 0
207       10   1    0.0285690000000000  -5.5570568159791529  -40.2736904134637257  32.1969121316964006 0 0 0
208       10   1    0.0285690000000000  -7.3248127941153820  -40.2309627648904709  31.9018653418291116 0 0 0
209       10   1    0.0285690000000000  -6.4747162414075996  -38.7836790318173286  32.4955276242390880 0 0 0
210       11   3   -0.1079060000000000  -42.2448680643215226  5.0474693704245519   42.2028456701039403 0 0 0
211       11   4   -0.0058890000000000  -41.7214420711085197  5.1831320992652170   40.7805292229893936 0 0 0
212       11   6   -0.0280880000000000  -40.2784768598457532  5.6874596647472391   40.7544057492466152 0 0 0
213       11   7    0.0768000000000000  -39.7481832626361538  5.8121719720230818   39.3261861095299423 0 0 0
214       11   5    0.1779090000000000  -38.3153330128162040  6.3150102255754028   39.2805029730859090 0 0 0
215       11   8   -0.0003600000000000  -37.7089842975205229  6.4829696649123658   37.9115782486774080 0 0 0
216       11   9   -0.3681440000000000  -37.6616933349068930  6.5593087436033137   40.2953161611417130 0 0 0
217       11   1    0.0285690000000000  -43.2934879609770107  4.7331613039793936   42.1919378836321712 0 0 0
218       11   1    0.0285690000000000  -42.1825681435017970  5.9996543282527224   42.7393627893570027 0 0 0
219       11   1    0.0285690000000000  -41.6738138771897866  4.2996244979391252   42.7624683114941604 0 0 0
220       11   2    0.0140440000000000  -42.3657362042549295  5.8763445447922962   40.2275894501755289 0 0 0
221       11   2    0.0140440000000000  -41.7869822439722611  4.2097462575988631   40.2806854536129251 0 0 0
222       11   2    0.0140440000000000  -39.6380700355630609  5.0048973706293873   41.3267800996159309 0 0 0
223       11   2    0.0140440000000000  -40.2222584264161824  6.6637809414360802   41.2520011647474121 0 0 0
224       11   2    0.0140440000000000  -40.3690075837376412  6.5137594325621384   38.7576570825284747 0 0 0
225       11   2    0.0140440000000000  -39.7777868760906443  4.8367591149777649   38.8279318075102680 0 0 0
226       11   1    0.0285690000000000  -38.3447225059715180  7.1305361735435522   37.3027367853926464 0 0 0
227       11   1    0.0285690000000000  -37.6009888056053114  5.5048836467897786   37.4367274701384076 0 0 0
228       11   1    0.0285690000000000  -36.7221965826071184  6.9474163825253648   37.9993577160629386 0 0 0
229       12   3   -0.1079060000000000   5.3830482086231477   3.1527382728789437  -38.3991813178887185 0 0 0
230       12   4   -0.0058890000000000   5.7727011693570480   4.6091111535700788  -38.6053652762336270 0 0 0
231       12   6   -0.0280880000000000   5.5392113203336653   5.0584631049254254  -40.0478432290343562 0 0 0
232       12   7    0.0768000000000000   5.9189795216823589   6.5249195172178140  -40.2524342899116547 0 0 0
233       12   5    0.1779090000000000   5.6959588122137008   6.9886488570573491  -41.6818432443820299 0 0 0
234       12   8   -0.0003600000000000   6.0549671887476997   8.4202951349161808  -41.9840450967446159 0 0 0
235       12   9   -0.3681440000000000   5.2304319115254563   6.2560968441229923  -42.5555849992395068 0 0 0
236       12   1    0.0285690000000000   5.6060779117570476   2.8428208133536055  -37.3731593162233864 0 0 0
237       12   1    0.0285690000000000   5.9354190219815299   2.4958619108122875  -39.0787311856746413 0 0 0
238       12   1    0.0285690000000000   4.3122814461514940   3.0038102769360457  -38.5718988071896192 0 0 0
239       12   2    0.0140440000000000   6.8297324397791499   4.7362219460537078  -38.3447342021384898 0 0 0
240       12   2    0.0140440000000000   5.1912226550896587   5.2357561608901948  -37.9192034315889686 0 0 0
241       12   2    0.0140440000000000   4.4855585255060877   4.9101227539344627  -40.3151174536050760 0 0 0
242       12   2    0.0140440000000000   6.1281187860909441   4.4298620127638815  -40.7275590584871310 0 0 0
243       12   2    0.0140440000000000   6.9778577658615077   6.6730839864054392  -40.0122318522170417 0 0 0
244       12   2    0.0140440000000000   5.3189949441442428   7.1636631295198328  -39.5947192531671988 0 0 0
245       12   1    0.0285690000000000   7.0912461568850720   8.6105399900007953  -41.6939999700660735 0 0 0
246       12   1    0.0285690000000000   5.3819809878905653   9.0886007436807912  -41.4415916574987691 0 0 0
247       12   1    0.0285690000000000   5.9542969619572776   8.6074691265377901  -43.0573565077518765 0 0 0
248       13   3   -0.1079060000000000  -14.4673614559345936 -18.5784964518909419 -17.7076699882863018 0 0 0
249       13   4   -0.0058890000000000  -15.5062658684935908 -17.4875996878511728 -17.9221113412783737 0 0 0
250       13   6   -0.0280880000000000  -16.7424093010085393 -17.7040738665425081 -17.0490330662594154 0 0 0
251       13   7    0.0768000000000000  -17.7810915661957623 -16.6016914439165717 -17.2551105865543093 0 0 0
252       13   5    0.1779090000000000  -19.0185741985701888 -16.8018975913675028 -16.3968872300237862 0 0 0
253       13   8   -0.0003600000000000  -20.1065301563537524 -15.7697447838553622 -16.5412356098832838 0 0 0
254       13   9   -0.3681440000000000  -19.1374499344369831 -17.7388441264554970 -15.6064619325359502 0 0 0
255       13   1    0.0285690000000000  -13.6159827832772358 -18.4277024016855968 -18.3791815207761253 0 0 0
256       13   1    0.0285690000000000  -14.8869055539593411 -19.5690965991403303 -17.9103574111375501 0 0 0
257       13   1    0.0285690000000000  -14.0924376815944044 -18.5679009574642286 -16.6791408260199319 0 0 0
258       13   2    0.0140440000000000  -15.7972894251063032 -17.4744723926246870 -18.9787729619576169 0 0 0
259       13   2    0.0140440000000000  -15.0548529004955363 -16.5143052189159967 -17.6972924945075185 0 0 0
260       13   2    0.0140440000000000  -16.4473195463700002 -17.7393228025620111 -15.9929534612500088 0 0 0
261       13   2    0.0140440000000000  -17.1909101413125285 -18.6776567237404763 -17.2834437347812937 0 0 0
262       13   2    0.0140440000000000  -18.0989990795491380 -16.5799328191453235 -18.3036020897156568 0 0 0
263       13   2    0.0140440000000000  -17.3500328962665513 -15.6270252248033046 -17.0005950673844666 0 0 0
264       13   1    0.0285690000000000  -20.3978940134809221 -15.6842711166883895 -17.5909949800157932 0 0 0
265       13   1    0.0285690000000000  -19.7490888621359559 -14.8068098977705027 -16.1686894069115645 0 0 0
266       13   1    0.0285690000000000  -20.9828618421912587 -16.0734131003121803 -15.9607234974536869 0 0 0
267       14   3   -0.1079060000000000   18.0546072139229032 -19.2181019857866318 -26.4714172258961362 0 0 0
268       14   4   -0.0058890000000000   18.0294215947019083 -17.8424751417314660 -27.1213246751528274 0 0 0
269       14   6   -0.0280880000000000   17.1622195277286664 -17.8273331054192568 -28.3802562157354217 0 0 0
270       14   7    0.0768000000000000   17.1267594077436058 -16.4425662018637873 -29.0265835328186661 0 0 0