LAMMPS data file via vdw_self_gen.py, on 2021-08-05 13:21:00.516323

9000 atoms
10 atom types
8500 bonds
11 bond types
15500 angles
19 angle types
19500 dihedrals
16 dihedral types

-51.7959920546648078  51.7959920546648078 xlo xhi
-51.7959920546648078  51.7959920546648078 ylo yhi
-51.7959920546648078  51.7959920546648078 zlo zhi

Masses

1  1.007940
2  1.007940
3  1.007940
4  1.007940
5  12.011000
6  12.011000
7  12.011000
8  12.011000
9  12.011000
10  15.999400

Atoms

1         0    5   -0.1079060000000000  -29.5670966612579207 -8.3691830872280732  -29.2015115251520605 0 0 0
2         0    6   -0.0058890000000000  -28.8613675605669648 -7.0797942950263772  -29.5908982588533860 0 0 0
3         0    7   -0.0280880000000000  -29.0684959439783270 -5.9877378037486473  -28.5413700765049718 0 0 0
4         0    9   -0.0368270000000000  -28.3333747980048969 -4.7037863566929001  -28.9209562259442841 0 0 0
5         0    8    0.2691680000000000  -28.5450179329933817 -3.6063674422332608  -27.8858987289913500 0 0 0
6         0    10  -0.6441380000000000  -27.8451548794389119 -2.4329556686840066  -28.2773406112234476 0 0 0
7         0    1    0.0285690000000000  -29.4100748277001429 -9.1339460961289234  -29.9686712245648188 0 0 0
8         0    1    0.0285690000000000  -30.6449867401644340 -8.2107509199726820  -29.0952709831086835 0 0 0
9         0    1    0.0285690000000000  -29.1811986260310157 -8.7561662239445628  -28.2529505469829800 0 0 0
10        0    2    0.0140440000000000  -29.2423516219462236 -6.7401239082532785  -30.5610979258417750 0 0 0
11        0    2    0.0140440000000000  -27.7908042582734716 -7.2802603546315385  -29.7148760424633345 0 0 0
12        0    2    0.0140440000000000  -28.7090266892060555 -6.3410803373048008  -27.5672218909327817 0 0 0
13        0    2    0.0140440000000000  -30.1402807285208425 -5.7806862400375447  -28.4344319177965872 0 0 0
14        0    2    0.0140440000000000  -28.6720178217997166 -4.3465260584927563  -29.9014477563335319 0 0 0
15        0    2    0.0140440000000000  -27.2594427328102178 -4.9010381660251836  -29.0282770070718250 0 0 0
16        0    3   -0.0094320000000000  -28.1838376678901099 -3.9125835533398341  -26.8988564110035675 0 0 0
17        0    3   -0.0094320000000000  -29.6060993336935603 -3.3522397505526573  -27.7992618891988066 0 0 0
18        0    4    0.4025730000000000  -26.8992917223718884 -2.6567578470325861  -28.3195815246798901 0 0 0
19        1    5   -0.1079060000000000   6.8924020286045433   42.6615896063779658  29.6142522935635313 0 0 0
20        1    6   -0.0058890000000000   6.9115813671686093   41.3229076993041531  28.8933071125369523 0 0 0
21        1    7   -0.0280880000000000   5.5916379552338551   40.5719937921419316  29.0690246307882951 0 0 0
22        1    9   -0.0368270000000000   5.6034747622592729   39.2416487703006140  28.3186500074424288 0 0 0
23        1    8    0.2691680000000000   4.2958021157721653   38.4814281174716299  28.4989883589977175 0 0 0
24        1    10  -0.6441380000000000   4.3497980298628365   37.2532776324699455  27.7857835786915004 0 0 0
25        1    1    0.0285690000000000   7.8478085307264589   43.1784407702554063  29.4796580496238079 0 0 0
26        1    1    0.0285690000000000   6.7269156147017650   42.5275170916505800  30.6879718259407142 0 0 0
27        1    1    0.0285690000000000   6.0996794020628826   43.3066931489853317  29.2219852573696706 0 0 0
28        1    2    0.0140440000000000   7.7385737270849724   40.7170658013867666  29.2817031113163289 0 0 0
29        1    2    0.0140440000000000   7.1058861802607627   41.4921496506652403  27.8278186247489714 0 0 0
30        1    2    0.0140440000000000   4.7643726134997610   41.1918179033941669  28.7023041594808426 0 0 0
31        1    2    0.0140440000000000   5.4117760598116922   40.3915800776186984  30.1358560768879471 0 0 0
32        1    2    0.0140440000000000   6.4360680796005560   38.6165048598987966  28.6645706899784258 0 0 0
33        1    2    0.0140440000000000   5.7809565663334013   39.4125837079598114  27.2495206591828136 0 0 0
34        1    3   -0.0094320000000000   3.4428173839693690   39.0597592768646749  28.1296346728290239 0 0 0
35        1    3   -0.0094320000000000   4.1222131035077849   38.2502354812187946  29.5546385777555933 0 0 0
36        1    4    0.4025730000000000   4.4702205888689299   37.4666953773427949  26.8442528595135173 0 0 0
37        2    5   -0.1079060000000000   15.0105580190641703  41.8831849259679601 -5.6800478844936055  0 0 0
38        2    6   -0.0058890000000000   16.3024750245253216  41.3802195944710007 -6.3046880814969901  0 0 0
39        2    7   -0.0280880000000000   16.9887028557439272  40.3427667373391472 -5.4159913470650656  0 0 0
40        2    9   -0.0368270000000000   18.2701360804762949  39.8176503436438693 -6.0603528342168467  0 0 0
41        2    8    0.2691680000000000   18.9665938780051739  38.7921189621587033 -5.1750861883691952  0 0 0
42        2    10  -0.6441380000000000   20.1507323963521081  38.3308174576558258 -5.8114407456016464  0 0 0
43        2    1    0.0285690000000000   14.5399938529326000  42.6277608794833682 -6.3298388781211896  0 0 0
44        2    1    0.0285690000000000   15.1996395828938429  42.3509470781287121 -4.7086151499073798  0 0 0
45        2    1    0.0285690000000000   14.3003198771835702  41.0629459046321017 -5.5344082583749561  0 0 0
46        2    2    0.0140440000000000   16.9752384158480609  42.2293633770029615 -6.4724869980109130  0 0 0
47        2    2    0.0140440000000000   16.0804246761454941  40.9434999067330594 -7.2853166927594160  0 0 0
48        2    2    0.0140440000000000   16.3032924475484080  39.5069006941201337 -5.2300496660716833  0 0 0
49        2    2    0.0140440000000000   17.2227645520348283  40.7911602271975795 -4.4427559465673214  0 0 0
50        2    2    0.0140440000000000   18.9598912504921238  40.6455577371073673 -6.2664712775568896  0 0 0
51        2    2    0.0140440000000000   18.0452521800808725  39.3652447269062336 -7.0342688964558722  0 0 0
52        2    3   -0.0094320000000000   18.3209621730123224  37.9304368831455392 -4.9772586768457439  0 0 0
53        2    3   -0.0094320000000000   19.2509385111650637  39.2352013702320903 -4.2154994680311795  0 0 0
54        2    4    0.4025730000000000   19.8880365544846640  37.9081119593816638 -6.6474071193837192  0 0 0
55        3    5   -0.1079060000000000  -28.8690176535988883 -30.3558967286016603 -31.0416348351072315 0 0 0
56        3    6   -0.0058890000000000  -29.4019751238427709 -29.8542717698071201 -29.7087703314814497 0 0 0
57        3    7   -0.0280880000000000  -28.4557538519037365 -28.8352261418900895 -29.0737819334352707 0 0 0
58        3    9   -0.0368270000000000  -29.0087321400701512 -28.3110854975063866 -27.7499572999503208 0 0 0
59        3    8    0.2691680000000000  -28.0654551333843969 -27.3039916551674828 -27.1046235926476378 0 0 0
60        3    10  -0.6441380000000000  -28.6176327752438979 -26.8429988308564127 -25.8788521217101817 0 0 0
61        3    1    0.0285690000000000  -29.5586611013518841 -31.0872637527176892 -31.4747012404159605 0 0 0
62        3    1    0.0285690000000000  -27.8945348020505328 -30.8391006064132078 -30.9186225954475944 0 0 0
63        3    1    0.0285690000000000  -28.7570175118875824 -29.5322191350867698 -31.7539917408771935 0 0 0
64        3    2    0.0140440000000000  -29.5389198516476803 -30.7062327733426130 -29.0325892828848175 0 0 0
65        3    2    0.0140440000000000  -30.3882101829144169 -29.4017113951605218 -29.8643094958667561 0 0 0
66        3    2    0.0140440000000000  -28.3017143835137546 -27.9967019831593227 -29.7638419714051530 0 0 0
67        3    2    0.0140440000000000  -27.4762996747544470 -29.2994477097302806 -28.9058635156937633 0 0 0
68        3    2    0.0140440000000000  -29.1825074918246230 -29.1413958328731262 -27.0542098360628884 0 0 0
69        3    2    0.0140440000000000  -29.9882172726147864 -27.8429155309478418 -27.9086452469928652 0 0 0
70        3    3   -0.0094320000000000  -27.8966205311952145 -26.4401426461631814 -27.7555704375173988 0 0 0
71        3    3   -0.0094320000000000  -27.0963168214411816 -27.7631060637986700 -26.8856134177444872 0 0 0
72        3    4    0.4025730000000000  -29.4623342434081295 -26.4062124934257092 -26.0843416514071080 0 0 0
73        4    5   -0.1079060000000000   38.3784226905288151 -17.1828170338731745 -30.7746947362304226 0 0 0
74        4    6   -0.0058890000000000   39.7666927665187302 -16.9337476502846513 -30.2064785030323826 0 0 0
75        4    7   -0.0280880000000000   39.8533771949228921 -17.3446256549952942 -28.7365587678028582 0 0 0
76        4    9   -0.0368270000000000   41.2572049002440977 -17.1212698761550932 -28.1776311943809823 0 0 0
77        4    8    0.2691680000000000   41.3485959204674955 -17.5168693717588653 -26.7094303113610287 0 0 0
78        4    10  -0.6441380000000000   42.6682622909934253 -17.2938206393743314 -26.2312460741840177 0 0 0
79        4    1    0.0285690000000000   38.3380206461928310 -16.8767267558972378 -31.8248036529348219 0 0 0
80        4    1    0.0285690000000000   37.6211006894567035 -16.6142584072637831 -30.2256598544604316 0 0 0
81        4    1    0.0285690000000000   38.1175277659551384 -18.2446369716530334 -30.7207185464346892 0 0 0
82        4    2    0.0140440000000000   40.0124012683442842 -15.8704355523393978 -30.3104349121369196 0 0 0
83        4    2    0.0140440000000000   40.5012277843080852 -17.4955328832789334 -30.7951367873797182 0 0 0
84        4    2    0.0140440000000000   39.5824850384874694 -18.4025073130412657 -28.6339058781617126 0 0 0
85        4    2    0.0140440000000000   39.1276079792668057 -16.7670916048084457 -28.1511168742893076 0 0 0
86        4    2    0.0140440000000000   41.5481460862736753 -16.0691622966898855 -28.2876335893711719 0 0 0
87        4    2    0.0140440000000000   41.9902057210506428 -17.6971045025572913 -28.7563197001707209 0 0 0
88        4    3   -0.0094320000000000   41.1008327585778233 -18.5732111410031884 -26.5637336735817193 0 0 0
89        4    3   -0.0094320000000000   40.6643536028338772 -16.9169781828331089 -26.1012168810517089 0 0 0
90        4    4    0.4025730000000000   43.2674236608845035 -17.8551564901818551 -26.7532006096834643 0 0 0
91        5    5   -0.1079060000000000  -39.7182135543634374  37.9213756596896161  4.4402440055490127  0 0 0
92        5    6   -0.0058890000000000  -39.3575007564705004  39.1178186210350063  5.3066212715730563  0 0 0
93        5    7   -0.0280880000000000  -40.5395012049505468  40.0747425869812446  5.4620896480702754  0 0 0
94        5    9   -0.0368270000000000  -40.1828119923109028  41.2596856975204034  6.3574681673973066  0 0 0
95        5    8    0.2691680000000000  -41.3519878988275025  42.2245754628520231  6.5074033293153128  0 0 0
96        5    10  -0.6441380000000000  -40.9776319538679417  43.3089873251807376  7.3463543234229505  0 0 0
97        5    1    0.0285690000000000  -38.8569142259600540  37.2536835394330481  4.3382488103721197  0 0 0
98        5    1    0.0285690000000000  -40.0223013479308207  38.2392524056218974  3.4378868761790282  0 0 0
99        5    1    0.0285690000000000  -40.5397538008220835  37.3497356514275083  4.8837983938744580  0 0 0
100       5    2    0.0140440000000000  -38.5087821056305799  39.6454025765350764  4.8559062373048674  0 0 0
101       5    2    0.0140440000000000  -39.0327063059701160  38.7625249878177343  6.2914755324763743  0 0 0
102       5    2    0.0140440000000000  -41.3942473871202736  39.5368099191350240  5.8899578375049826  0 0 0
103       5    2    0.0140440000000000  -40.8485295634895493  40.4390059308933942  4.4747485549820594  0 0 0
104       5    2    0.0140440000000000  -39.3187475103439681  41.7988813664804795  5.9496222884455463  0 0 0
105       5    2    0.0140440000000000  -39.8741115096985865  40.9046926749140525  7.3486493178111534  0 0 0
106       5    3   -0.0094320000000000  -42.2242036070810371  41.7306235096123146  6.9475433686964774  0 0 0
107       5    3   -0.0094320000000000  -41.6444409271502209  42.6358387971990354  5.5361596623363907  0 0 0
108       5    4    0.4025730000000000  -40.7515031133191883  42.9402520529787068  8.2178064840182277  0 0 0
109       6    5   -0.1079060000000000   26.4136944993943281  4.4978998630016331   17.9598944111021517 0 0 0
110       6    6   -0.0058890000000000   27.9250688548872006  4.6637092011927344   17.9811986437124780 0 0 0
111       6    7   -0.0280880000000000   28.3747308057359895  5.8248256267685496   17.0942873014031740 0 0 0
112       6    9   -0.0368270000000000   29.8904488847222112  6.0074756873074229   17.1418028032887335 0 0 0
113       6    8    0.2691680000000000   30.3478409605032375  7.1551407056940945   16.2506672316812235 0 0 0
114       6    10  -0.6441380000000000   31.7607383573799886  7.2897431940545925   16.3250537037447572 0 0 0
115       6    1    0.0285690000000000   26.1153060180242669  3.6588536358373793   18.5963047058547595 0 0 0
116       6    1    0.0285690000000000   26.0542552404152161  4.2993482233426388   16.9451947057246031 0 0 0
117       6    1    0.0285690000000000   25.9152562735895735  5.3991043740833025   18.3311503002980700 0 0 0
118       6    2    0.0140440000000000   28.3938228547535125  3.7328854643906828   17.6411264762020998 0 0 0
119       6    2    0.0140440000000000   28.2526839954499387  4.8336932420813206   19.0133985573034643 0 0 0
120       6    2    0.0140440000000000   27.8841086697150615  6.7493780427757066   17.4221996804034234 0 0 0
121       6    2    0.0140440000000000   28.0581678821893341  5.6403350481431165   16.0604691906921815 0 0 0
122       6    2    0.0140440000000000   30.3953664170951114  5.0844635114240422   16.8307007813192264 0 0 0
123       6    2    0.0140440000000000   30.2162263501942441  6.1946026435088193   18.1726319124302087 0 0 0
124       6    3   -0.0094320000000000   29.8926530526450556  8.1032689542829086   16.5545238111189370 0 0 0
125       6    3   -0.0094320000000000   30.0822869693987940  6.9664347315853501   15.2057501547109108 0 0 0
126       6    4    0.4025730000000000   31.9872644605550036  7.4908219598553138   17.2495979569984357 0 0 0
127       7    5   -0.1079060000000000  -27.9047905930448863  42.2281396875611748 -42.0493888304581205 0 0 0
128       7    6   -0.0058890000000000  -28.4291071320684523  41.7452758722250081 -40.7062083689618532 0 0 0
129       7    7   -0.0280880000000000  -28.7050201811874111  40.2417126881037319 -40.7191965782675851 0 0 0
130       7    9   -0.0368270000000000  -29.2027546617873135  39.7549866261798428 -39.3596458473399125 0 0 0
131       7    8    0.2691680000000000  -29.4918267840631003  38.2593818518320887 -39.3679391863034382 0 0 0
132       7    10  -0.6441380000000000  -29.9508523449932902  37.8499337870293573 -38.0866983627881979 0 0 0
133       7    1    0.0285690000000000  -27.7197781076747667  43.3065102914494844 -42.0187368920734485 0 0 0
134       7    1    0.0285690000000000  -28.6270616826840119  42.0298581888804108 -42.8476643135793509 0 0 0
135       7    1    0.0285690000000000  -26.9641637406760566  41.7298472735058823 -42.3050584721789420 0 0 0
136       7    2    0.0140440000000000  -29.3486755491012019  42.2899499050264822 -40.4622076622258646 0 0 0
137       7    2    0.0140440000000000  -27.6947611506411988  41.9834159453666373 -39.9279486428898096 0 0 0
138       7    2    0.0140440000000000  -27.7888146986229536  39.7020825927859207 -40.9882702717906184 0 0 0
139       7    2    0.0140440000000000  -29.4524468591844766  40.0128393190577754 -41.4886113468806030 0 0 0
140       7    2    0.0140440000000000  -30.1113159423096235  40.2974876697797058 -39.0700138797866856 0 0 0
141       7    2    0.0140440000000000  -28.4600772219610896  39.9781185905773739 -38.5835025269169023 0 0 0
142       7    3   -0.0094320000000000  -28.5966748567934701  37.6804487399210544 -39.6169602840812516 0 0 0
143       7    3   -0.0094320000000000  -30.2708574458713748  38.0174188177307855 -40.0976964628626149 0 0 0
144       7    4    0.4025730000000000  -29.2409415939834112  38.0364809182945933 -37.4481408359221319 0 0 0
145       8    5   -0.1079060000000000   19.3962616138008102  16.3402611544026577  15.7670839728567316 0 0 0
146       8    6   -0.0058890000000000   18.0757782035232921  16.1750892229553109  16.5027746997547844 0 0 0
147       8    7   -0.0280880000000000   17.6425175582785378  17.4768192130546680  17.1771508552185033 0 0 0
148       8    9   -0.0368270000000000   16.3011289368495333  17.3153755837833891  17.8896342468624567 0 0 0
149       8    8    0.2691680000000000   15.8682834807794588  18.6051993974986587  18.5748090078778390 0 0 0
150       8    10  -0.6441380000000000   14.6185774943523601  18.4108053091929307  19.2231731934402781 0 0 0
151       8    1    0.0285690000000000   19.6892844307721617  15.3960393830547826  15.2973657640901788 0 0 0
152       8    1    0.0285690000000000   20.1941291453140437  16.6400730641781038  16.4539282401501197 0 0 0
153       8    1    0.0285690000000000   19.3152723236863153  17.0988025927406007  14.9819108758832336 0 0 0
154       8    2    0.0140440000000000   18.1792804976421571  15.3836017168086556  17.2542046853328692 0 0 0
155       8    2    0.0140440000000000   17.3075502775107175  15.8491635947351597  15.7919573852050412 0 0 0
156       8    2    0.0140440000000000   17.5645504018981953  18.2719619423589457  16.4256836628803988 0 0 0
157       8    2    0.0140440000000000   18.4077135303201551  17.7881846780393786  17.8986461190880135 0 0 0
158       8    2    0.0140440000000000   16.3596365588729853  16.5120183181488862  18.6345313010366880 0 0 0
159       8    2    0.0140440000000000   15.5285851072152088  17.0057015041222357  17.1747677539563064 0 0 0
160       8    3   -0.0094320000000000   15.7623140731565172  19.4238781551037505  17.8557765992937583 0 0 0
161       8    3   -0.0094320000000000   16.5975492302963303  18.9069298066128866  19.3331696024483684 0 0 0
162       8    4    0.4025730000000000   13.9675394637200903  18.1760476911978550  18.5393843626132906 0 0 0
163       9    5   -0.1079060000000000   38.1020349910990319  30.1463868458126640 -39.2890432633526316 0 0 0
164       9    6   -0.0058890000000000   39.5618237752270616  30.0227334860944950 -39.6963829272259119 0 0 0
165       9    7   -0.0280880000000000   39.8942353971206103  28.6078332190847746 -40.1702591778926035 0 0 0
166       9    9   -0.0368270000000000   41.3535230494518800  28.4951626924262165 -40.6070714518455418 0 0 0
167       9    8    0.2691680000000000   41.6959986485748360  27.0846231206351007 -41.0691901517665841 0 0 0
168       9    10  -0.6441380000000000   43.0594442656857979  27.0249581148839226 -41.4659096590631293 0 0 0
169       9    1    0.0285690000000000   37.8883208437798373  31.1644636233980741 -38.9486049303509816 0 0 0
170       9    1    0.0285690000000000   37.8619773471166994  29.4577150312425573 -38.4727477984734136 0 0 0
171       9    1    0.0285690000000000   37.4397505416297776  29.9246963094261176 -40.1320579637391930 0 0 0
172       9    2    0.0140440000000000   40.1970057415731077  30.2879164104623619 -38.8431337802867134 0 0 0
173       9    2    0.0140440000000000   39.7736207476533394  30.7433231854090359 -40.4948536178669869 0 0 0
174       9    2    0.0140440000000000   39.2395037541137199  28.3371989723932103 -41.0075866877495230 0 0 0
175       9    2    0.0140440000000000   39.6957258189970617  27.8942336423790636 -39.3613102699147106 0 0 0
176       9    2    0.0140440000000000   42.0207155078368331  28.7780089796655894 -39.7833422119437543 0 0 0
177       9    2    0.0140440000000000   41.5609311514976483  29.2045346876292840 -41.4179532919599822 0 0 0
178       9    3   -0.0094320000000000   41.0743979390940197  26.7796546028856781 -41.9171752868100356 0 0 0
179       9    3   -0.0094320000000000   41.5492588653859727  26.3631589232885979 -40.2592905205919180 0 0 0
180       9    4    0.4025730000000000   43.1756203794700681  27.6433186995313136 -42.2079757744736952 0 0 0
181       10   5   -0.1079060000000000   3.6008571508983920  -27.8734651597700491  15.7865480672373906 0 0 0
182       10   6   -0.0058890000000000   4.5963881904263975  -27.7887663462799424  16.9328216426676335 0 0 0
183       10   7   -0.0280880000000000   5.5385468419219910  -28.9925560364687804  16.9478685728216618 0 0 0
184       10   9   -0.0368270000000000   6.5563182729071325  -28.8891558405385815  18.0820950829385829 0 0 0
185       10   8    0.2691680000000000   7.4912860690991732  -30.0914199805141926  18.1114424884885672 0 0 0
186       10   10  -0.6441380000000000   8.4196612603775627  -29.9542731534688365  19.1787945781245028 0 0 0
187       10   1    0.0285690000000000   2.9340184341510778  -27.0055750083383685  15.7985951122979689 0 0 0
188       10   1    0.0285690000000000   2.9859204807067097  -28.7755802154686293  15.8657701887409548 0 0 0
189       10   1    0.0285690000000000   4.1158661457904397  -27.8920036726210547  14.8206996165363769 0 0 0
190       10   2    0.0140440000000000   4.0491269760609132  -27.7330575474229555  17.8810905462393563 0 0 0
191       10   2    0.0140440000000000   5.1752405189150332  -26.8627594981022106  16.8374056323170436 0 0 0
192       10   2    0.0140440000000000   6.0653953342137399  -29.0591253264618636  15.9881639440948167 0 0 0
193       10   2    0.0140440000000000   4.9542234408354702  -29.9139625559140434  17.0601402658989194 0 0 0
194       10   2    0.0140440000000000   6.0430361009158409  -28.8063289485664882  19.0482000344227274 0 0 0
195       10   2    0.0140440000000000   7.1472002623790027  -27.9707157982909003  17.9768217704903037 0 0 0
196       10   3   -0.0094320000000000   8.0507195610252058  -30.1858928566415656  17.1751834047475000 0 0 0
197       10   3   -0.0094320000000000   6.9299124875401006  -31.0174441687073177  18.2705634154869117 0 0 0
198       10   4    0.4025730000000000   8.9382665811654380  -29.1478384330723230  19.0137479644376235 0 0 0
199       11   5   -0.1079060000000000   3.2057261702133175   28.0152913205522154 -5.0041046362943833  0 0 0
200       11   6   -0.0058890000000000   4.7212947089046260   28.0046990718075151 -4.8810645688545513  0 0 0
201       11   7   -0.0280880000000000   5.3789565687783414   28.8461657972417953 -5.9748714900953823  0 0 0
202       11   9   -0.0368270000000000   6.8994632760453580   28.8578258852615157 -5.8301529425510452  0 0 0
203       11   8    0.2691680000000000   7.5632082712581630   29.6844090211142344 -6.9240761634645871  0 0 0
204       11   10  -0.6441380000000000   8.9738479454191875   29.6685519062453373 -6.7515232939117880  0 0 0
205       11   1    0.0285690000000000   2.7570159186107617   27.4030260619362416 -4.2155346117571266  0 0 0
206       11   1    0.0285690000000000   2.8869260918917443   27.6117909943385200 -5.9704321291287812  0 0 0
207       11   1    0.0285690000000000   2.8118872085305111   29.0323120548890401 -4.9092317255685876  0 0 0
208       11   2    0.0140440000000000   5.0798119918276239   26.9704711984035406 -4.9414821508964852  0 0 0
209       11   2    0.0140440000000000   5.0036567337222504   28.3888210326269572 -3.8939551918060324  0 0 0
210       11   2    0.0140440000000000   4.9987273072509399   29.8738544494989142 -5.9267516262106819  0 0 0
211       11   2    0.0140440000000000   5.1056561639264775   28.4464141312228200 -6.9590128612524156  0 0 0
212       11   2    0.0140440000000000   7.2929837752031395   27.8341735073601271 -5.8610573978847356  0 0 0
213       11   2    0.0140440000000000   7.1824195958179473   29.2582933790981272 -4.8486654925645620  0 0 0
214       11   3   -0.0094320000000000   7.2227199993012707   30.7246164239414661 -6.9015301247165386  0 0 0
215       11   3   -0.0094320000000000   7.3404674123404465   29.2719075967618849 -7.9131209800810485  0 0 0
216       11   4    0.4025730000000000   9.1672149702875103   30.0672967143478402 -5.8854167222909082  0 0 0
217       12   5   -0.1079060000000000  -28.0670783752462683 -8.3401153581202720  -39.6096219930077424 0 0 0
218       12   6   -0.0058890000000000  -28.5530729229528859 -6.9345785554011217  -39.2926446354544865 0 0 0
219       12   7   -0.0280880000000000  -28.5743991394736447 -6.0532425649024866  -40.5415605722735677 0 0 0
220       12   9   -0.0368270000000000  -29.0916363618185478 -4.6513140457460391  -40.2252029494845900 0 0 0
221       12   8    0.2691680000000000  -29.1042867068079936 -3.7629224372224925  -41.4625652372065829 0 0 0
222       12   10  -0.6441380000000000  -29.5915547426409837 -2.4714823397203505  -41.1239170908671881 0 0 0
223       12   1    0.0285690000000000  -28.0547228923214647 -8.9508608015415501  -38.7013876257974729 0 0 0
224       12   1    0.0285690000000000  -27.0527299390935916 -8.3219793761934735  -40.0207219356423565 0 0 0
225       12   1    0.0285690000000000  -28.7243215922227755 -8.8273652392245765  -40.3369871544653193 0 0 0
226       12   2    0.0140440000000000  -27.8976034358335738 -6.4897527153334469  -38.5348175153514703 0 0 0
227       12   2    0.0140440000000000  -29.5581971745304166 -6.9919474976104778  -38.8589431719332268 0 0 0
228       12   2    0.0140440000000000  -29.2112113957947557 -6.5145107328976373  -41.3062406400101523 0 0 0
229       12   2    0.0140440000000000  -27.5629675964999876 -5.9868421330396160  -40.9606380838705775 0 0 0
230       12   2    0.0140440000000000  -28.4727868113232390 -4.1828684846663604  -39.4497923166218882 0 0 0
231       12   2    0.0140440000000000  -30.1043901073868270 -4.7078007261910635  -39.8069981996673334 0 0 0
232       12   3   -0.0094320000000000  -29.7432713471293866 -4.1798197224520681  -42.2476558759875758 0 0 0
233       12   3   -0.0094320000000000  -28.0944732436189426 -3.6459208024999996  -41.8682349940709670 0 0 0
234       12   4    0.4025730000000000  -30.5012167619527901 -2.5786605765665778  -40.7959587735948475 0 0 0
235       13   5   -0.1079060000000000   3.2057227669122326  -16.8398244935726815 -18.2456018325984957 0 0 0
236       13   6   -0.0058890000000000   4.6353700570631737  -16.4198893317903298 -17.9423492397606452 0 0 0
237       13   7   -0.0280880000000000   5.4004230713165686  -17.5219293098098383 -17.2094094570168359 0 0 0
238       13   9   -0.0368270000000000   6.8446339011284110  -17.1083592285932475 -16.9333027213571512 0 0 0
239       13   8    0.2691680000000000   7.6104337053818893  -18.1966928826167624 -16.1919892723187822 0 0 0
240       13   10  -0.6441380000000000   8.9459802345602668  -17.7714402249259678 -15.9566047428218472 0 0 0
241       13   1    0.0285690000000000   2.6761010536295133  -16.0348006769666505 -18.7647259178772785 0 0 0
242       13   1    0.0285690000000000   2.6592167870088352  -17.0676578572005511 -17.3249183913724423 0 0 0
243       13   1    0.0285690000000000   3.1854154840921680  -17.7273258524681943 -18.8862032088248348 0 0 0
244       13   2    0.0140440000000000   4.6209896845166609  -15.5087603696833689 -17.3328827191089268 0 0 0
245       13   2    0.0140440000000000   5.1438055951737027  -16.1738105710339894 -18.8818179530187678 0 0 0
246       13   2    0.0140440000000000   5.3908578092104236  -18.4388541153429664 -17.8112326747136009 0 0 0
247       13   2    0.0140440000000000   4.8956399309861736  -17.7514334202434760 -16.2630741101485938 0 0 0
248       13   2    0.0140440000000000   6.8700151853612343  -16.1830049332128141 -16.3444454569613455 0 0 0
249       13   2    0.0140440000000000   7.3583783348524676  -16.8785725791628991 -17.8751205697551896 0 0 0
250       13   3   -0.0094320000000000   7.6391896843438456  -19.1278323450550580 -16.7669887708090499 0 0 0
251       13   3   -0.0094320000000000   7.1481687728040777  -18.4064538752166591 -15.2223027133254387 0 0 0
252       13   4    0.4025730000000000   9.3616420509879745  -17.6193102610934282 -16.8229825761996032 0 0 0
253       14   5   -0.1079060000000000   26.3548736174252980  27.4864448639906911 -39.9395219771154686 0 0 0
254       14   6   -0.0058890000000000   27.7999261601351506  27.7898279583836896 -39.5762302262535783 0 0 0
255       14   7   -0.0280880000000000   28.4328033843248491  28.7702768748007713 -40.5637449321180057 0 0 0
256       14   9   -0.0368270000000000   29.8745254143190664  29.0960428061919174 -40.1786031287855607 0 0 0
257       14   8    0.2691680000000000   30.5163990184951217  30.0632087220887954 -41.1650378604274536 0 0 0
258       14   10  -0.6441380000000000   31.8534257949826518  30.3386351176452500 -40.7695256219491284 0 0 0
259       14   1    0.0285690000000000   25.9243130024186961  26.7794081231196337 -39.2234431237315917 0 0 0
260       14   1    0.0285690000000000   26.2852392028602537  27.0435082056936302 -40.9381174866411328 0 0 0
261       14   1    0.0285690000000000   25.7473739144329201  28.3970190710917372 -39.9240334256510110 0 0 0
262       14   2    0.0140440000000000   28.3714551858205724  26.8544168755333459 -39.5630811053773357 0 0 0
263       14   2    0.0140440000000000   27.8351412506675473  28.2058279601171087 -38.5626391785146154 0 0 0
264       14   2    0.0140440000000000   27.8436457530298966  29.6949963720568455 -40.5923965547841092 0 0 0
265       14   2    0.0140440000000000   28.4091238550180627  28.3408276312302050 -41.5727252943096914 0 0 0
266       14   2    0.0140440000000000   30.4729266263244050  28.1777193094967551 -40.1308998344742918 0 0 0
267       14   2    0.0140440000000000   29.9077949013640918  29.5282552957522313 -39.1707134462806650 0 0 0
268       14   3   -0.0094320000000000   29.9670425765648432  31.0089358266149659 -41.2127848139873336 0 0 0
269       14   3   -0.0094320000000000   30.5449483149418661  29.6319274620767317 -42.1706033615435274 0 0 0
270       14   4    0.4025730000000000   31.8189625735227821  30.7526420707637946 -39.8897873933628517 0 0 0