LAMMPS data file via vdw_self_gen.py, on 2021-08-05 13:21:02.558539

4000 atoms
3 atom types
3500 bonds
3 bond types
6000 angles
4 angle types
4500 dihedrals
3 dihedral types

-40.7175204114004572  40.7175204114004501 xlo xhi
-40.7175204114004572  40.7175204114004501 ylo yhi
-40.7175204114004572  40.7175204114004501 zlo zhi

Masses

1  1.007940
2  79.904000
3  12.011000

Atoms

1         0    2   -0.1647530000000000  -30.7663827083301271  14.6543104740888843  20.7878861605662308 0 0 0
2         0    3   -0.0473850000000000  -31.5568919457737280  14.3138130262425101  22.5346487632190460 0 0 0
3         0    3   -0.0473850000000000  -31.7813849043316736  12.8311925764780863  22.7070788336773006 0 0 0
4         0    2   -0.1647530000000000  -32.5727572069393361  12.4907765138236346  24.4534676784230207 0 0 0
5         0    1    0.1060690000000000  -32.4901506864743723  14.8832897808358275  22.5713379753081362 0 0 0
6         0    1    0.1060690000000000  -30.8619447199458570  14.7186792369847108  23.2761131376925583 0 0 0
7         0    1    0.1060690000000000  -30.8480433089571378  12.2618108907711978  22.6709124953873697 0 0 0
8         0    1    0.1060690000000000  -32.4759048568505904  12.4261819311763091  21.9653123397283281 0 0 0
9         1    2   -0.1647530000000000   14.5599772532139280 -5.7581919378750772  -2.8368121352498807  0 0 0
10        1    3   -0.0473850000000000   13.6338285042561118 -4.3384499964714740  -3.7952505897806836  0 0 0
11        1    3   -0.0473850000000000   13.5111005699881837 -4.7099304186274553  -5.2530683993183303  0 0 0
12        1    2   -0.1647530000000000   12.5857786308973676 -3.2897707789039026  -6.2116888251582392  0 0 0
13        1    1    0.1060690000000000   14.2199224241649098 -3.4269886428283662  -3.6457384924071965  0 0 0
14        1    1    0.1060690000000000   12.6594566705030456 -4.2198751051694687  -3.3123662986286480  0 0 0
15        1    1    0.1060690000000000   12.9245514321900785 -5.6211055768715417  -5.4025675018145263  0 0 0
16        1    1    0.1060690000000000   14.4854389451875392 -4.8290390200531350  -5.7358592344429109  0 0 0
17        2    2   -0.1647530000000000  -12.5664564441376996 -32.1134744769762506  20.5872392589863225 0 0 0
18        2    3   -0.0473850000000000  -13.4429313618016639 -31.1843896826901208  22.0571426980707521 0 0 0
19        2    3   -0.0473850000000000  -13.7019960341910583 -32.1539535212944472  23.1845840819531368 0 0 0
20        2    2   -0.1647530000000000  -14.5793141943493954 -31.2250802277835469  24.6541195407150617 0 0 0
21        2    1    0.1060690000000000  -14.3664118505605778 -30.7604256241320186  21.6520994740408419 0 0 0
22        2    1    0.1060690000000000  -12.7757874370920206 -30.3697393509683131  22.3536246277874895 0 0 0
23        2    1    0.1060690000000000  -12.7784552469679866 -32.5774896929258446  23.5899475822281524 0 0 0
24        2    1    0.1060690000000000  -14.3687018613008153 -32.9689077608322876  22.8880001202202337 0 0 0
25        3    2   -0.1647530000000000  -23.2584864737010193 -11.3737291550433994  31.3468885541747930 0 0 0
26        3    3   -0.0473850000000000  -22.5582896799344397 -13.1642697798365287  31.0375155148445749 0 0 0
27        3    3   -0.0473850000000000  -22.6834871135745040 -13.9807729717702856  32.3008210027895686 0 0 0
28        3    2   -0.1647530000000000  -21.9824342311900978 -15.7710275454089448  31.9917245263191923 0 0 0
29        3    1    0.1060690000000000  -21.5180309619957413 -13.0424558979566498  30.7218496672558743 0 0 0
30        3    1    0.1060690000000000  -23.1356511502051632 -13.5865834319346970  30.2099029087308608 0 0 0
31        3    1    0.1060690000000000  -23.7238011833308278 -14.1030066158752447  32.6161551338566937 0 0 0
32        3    1    0.1060690000000000  -22.1065765900702296 -13.5582090325754656  33.1286030296312717 0 0 0
33        4    2   -0.1647530000000000  -12.7183015527283558  24.6839413091609856  5.1233761510904934  0 0 0
34        4    3   -0.0473850000000000  -13.9112316325493293  23.2926718416768495  4.4651132476812867  0 0 0
35        4    3   -0.0473850000000000  -13.2338190814098819  21.9490075850868607  4.5833131496322519  0 0 0
36        4    2   -0.1647530000000000  -14.4263881939175924  20.5578374334797829  3.9241836211857257  0 0 0
37        4    1    0.1060690000000000  -14.1485426092892439  23.5495900755542422  3.4286296391181450  0 0 0
38        4    1    0.1060690000000000  -14.8232849030750806  23.3534128335189912  5.0660351041096527  0 0 0
39        4    1    0.1060690000000000  -12.9970053110069408  21.6918964752541541  5.6198666489983671  0 0 0
40        4    1    0.1060690000000000  -12.3214811464247909  21.8883998302701279  3.9828339149844645  0 0 0
41        5    2   -0.1647530000000000   23.1937513035645182  11.8344387788857652 -12.1597148294400448 0 0 0
42        5    3   -0.0473850000000000   22.5831043420042903  12.8325851062490699 -13.7162613767711523 0 0 0
43        5    3   -0.0473850000000000   22.6586751332292593  14.3124296855503665 -13.4287866955795714 0 0 0
44        5    2   -0.1647530000000000   22.0471459985040212  15.3105616687010553 -14.9849974382792546 0 0 0
45        5    1    0.1060690000000000   21.5611345541419155  12.4995523472705585 -13.9194575468721169 0 0 0
46        5    1    0.1060690000000000   23.2275045462818674  12.5368457693347519 -14.5492825861220876 0 0 0
47        5    1    0.1060690000000000   23.6807371346319187  14.6455133075303134 -13.2261179812758805 0 0 0
48        5    1    0.1060690000000000   22.0147043716442035  14.6081277668792779 -12.5954359760611077 0 0 0
49        6    2   -0.1647530000000000  -32.3918489797529787  24.4972310115495162  3.3831118992458644  0 0 0
50        6    3   -0.0473850000000000  -31.9890692565069976  23.2397380550667094  4.8143711054828051  0 0 0
51        6    3   -0.0473850000000000  -31.3492090478113994  22.0019919907716144  4.2339779548081671  0 0 0
52        6    2   -0.1647530000000000  -30.9472794881456110  20.7441029829231489  5.6651296194128973  0 0 0
53        6    1    0.1060690000000000  -32.9370711258675755  23.0226095664992627  5.3151399389192253  0 0 0
54        6    1    0.1060690000000000  -31.3279505336791360  23.7620889974084548  5.5120166037562086  0 0 0
55        6    1    0.1060690000000000  -30.4009476776862577  22.2190902327700144  3.7336792750681642  0 0 0
56        6    1    0.1060690000000000  -32.0100842281528770  21.4799045470132768  3.5359250801070523  0 0 0
57        7    2   -0.1647530000000000  -22.0851340957502842  11.3500906032687041 -13.9174184423809617 0 0 0
58        7    3   -0.0473850000000000  -22.0755719421185574  13.1741018706364574 -13.2355721120151095 0 0 0
59        7    3   -0.0473850000000000  -23.1661784514529927  13.9708857477758297 -13.9093714223650906 0 0 0
60        7    2   -0.1647530000000000  -23.1560166943808241  15.7951503827786439 -13.2282088174965633 0 0 0
61        7    1    0.1060690000000000  -21.0792632141251168  13.5778469004816600 -13.4380088152074784 0 0 0
62        7    1    0.1060690000000000  -22.2193932340684732  13.1036408674315084 -12.1534499391948643 0 0 0
63        7    1    0.1060690000000000  -24.1625085256743581  13.5674151695571261 -13.7064726362329061 0 0 0
64        7    1    0.1060690000000000  -23.0226912264314123  14.0409228884712274 -14.9915522455082488 0 0 0
65        8    2   -0.1647530000000000   20.5464836761551943  13.8391172187227980  32.6545905647033976 0 0 0
66        8    3   -0.0473850000000000   22.4538224743775459  13.5367328837270513  32.4042999750983043 0 0 0
67        8    3   -0.0473850000000000   22.7878829816995463  13.6083754261365613  30.9340742987938526 0 0 0
68        8    2   -0.1647530000000000   24.6950643452910370  13.3050643341865538  30.6836968997151338 0 0 0
69        8    1    0.1060690000000000   22.6732566332417065  12.5548925434375889  32.8337879790097702 0 0 0
70        8    1    0.1060690000000000   22.9707821600547817  14.3050285952934271  32.9866332962067617 0 0 0
71        8    1    0.1060690000000000   22.5689270022959967  14.5903987859686328  30.5047510621439351 0 0 0
72        8    1    0.1060690000000000   22.2705381108861751  12.8404446429285475  30.3516262619316741 0 0 0
73        9    2   -0.1647530000000000  -23.0686252027670058  24.8524740239722526  32.0746534615431358 0 0 0
74        9    3   -0.0473850000000000  -22.1459168676927582  23.1432784009294501  31.9357916343342048 0 0 0
75        9    3   -0.0473850000000000  -23.0957450696406319  22.0984331613568443  31.4024836296812246 0 0 0
76        9    2   -0.1647530000000000  -22.1733023634737165  20.3890216756213611  31.2645016005067760 0 0 0
77        9    1    0.1060690000000000  -21.7824475176254637  22.9023088848559340  32.9390091946295556 0 0 0
78        9    1    0.1060690000000000  -21.2894363907425337  23.3036872176152343  31.2744687797218930 0 0 0
79        9    1    0.1060690000000000  -23.4587751530206212  22.3391803022479039  30.3990495190322498 0 0 0
80        9    1    0.1060690000000000  -23.9525088190392950  21.9383737174030209  32.0635025181537969 0 0 0
81        10   2   -0.1647530000000000  -31.4713153209149716 -6.4081524076453409   5.8495135937071083  0 0 0
82        10   3   -0.0473850000000000  -31.8396037353492360 -5.2356738924017661   4.3389902633392250  0 0 0
83        10   3   -0.0473850000000000  -31.4986715964907980 -3.8126779446030286   4.7093150193869295  0 0 0
84        10   2   -0.1647530000000000  -31.8678389641645055 -2.6400653377279548   3.1991089596247058  0 0 0
85        10   1    0.1060690000000000  -32.8992428292481449 -5.3606996827855991   4.0978361801890539  0 0 0
86        10   1    0.1060690000000000  -31.2371909140812747 -5.6042137343292229   3.5035772567466461  0 0 0
87        10   1    0.1060690000000000  -30.4389169488529063 -3.6875927731167395   4.9499471626765024  0 0 0
88        10   1    0.1060690000000000  -32.1006800285009959 -3.4442757041907712   5.5450630411302235  0 0 0
89        11   2   -0.1647530000000000  -11.4809583910391328 -12.6462447418168633 -31.3337016053381774 0 0 0
90        11   3   -0.0473850000000000  -13.1570513673605944 -13.1849109582602750 -32.1659119143877419 0 0 0
91        11   3   -0.0473850000000000  -13.9880030117301413 -13.9600201109802224 -31.1724242286113551 0 0 0
92        11   2   -0.1647530000000000  -15.6636961015805198 -14.4994923503679018 -32.0049202259937857 0 0 0
93        11   1    0.1060690000000000  -12.8921913579287288 -13.7823802439110974 -33.0431241905829864 0 0 0
94        11   1    0.1060690000000000  -13.6514238156383527 -12.2663602111590411 -32.4953024444331717 0 0 0
95        11   1    0.1060690000000000  -14.2532850921974905 -13.3623455335855663 -30.2954746525130290 0 0 0
96        11   1    0.1060690000000000  -13.4934452929262445 -14.8783002803202571 -30.8426010757425786 0 0 0
97        12   2   -0.1647530000000000  -31.1932997911082595  24.8698697040148922  13.3265278484539511 0 0 0
98        12   3   -0.0473850000000000  -30.9889297773069075  22.9424001027503905  13.5139225926707152 0 0 0
99        12   3   -0.0473850000000000  -32.3494380799257257  22.2992797252320365  13.6309950242074507 0 0 0
100       12   2   -0.1647530000000000  -32.1450378755416395  20.3719037342737508  13.8193286643925006 0 0 0
101       12   1    0.1060690000000000  -30.3731074643056616  22.7787385211610491  14.4030792239351211 0 0 0
102       12   1    0.1060690000000000  -30.4407782971658420  22.5993292871051388  12.6316130754537408 0 0 0
103       12   1    0.1060690000000000  -32.9650305920864497  22.4625191291468518  12.7415970268625163 0 0 0
104       12   1    0.1060690000000000  -32.8978384601623333  22.6427171803178986  14.5129909744251755 0 0 0
105       13   2   -0.1647530000000000   11.7133621101645691  32.0677220970655839  14.8877371489203831 0 0 0
106       13   3   -0.0473850000000000   13.5566688395142307  31.9582824781400454  14.2694603275501706 0 0 0
107       13   3   -0.0473850000000000   13.5883378133675681  31.3801717964000559  12.8755170964775374 0 0 0
108       13   2   -0.1647530000000000   15.4317133772622075  31.2698608531388622  12.2575970042868185 0 0 0
109       13   1    0.1060690000000000   14.0915398249393284  31.3342013279582332  14.9913034520156785 0 0 0
110       13   1    0.1060690000000000   13.9597369923557793  32.9744957814577617  14.3079869446476824 0 0 0
111       13   1    0.1060690000000000   13.0539049551905997  32.0045577404825821  12.1536072997349240 0 0 0
112       13   1    0.1060690000000000   13.1847905176068689  30.3641682629596907  12.8368451567679802 0 0 0
113       14   2   -0.1647530000000000  -3.3698663570642480   31.2159253369484766  24.5720563721175047 0 0 0
114       14   3   -0.0473850000000000  -3.9263680583368168   31.2164531433987982  22.7059565531364704 0 0 0
115       14   3   -0.0473850000000000  -5.1219102428504035   32.1219857874149994  22.5357151616668432 0 0 0
116       14   2   -0.1647530000000000  -5.6789923426077760   32.1217891897411505  20.6697873201951232 0 0 0
117       14   1    0.1060690000000000  -4.1506021177011911   30.1776287412580473  22.4467564421452010 0 0 0
118       14   1    0.1060690000000000  -3.0636535259540412   31.5518845298692128  22.1229924594856833 0 0 0
119       14   1    0.1060690000000000  -4.8974829180014350   33.1608957339003894  22.7944206711846356 0 0 0
120       14   1    0.1060690000000000  -5.9844759142845056   31.7868978750717410  23.1190724040705469 0 0 0
121       15   2   -0.1647530000000000  -4.5674324270255795   6.6685868122329035  -12.7095561298318565 0 0 0
122       15   3   -0.0473850000000000  -4.7669559099255689   5.1517237361990080  -13.9142717580347970 0 0 0
123       15   3   -0.0473850000000000  -4.2814710915210261   3.8965991416436436  -13.2307080382976068 0 0 0
124       15   2   -0.1647530000000000  -4.4801237596172729   2.3798847490867172  -14.4357564949867783 0 0 0
125       15   1    0.1060690000000000  -4.1878560753626619   5.3876251078748307  -14.8118327163271477 0 0 0
126       15   1    0.1060690000000000  -5.8275446490664446   5.0990921294312006  -14.1769867257785211 0 0 0
127       15   1    0.1060690000000000  -4.8609403340909374   3.6604468813196815  -12.3334469009694931 0 0 0
128       15   1    0.1060690000000000  -3.2210272301909146   3.9493929190124151  -12.9674956661750151 0 0 0
129       16   2   -0.1647530000000000  -29.3859897129313410  22.7068722102259564 -13.9256546433858244 0 0 0
130       16   3   -0.0473850000000000  -31.2455142397598209  23.2344052346159593 -13.6892219916618956 0 0 0
131       16   3   -0.0473850000000000  -32.0928361099210875  22.0072931009574830 -13.4556966708194690 0 0 0
132       16   2   -0.1647530000000000  -33.9525038099930896  22.5347411069322092 -13.2201932517313168 0 0 0
133       16   1    0.1060690000000000  -31.5347280718676117  23.7737201168219237 -14.5959284306754817 0 0 0
134       16   1    0.1060690000000000  -31.2688593752404707  23.9241569575306734 -12.8404963120188480 0 0 0
135       16   1    0.1060690000000000  -31.8039306365599934  21.4683041402346788 -12.5486936006036309 0 0 0
136       16   1    0.1060690000000000  -32.0690983813293968  21.3172645166831103 -14.3041695295047635 0 0 0
137       17   2   -0.1647530000000000   12.9251093680038096  31.1937791841742751  6.6921061654008955  0 0 0
138       17   3   -0.0473850000000000   14.0161403705016738  31.4804882094935650  5.1048216153315247  0 0 0
139       17   3   -0.0473850000000000   13.1288831976943587  31.8579698695340525  3.9435400296103671  0 0 0
140       17   2   -0.1647530000000000   14.2198192058552255  32.1437684531589341  2.3560246722685676  0 0 0
141       17   1    0.1060690000000000   14.5601342859966980  30.5481836358452377  4.9273376688495674  0 0 0
142       17   1    0.1060690000000000   14.7313625249666789  32.2691961649288714  5.3558888268416656  0 0 0
143       17   1    0.1060690000000000   12.5853126831310806  32.7905584220504167  4.1208525478172229  0 0 0
144       17   1    0.1060690000000000   12.4132927942516318  31.0695163984174698  3.6927799506805905  0 0 0
145       18   2   -0.1647530000000000  -24.7186823299115055 -31.1961862834891406  14.4212914254097093 0 0 0
146       18   3   -0.0473850000000000  -23.2747423049063755 -31.6502026419910614  13.1961672248076631 0 0 0
147       18   3   -0.0473850000000000  -21.9669612454624286 -31.6882561498689128  13.9488645390036545 0 0 0
148       18   2   -0.1647530000000000  -20.5228844355598419 -32.1413559123478123  12.7235605006347470 0 0 0
149       18   1    0.1060690000000000  -23.2809837840272280 -30.8890583524722011  12.4105196168616949 0 0 0
150       18   1    0.1060690000000000  -23.5307789232763582 -32.6188869872932585  12.7571528706914297 0 0 0
151       18   1    0.1060690000000000  -21.9605772020345889 -32.4497749014890715  14.7341533244962246 0 0 0
152       18   1    0.1060690000000000  -21.7111471588237066 -30.7197391086513676  14.3883449284960463 0 0 0
153       19   2   -0.1647530000000000   3.1079969542500785  -29.9335110079699760 -23.1926705877020929 0 0 0
154       19   3   -0.0473850000000000   3.7907607103934478  -31.6018279022080577 -22.4560734452987596 0 0 0
155       19   3   -0.0473850000000000   5.2575989032123225  -31.7364918018593620 -22.7855335580871881 0 0 0
156       19   2   -0.1647530000000000   5.9401470577283799  -33.4052531358673264 -22.0497408964040851 0 0 0
157       19   1    0.1060690000000000   3.1903739849052117  -32.4049629912613639 -22.8932593988572677 0 0 0
158       19   1    0.1060690000000000   3.6078004351213360  -31.5652045107625518 -21.3781949833322180 0 0 0
159       19   1    0.1060690000000000   5.8580175203522202  -30.9336278416906580 -22.3478841694733710 0 0 0
160       19   1    0.1060690000000000   5.4406559108373855  -31.7725811459835263 -23.8634003448470438 0 0 0
161       20   2   -0.1647530000000000  -31.1136644125080792  23.8351846974172474  20.7335552033976889 0 0 0
162       20   3   -0.0473850000000000  -31.1732265280407255  22.4332833338031890  22.0837951367392726 0 0 0
163       20   3   -0.0473850000000000  -32.1652080305513479  22.8083611844114706  23.1578444467617892 0 0 0
164       20   2   -0.1647530000000000  -32.2240883539152918  21.4068968870775755  24.5085694909210332 0 0 0
165       20   1    0.1060690000000000  -30.1561416671126281  22.3317413701058207  22.4734736769225485 0 0 0
166       20   1    0.1060690000000000  -31.4505642657289748  21.5112816635634374  21.5645317996654491 0 0 0
167       20   1    0.1060690000000000  -33.1823689892921436  22.9093730662674915  22.7682161297243475 0 0 0
168       20   1    0.1060690000000000  -31.8881980904536313  23.7306351813557654  23.6767714998698580 0 0 0
169       21   2   -0.1647530000000000  -33.4698836687609784 -23.8181915925713987 -30.8513075906415182 0 0 0
170       21   3   -0.0473850000000000  -31.7170631834418870 -23.3674635762298912 -31.5699782788086054 0 0 0
171       21   3   -0.0473850000000000  -31.6212674961933544 -21.8742169602109229 -31.7682970770917734 0 0 0
172       21   2   -0.1647530000000000  -29.8687829726017071 -21.4235781724871011 -32.4878454713437463 0 0 0
173       21   1    0.1060690000000000  -31.6130488498858071 -23.9196680403881317 -32.5085266247016733 0 0 0
174       21   1    0.1060690000000000  -30.9802089923946475 -23.7402984407288145 -30.8525678113284059 0 0 0
175       21   1    0.1060690000000000  -31.7247578471430884 -21.3220790986755340 -30.8296472111569599 0 0 0
176       21   1    0.1060690000000000  -32.3584473271813593 -21.5012615027102321 -32.4852902725301433 0 0 0
177       22   2   -0.1647530000000000   22.5293993474345520  24.0377055790245251 -6.3487857587039045  0 0 0
178       22   3   -0.0473850000000000   23.1630250561624784  22.7494104231308008 -5.0331729702894128  0 0 0
179       22   3   -0.0473850000000000   22.0786311518551734  22.4922067723591610 -4.0152197503274625  0 0 0
180       22   2   -0.1647530000000000   22.7125837084294311  21.2046174098820650 -2.6990719608490856  0 0 0
181       22   1    0.1060690000000000   24.0627880229257691  23.1793027774948008 -4.5834609327579354  0 0 0
182       22   1    0.1060690000000000   23.4368086974488747  21.8466373480465492 -5.5869608417409795  0 0 0
183       22   1    0.1060690000000000   21.1790816427368860  22.0618219492680616 -4.4648969972478545  0 0 0
184       22   1    0.1060690000000000   21.8044397570088293  23.3950551247960306 -3.4617822648837837  0 0 0
185       23   2   -0.1647530000000000   5.9829754223199441   23.2265247535068795 -15.2607363204401150 0 0 0
186       23   3   -0.0473850000000000   5.1167840339668045   23.0854625766296060 -13.5223931732170293 0 0 0
187       23   3   -0.0473850000000000   3.9316112676938006   22.1561525473505867 -13.6225979598603395 0 0 0
188       23   2   -0.1647530000000000   3.0648602044290847   22.0158184349117079 -11.8844736417186514 0 0 0
189       23   1    0.1060690000000000   4.8270021613633274   24.1002978477049687 -13.2347169866950569 0 0 0
190       23   1    0.1060690000000000   5.8752715583848563   22.7191124136460125 -12.8244519527091416 0 0 0
191       23   1    0.1060690000000000   4.2215012741411648   21.1411986864566437 -13.9097607814762885 0 0 0
192       23   1    0.1060690000000000   3.1733455545014060   22.5221901237955926 -14.3209236142845988 0 0 0
193       24   2   -0.1647530000000000   32.9279836611347889  12.9011822893160826  20.8015517420480265 0 0 0
194       24   3   -0.0473850000000000   32.0182958629859442  14.0124307107079904  22.1167011679130319 0 0 0
195       24   3   -0.0473850000000000   31.3201489156453157  13.1325835492474745  23.1250425922772429 0 0 0
196       24   2   -0.1647530000000000   30.4096825759060252  14.2438280308058154  24.4396581104071267 0 0 0
197       24   1    0.1060690000000000   31.3194770613802334  14.6447376755281358  21.5613076730264730 0 0 0
198       24   1    0.1060690000000000   32.7846448772059702  14.6441357763797768  22.5752811634520505 0 0 0
199       24   1    0.1060690000000000   32.0190613638518613  12.5006776332088467  23.6807820498626533 0 0 0
200       24   1    0.1060690000000000   30.5541660194926905  12.5004787652070384  22.6664328850153893 0 0 0
201       25   2   -0.1647530000000000   31.2112776087806267  2.4730728337860532   5.4877100528540019  0 0 0
202       25   3   -0.0473850000000000   31.6189580419293605  4.3635509868234879   5.2598680597627787  0 0 0
203       25   3   -0.0473850000000000   31.7193126655594497  4.6848069874317346   3.7884686757445336  0 0 0
204       25   2   -0.1647530000000000   32.1279163470477087  6.5750886435529647   3.5606408765060520  0 0 0
205       25   1    0.1060690000000000   32.5575495611974546  4.5467335732619025   5.7910100835038429  0 0 0
206       25   1    0.1060690000000000   30.8152360093496824  4.9179095292406272   5.7531785245768763  0 0 0
207       25   1    0.1060690000000000   30.7805418842002929  4.5021114404879938   3.2574679234915269  0 0 0
208       25   1    0.1060690000000000   32.5226682195382395  4.1300774822156221   3.2950072803607751  0 0 0
209       26   2   -0.1647530000000000   22.9130377223945203  6.7707311219738875  -13.1113504425317338 0 0 0
210       26   3   -0.0473850000000000   22.0872928793572818  5.0554573531117182  -13.5212337290301310 0 0 0
211       26   3   -0.0473850000000000   23.1543866440789294  3.9928628195431548  -13.6236855236576453 0 0 0
212       26   2   -0.1647530000000000   22.3287351774043863  2.2777636852812986  -14.0344918397391201 0 0 0
213       26   1    0.1060690000000000   21.5406227420430625  5.1883840945815454  -14.4593723071576257 0 0 0
214       26   1    0.1060690000000000   21.3735244855131974  4.8525762501949981  -12.7174852286094495 0 0 0
215       26   1    0.1060690000000000   23.7006756487061878  3.8596013838101761  -12.6853680108349565 0 0 0
216       26   1    0.1060690000000000   23.8684820845044321  4.1959747683036106  -14.4270673488405450 0 0 0
217       27   2   -0.1647530000000000  -23.1088055853512913 -24.8329799582853035 -14.0344973415874001 0 0 0
218       27   3   -0.0473850000000000  -22.7489812269541360 -23.1757680331605940 -13.0773150063824115 0 0 0
219       27   3   -0.0473850000000000  -22.4928024322478102 -22.0659008800159491 -14.0676987417160575 0 0 0
220       27   2   -0.1647530000000000  -22.1320558112500159 -20.4088904885438076 -13.1105124212475470 0 0 0
221       27   1    0.1060690000000000  -21.8849866865140363 -23.3678225074637353 -12.4344695643126570 0 0 0
222       27   1    0.1060690000000000  -23.6241875459039896 -22.9808131818170480 -12.4507017132678914 0 0 0
223       27   1    0.1060690000000000  -23.3570094053063890 -21.8735249851051954 -14.7101688690171049 0 0 0
224       27   1    0.1060690000000000  -21.6179286904743684 -22.2610573496103932 -14.6946907728701532 0 0 0
225       28   2   -0.1647530000000000   23.3905711620660703  29.4969494102001093 -22.8052572041943193 0 0 0
226       28   3   -0.0473850000000000   23.2829629484992751  31.3951183115993153 -22.3840704871271114 0 0 0
227       28   3   -0.0473850000000000   21.9586878777641310  31.9432254259222930 -22.8575329924619872 0 0 0
228       28   2   -0.1647530000000000   21.8514593358293396  33.8416028573384580 -22.4371850630221665 0 0 0
229       28   1    0.1060690000000000   24.1327464653980783  31.8735326535443129 -22.8796604801944170 0 0 0
230       28   1    0.1060690000000000   23.4060737584696952  31.4819611462030338 -21.3005854782569486 0 0 0
231       28   1    0.1060690000000000   21.1089495615593279  31.4651513744372799 -22.3615289229523313 0 0 0
232       28   1    0.1060690000000000   21.8353062744160660  31.8559191583580130 -23.9409367557927339 0 0 0
233       29   2   -0.1647530000000000  -31.2613037649074634 -33.7765756637443531  5.3830127875172531  0 0 0
234       29   3   -0.0473850000000000  -31.2427307049528089 -31.8470769352279071  5.1208818000371723  0 0 0
235       29   3   -0.0473850000000000  -32.0957108030348053 -31.4912796016302821  3.9275143690332683  0 0 0
236       29   2   -0.1647530000000000  -32.0763882325151286 -29.5618643615784116  3.6648155227774515  0 0 0
237       29   1    0.1060690000000000  -30.1958358469022947 -31.5605887314523059  4.9846561978735595  0 0 0
238       29   1    0.1060690000000000  -31.6170978884554366 -31.4024938334487018  6.0476141192257558  0 0 0
239       29   1    0.1060690000000000  -33.1427009280760885 -31.7773085018206274  4.0640031525355900  0 0 0
240       29   1    0.1060690000000000  -31.7216921687588176 -31.9362727087002440  3.0008535278003405  0 0 0
241       30   2   -0.1647530000000000   12.4400574183523212  20.6091021840071846 -13.6971429814108951 0 0 0
242       30   3   -0.0473850000000000   12.9741460190947837  22.4049520111816349 -13.1663928318165624 0 0 0
243       30   3   -0.0473850000000000   14.1708080791883813  22.8367744983414163 -13.9786870329627337 0 0 0
244       30   2   -0.1647530000000000   14.7054764912226403  24.6322606623735112 -13.4472866772589423 0 0 0
245       30   1    0.1060690000000000   13.1915216786276126  22.3622288670239442 -12.0951578879335866 0 0 0
246       30   1    0.1060690000000000   12.1057158093667994  23.0498864644003021 -13.3292616004104989 0 0 0
247       30   1    0.1060690000000000   13.9532335473048228  22.8799941967983322 -15.0498655533042065 0 0 0
248       30   1    0.1060690000000000   15.0390953872437940  22.1915584998756650 -13.8162598653038113 0 0 0
249       31   2   -0.1647530000000000  -11.9760076860586349 -24.1310077794070814 -12.8543970708979884 0 0 0
250       31   3   -0.0473850000000000  -12.9416120081395540 -22.8273807143922660 -13.9315171779610107 0 0 0
251       31   3   -0.0473850000000000  -14.2033527865429363 -22.4142372488452644 -13.2134536009082186 0 0 0
252       31   2   -0.1647530000000000  -15.1694323394890382 -21.1113087994971629 -14.2909947682697496 0 0 0
253       31   1    0.1060690000000000  -13.1476705225467239 -23.3076769819736676 -14.8924943542704682 0 0 0
254       31   1    0.1060690000000000  -12.2592615315388844 -21.9873791596174222 -14.0909942263367665 0 0 0
255       31   1    0.1060690000000000  -13.9972250261485218 -21.9334682136965817 -12.2527233979183308 0 0 0
256       31   1    0.1060690000000000  -14.8854925299369185 -23.2542984865725728 -13.0534798338386668 0 0 0
257       32   2   -0.1647530000000000   12.5019059381344917  6.5708467063223086   22.7208822387669969 0 0 0
258       32   3   -0.0473850000000000   13.1104402470997972  4.7745471705355458   23.1624894500354799 0 0 0
259       32   3   -0.0473850000000000   14.0346483310622308  4.2738280037823984   22.0792478568142201 0 0 0
260       32   2   -0.1647530000000000   14.6424474836322407  2.4771637653536462   22.5203884450470966 0 0 0
261       32   1    0.1060690000000000   12.2132371899277121  4.1568102358589574   23.2627366601584917 0 0 0
262       32   1    0.1060690000000000   13.6072311979923217  4.8434016018507222   24.1346496900677110 0 0 0
263       32   1    0.1060690000000000   14.9320900160071890  4.8912889690180927   21.9793958651797787 0 0 0
264       32   1    0.1060690000000000   13.5380540265451916  4.2054650240787339   21.1069671779322192 0 0 0
265       33   2   -0.1647530000000000  -4.5738597296886105  -6.7823340618253258  -22.1275853979149240 0 0 0
266       33   3   -0.0473850000000000  -5.1216902167223655  -4.9848558172326953  -22.6384441594062977 0 0 0
267       33   3   -0.0473850000000000  -3.9266298786467235  -4.0635030403003043  -22.6033376856796870 0 0 0
268       33   2   -0.1647530000000000  -4.4746371093711748  -2.2658206349640118  -23.1132918588345646 0 0 0
269       33   1    0.1060690000000000  -5.9007708605181097  -4.6833713457355577  -21.9322131679389791 0 0 0
270       33   1    0.1060690000000000  -5.5573591472766255  -5.0637127520694074  -23.6387500529597787 0 0 0
271       33   1    0.1060690000000000  -3.1477999298783024  -4.3647225953746442  -23.3099639887863574 0 0 0