LAMMPS data file via vdw_self_gen.py, on 2021-08-05 13:25:01.101306

4000 atoms
3 atom types
3500 bonds
3 bond types
6000 angles
4 angle types
4500 dihedrals
3 dihedral types

-40.6678630263538494  40.6678630263538565 xlo xhi
-40.6678630263538494  40.6678630263538565 ylo yhi
-40.6678630263538494  40.6678630263538565 zlo zhi

Masses

1  35.452700
2  1.007940
3  12.011000

Atoms

1         0    1   -0.2033700000000000   20.9074877615463919  12.9313864490535551 -14.8278062708248761 0 0 0
2         0    3    0.4284680000000000   22.5674396236975454  13.3588425754807236 -14.3056297602263989 0 0 0
3         0    1   -0.2033700000000000   23.1254546288035705  14.7749516302396167 -15.2447541856389179 0 0 0
4         0    3    0.4284680000000000   22.6476354331719421  13.5492690724191629 -12.7823049230670680 0 0 0
5         0    1   -0.2033700000000000   24.3437671796295625  13.7185447957542550 -12.2297604518722167 0 0 0
6         0    1   -0.2033700000000000   21.6968157667564476  14.9360749242960669 -12.1728787906625708 0 0 0
7         0    2   -0.0217280000000000   23.2000830396687334  12.5183115189322915 -14.6071697585779958 0 0 0
8         0    2   -0.0217280000000000   22.2573744616317981  12.6602537707679534 -12.2773305960735541 0 0 0
9         1    1   -0.2033700000000000  -30.2122424100870397 -24.2345511019662894  22.2137306966771142 0 0 0
10        1    3    0.4284680000000000  -31.3623966095479254 -23.1518454959742392  23.0597337233359312 0 0 0
11        1    1   -0.2033700000000000  -30.5150051527786630 -22.3485662968824670  24.4144922016636912 0 0 0
12        1    3    0.4284680000000000  -32.0418976784730347 -22.1780112489818855  22.0834461966234024 0 0 0
13        1    1   -0.2033700000000000  -33.3734288544966589 -21.2769013231552506  22.8745518743642791 0 0 0
14        1    1   -0.2033700000000000  -30.9201651254267489 -21.0098229900207585  21.3246702146882647 0 0 0
15        1    2   -0.0217280000000000  -32.1132971503449909 -23.8085354154949833  23.5098039921057129 0 0 0
16        1    2   -0.0217280000000000  -32.5060480717133444 -22.7378240224301464  21.2656289954475959 0 0 0
17        2    1   -0.2033700000000000   30.8209295130861598 -11.6318156569223969  5.2198644586591483  0 0 0
18        2    3    0.4284680000000000   31.0711132437035076 -13.1036285798317529  4.2289042910482557  0 0 0
19        2    1   -0.2033700000000000   31.5816451422677069 -12.6175794000808210  2.5851848311914711  0 0 0
20        2    3    0.4284680000000000   32.0315341902616026 -14.0885364813091751  4.9150239665566797  0 0 0
21        2    1   -0.2033700000000000   32.0809550945068835 -15.6620184487574772  4.0591415933075350  0 0 0
22        2    1   -0.2033700000000000   33.7005666412651834 -13.4708015313282381  5.0922891034816971  0 0 0
23        2    2   -0.0217280000000000   30.0833941712952218 -13.5629068572797600  4.1234006547824880  0 0 0
24        2    2   -0.0217280000000000   31.6743430564821402 -14.3103477814339737  5.9254026799539314  0 0 0
25        3    1   -0.2033700000000000   12.3767397481428709 -30.0094214864227666 -30.7190374824363666 0 0 0
26        3    3    0.4284680000000000   13.0451160160244317 -31.6393041394486865 -31.0470358586486661 0 0 0
27        3    1   -0.2033700000000000   11.7106491293048975 -32.7285523635443738 -31.5281145651546524 0 0 0
28        3    3    0.4284680000000000   14.1997106947975240 -31.5815687295087564 -32.0603422922056254 0 0 0
29        3    1   -0.2033700000000000   15.0364708121646160 -33.1604624082157997 -32.1935707494613794 0 0 0
30        3    1   -0.2033700000000000   13.7061171126692418 -31.0458602000206234 -33.6937652217665615 0 0 0
31        3    2   -0.0217280000000000   13.4149559326484571 -32.0084188459371717 -30.0854593983890339 0 0 0
32        3    2   -0.0217280000000000   14.9578752911915842 -30.8708928797702349 -31.7171554848061206 0 0 0
33        4    1   -0.2033700000000000   4.4139942416259510   4.8948267892052826   11.3886864567390163 0 0 0
34        4    3    0.4284680000000000   5.0783870648157032   4.6429131636837848   13.0336633364156160 0 0 0
35        4    1   -0.2033700000000000   5.9552576336875340   6.1177403213943506   13.5383247552161556 0 0 0
36        4    3    0.4284680000000000   3.9868757721649715   4.1974619643257371   14.0202678697046146 0 0 0
37        4    1   -0.2033700000000000   4.6866908495697635   3.6960721859704453   15.5917925154221919 0 0 0
38        4    1   -0.2033700000000000   2.7254406596652552   5.4310622877286168   14.3130142082865621 0 0 0
39        4    2   -0.0217280000000000   5.8305490817794849   3.8543379406285054   12.9333740686932774 0 0 0
40        4    2   -0.0217280000000000   3.4720162756725510   3.3147969260444894   13.6285115264661965 0 0 0
41        5    1   -0.2033700000000000  -32.2330103105323857  11.7925630548580784 -32.8040234056154958 0 0 0
42        5    3    0.4284680000000000  -32.3294298197100787  13.3170425641502828 -31.8672775826207335 0 0 0
43        5    1   -0.2033700000000000  -33.3173449340026977  13.0376819150554866 -30.4028044206988284 0 0 0
44        5    3    0.4284680000000000  -30.9326068869232031  13.8900490391517852 -31.5778618744308979 0 0 0
45        5    1   -0.2033700000000000  -31.0301898867001249  15.5351079410580404 -30.8742417127573390 0 0 0
46        5    1   -0.2033700000000000  -29.9320630438230317  12.8603269596077503 -30.5114317657815555 0 0 0
47        5    2   -0.0217280000000000  -32.8935166386591717  14.0156744931878414 -32.4928781003771903 0 0 0
48        5    2   -0.0217280000000000  -30.3763195325177229  13.9991887698743618 -32.5139621905863621 0 0 0
49        6    1   -0.2033700000000000  -24.6842147103431024 -22.4024196791660124 -5.1827214558683004  0 0 0
50        6    3    0.4284680000000000  -22.9160669126849257 -22.6910404002258659 -5.2170533348065362  0 0 0
51        6    1   -0.2033700000000000  -22.1555457134603344 -21.5080549350624217 -6.3219755863889828  0 0 0
52        6    3    0.4284680000000000  -22.3182006200625587 -22.6961366828872251 -3.8008110878201578  0 0 0
53        6    1   -0.2033700000000000  -20.6105516981485373 -23.2389658096461211 -3.8105200078452106  0 0 0
54        6    1   -0.2033700000000000  -22.4219418449519061 -21.1193199971435561 -2.9632099789868311  0 0 0
55        6    2   -0.0217280000000000  -22.7839220308081245 -23.6748109827338098 -5.6779108947811352  0 0 0
56        6    2   -0.0217280000000000  -22.8556143644465273 -23.4153094080410042 -3.1750092324840655  0 0 0
57        7    1   -0.2033700000000000   32.5205677166356395  4.8684127751386104   2.5349517176488847  0 0 0
58        7    3    0.4284680000000000   32.3131108285444526  4.8250467814515625   4.3142516538808442  0 0 0
59        7    1   -0.2033700000000000   32.3522554545885583  6.4982488196666157   4.9447775652158654  0 0 0
60        7    3    0.4284680000000000   31.0565384619762241  4.0359121045773332   4.7161279127363915  0 0 0
61        7    1   -0.2033700000000000   30.9865737715381471  3.7691468303330398   6.4866543302318407  0 0 0
62        7    1   -0.2033700000000000   29.5247236706830734  4.7880339676960251   4.1808290542522739  0 0 0
63        7    2   -0.0217280000000000   33.2046170580222864  4.3254899729400238   4.7058077255640374  0 0 0
64        7    2   -0.0217280000000000   31.0860940908800352  3.0389203271780030   4.2658116194510711  0 0 0
65        8    1   -0.2033700000000000   24.6276017992707104 -23.0279748761848495 -21.8707796379175505 0 0 0
66        8    3    0.4284680000000000   22.9327734314288278 -22.4476798452534361 -21.9112977022189348 0 0 0
67        8    1   -0.2033700000000000   22.9202208662811415 -20.6740283228225259 -21.6817263682359496 0 0 0
68        8    3    0.4284680000000000   22.2063232242777424 -22.9176629132217187 -23.1819661052467509 0 0 0
69        8    1   -0.2033700000000000   20.4514269927580692 -22.5639156467202184 -23.1043474699794125 0 0 0
70        8    1   -0.2033700000000000   22.8710210662642019 -22.2318174460903855 -24.6940777062120915 0 0 0
71        8    2   -0.0217280000000000   22.4496863888273879 -22.8777546969494132 -21.0285072114402496 0 0 0
72        8    2   -0.0217280000000000   22.2870041257979068 -24.0052241476634656 -23.2733556936550663 0 0 0
73        9    1   -0.2033700000000000   3.6066523166674918  -31.4908989819310250 -33.6301259480737826 0 0 0
74        9    3    0.4284680000000000   4.8409370931944338  -31.5795526483195736 -32.3341672871707075 0 0 0
75        9    1   -0.2033700000000000   5.8198657172627319  -30.0829915999574204 -32.3607015066792272 0 0 0
76        9    3    0.4284680000000000   4.2037050988572346  -31.8843465075274857 -30.9687925155851964 0 0 0
77        9    1   -0.2033700000000000   5.4472874569877794  -32.2298892489170541 -29.7258421155613419 0 0 0
78        9    1   -0.2033700000000000   3.1238249422079680  -30.5920044302780880 -30.3667962345785085 0 0 0
79        9    2   -0.0217280000000000   5.5133893987754741  -32.3946951116832764 -32.6187848912293674 0 0 0
80        9    2   -0.0217280000000000   3.5935495550281047  -32.7901025242544861 -31.0392705539902813 0 0 0
81        10   1   -0.2033700000000000  -11.6068068250499365 -4.7039224578034347   5.5266245198870134  0 0 0
82        10   3    0.4284680000000000  -13.0179885487161009 -5.0764415395314462   4.4870943811035824  0 0 0
83        10   1   -0.2033700000000000  -13.7847258056815019 -6.5846661347576045   5.0668122749416726  0 0 0
84        10   3    0.4284680000000000  -13.9813160005290182 -3.8819656436391021   4.3952263626433101  0 0 0
85        10   1   -0.2033700000000000  -15.2498422010356300 -4.1545377785521014   3.1593589448361912  0 0 0
86        10   1   -0.2033700000000000  -14.7632908011518520 -3.4588080684740783   5.9470452301247425  0 0 0
87        10   2   -0.0217280000000000  -12.6080545783190399 -5.2980736231645036   3.4968974921875620  0 0 0
88        10   2   -0.0217280000000000  -13.4356099764605137 -2.9907963330589471   4.0701523732571276  0 0 0
89        11   1   -0.2033700000000000  -32.4487212127397981  31.0269881041454241  11.6025408276518824 0 0 0
90        11   3    0.4284680000000000  -31.9943144578404102  32.0415055348651165  13.0079219563026509 0 0 0
91        11   1   -0.2033700000000000  -33.4796612128636397  32.7102999737979019  13.7462709951010762 0 0 0
92        11   3    0.4284680000000000  -31.0997789345658937  31.2717117365266795  13.9930289980700273 0 0 0
93        11   1   -0.2033700000000000  -30.4337769359552510  32.3522283918168512  15.2578403120561035 0 0 0
94        11   1   -0.2033700000000000  -31.9116113926111815  29.8863906461548012  14.7807486539978417 0 0 0
95        11   2   -0.0217280000000000  -31.4433868369229685  32.8922633675806111  12.5951915527902791 0 0 0
96        11   2   -0.0217280000000000  -30.2332300693692666  30.8630932979810382  13.4640914409737587 0 0 0
97        12   1   -0.2033700000000000   12.7420817656971348  22.6634177679217288  11.5109115467847563 0 0 0
98        12   3    0.4284680000000000   13.8218402126741555  22.2929911717864613  12.8921186514426331 0 0 0
99        12   1   -0.2033700000000000   15.4264678618358442  23.0215010387775507  12.5869240110203684 0 0 0
100       12   3    0.4284680000000000   13.1902740212899463  22.7122210103724704  14.2294976801549851 0 0 0
101       12   1   -0.2033700000000000   14.1436081917060807  22.1121118601149504  15.6229988576909751 0 0 0
102       12   1   -0.2033700000000000   12.9581530856933114  24.4772496375962234  14.4012024734439077 0 0 0
103       12   2   -0.0217280000000000   13.9657426390881003  21.2082552229188046  12.8748985380176890 0 0 0
104       12   2   -0.0217280000000000   12.1994669589590661  22.2583101854177841  14.3290829783883051 0 0 0
105       13   1   -0.2033700000000000  -23.0111751977551506  6.5023453829232505  -3.6585270066454854  0 0 0
106       13   3    0.4284680000000000  -23.0450015932074450  5.0969729425656665  -4.7696576523186485  0 0 0
107       13   1   -0.2033700000000000  -22.4182152615489549  5.6033886598349039  -6.3663361744541440  0 0 0
108       13   3    0.4284680000000000  -22.3147501165534230  3.8852583550273305  -4.1682487088438913  0 0 0
109       13   1   -0.2033700000000000  -22.5680428318446040  2.4101224707603439  -5.1534590862903986  0 0 0
110       13   1   -0.2033700000000000  -20.5589147298330914  4.1362453037134141  -3.9386047103812123  0 0 0
111       13   2   -0.0217280000000000  -24.1029440022822712  4.8570400834039438  -4.9140411748391797  0 0 0
112       13   2   -0.0217280000000000  -22.7270141618810904  3.6578383807523602  -3.1803370652082608  0 0 0
113       14   1   -0.2033700000000000  -20.8639916040320976  5.6631663197318023   5.2597568269039785  0 0 0
114       14   3    0.4284680000000000  -22.4550619781952570  5.2817540292854481   4.5291085106418016  0 0 0
115       14   1   -0.2033700000000000  -22.4648864228634828  5.8447309681392650   2.8315630078920933  0 0 0
116       14   3    0.4284680000000000  -22.8100201373888041  3.7953303455867786   4.6957263844177266  0 0 0
117       14   1   -0.2033700000000000  -24.5006212301063151  3.4643182810950233   4.2026528372026384  0 0 0
118       14   1   -0.2033700000000000  -21.7196264678067870  2.6851948302621502   3.8140634654683119  0 0 0
119       14   2   -0.0217280000000000  -23.1838531394592664  5.8983450733790912   5.0642117221879239  0 0 0
120       14   2   -0.0217280000000000  -22.7479969150540171  3.5163717315016672   5.7521288242667348  0 0 0
121       15   1   -0.2033700000000000   30.1905435666708541 -32.1183056255292740 -11.9628543040231783 0 0 0
122       15   3    0.4284680000000000   30.8896438281531154 -31.4227894113734472 -13.4589636760751592 0 0 0
123       15   1   -0.2033700000000000   30.8510973961569910 -29.6384512142880432 -13.3434143000387984 0 0 0
124       15   3    0.4284680000000000   32.2846302449876816 -31.9993348972931173 -13.7502030580493617 0 0 0
125       15   1   -0.2033700000000000   32.8737063326728389 -31.5077858006073050 -15.3695212519090241 0 0 0
126       15   1   -0.2033700000000000   33.5176356521564571 -31.5693226558349949 -12.5281245590204620 0 0 0
127       15   2   -0.0217280000000000   30.2009160273523740 -31.6960344821577671 -14.2643503329650372 0 0 0
128       15   2   -0.0217280000000000   32.2363080047180830 -33.0924569657844501 -13.7702032548625883 0 0 0
129       16   1   -0.2033700000000000  -12.7381871952358097  31.6382931728911885 -6.5633294658061807  0 0 0
130       16   3    0.4284680000000000  -13.5961050852636358  31.1016874900833997 -5.0845264133179233  0 0 0
131       16   1   -0.2033700000000000  -12.8209793262033251  29.6109464349213667 -4.4716875671311165  0 0 0
132       16   3    0.4284680000000000  -13.6872730864474672  32.2304187084926923 -4.0448791605208827  0 0 0
133       16   1   -0.2033700000000000  -14.7624153838234289  31.7837398044645454 -2.6827596497622412  0 0 0
134       16   1   -0.2033700000000000  -12.1041043452641475  32.7448782326235914 -3.3909702565663400  0 0 0
135       16   2   -0.0217280000000000  -14.6012593713573580  30.8167857750642291 -5.4103367773743241  0 0 0
136       16   2   -0.0217280000000000  -14.1373109433484370  33.1177314343273821 -4.5007222885022031  0 0 0
137       17   1   -0.2033700000000000   11.8256907487944432  14.7318818613789482 -14.2436268459861779 0 0 0
138       17   3    0.4284680000000000   13.2844199817185071  13.6915659325534289 -14.2696849760930711 0 0 0
139       17   1   -0.2033700000000000   14.5782971737319755  14.5277321051672317 -15.1782047783339138 0 0 0
140       17   3    0.4284680000000000   13.6951898336871309  13.2612161199091272 -12.8521944662233576 0 0 0
141       17   1   -0.2033700000000000   14.9863143152113842  12.0193131228516616 -12.8908866309136805 0 0 0
142       17   1   -0.2033700000000000   14.2208854723635518  14.6135816640487768 -11.8065175322707816 0 0 0
143       17   2   -0.0217280000000000   13.0114545943507345  12.8108406022585353 -14.8591502501136219 0 0 0
144       17   2   -0.0217280000000000   12.8453826170859013  12.7915033287759083 -12.3473692570090101 0 0 0
145       18   1   -0.2033700000000000   20.7603316969126155  21.4870809493329631  23.1092699221868685 0 0 0
146       18   3    0.4284680000000000   22.0170704473672032  22.7640976916613340  23.0835175277569000 0 0 0
147       18   1   -0.2033700000000000   22.7351317293724549  22.9056958729620135  24.7153993364787574 0 0 0
148       18   3    0.4284680000000000   23.0461338633020887  22.5197560681294036  21.9679289678056016 0 0 0
149       18   1   -0.2033700000000000   24.1466542446796346  23.9200857878430959  21.7710682790960313 0 0 0
150       18   1   -0.2033700000000000   24.0240305337029341  21.0394032945720113  22.1936776943576710 0 0 0
151       18   2   -0.0217280000000000   21.4847610303603034  23.7018902982712660  22.8968407189306866 0 0 0
152       18   2   -0.0217280000000000   22.5319443492087501  22.4080479321339219  21.0083554482934858 0 0 0
153       19   1   -0.2033700000000000  -15.7122702384334740 -31.6072727640487443  22.1468599258032341 0 0 0
154       19   3    0.4284680000000000  -14.0946559360428711 -32.1848436203849886  22.6573137508573552 0 0 0
155       19   1   -0.2033700000000000  -13.5963237250604543 -33.5327956751470069  21.5927055821585476 0 0 0
156       19   3    0.4284680000000000  -13.0792472094540777 -31.0324649688768872  22.7219723899994364 0 0 0
157       19   1   -0.2033700000000000  -11.5401740656189578 -31.5545346645183997  23.4766376504416208 0 0 0
158       19   1   -0.2033700000000000  -12.7249238043142405 -30.2870543106021231  21.1353071465405336 0 0 0
159       19   2   -0.0217280000000000  -14.2325530847553310 -32.6127919034643057  23.6550617966015970 0 0 0
160       19   2   -0.0217280000000000  -13.4674866732641885 -30.2327231458259789  23.3601996525036704 0 0 0
161       20   1   -0.2033700000000000   21.9528660850241089  4.0534211065939081   24.6482441001247956 0 0 0
162       20   3    0.4284680000000000   22.9962514780448934  4.2706293848888288   23.2077599043173528 0 0 0
163       20   1   -0.2033700000000000   23.7150341475239799  2.6931607313313131   22.7677094431200508 0 0 0
164       20   3    0.4284680000000000   22.2358962721752142  4.9522933694086815   22.0586705469497844 0 0 0
165       20   1   -0.2033700000000000   23.3370922839067703  5.4046520153626121   20.7194313735094120 0 0 0
166       20   1   -0.2033700000000000   20.8894857057955576  3.9768613640625192   21.3995804852832627 0 0 0
167       20   2   -0.0217280000000000   23.8240072286001698  4.9082662543772146   23.5331768053715855 0 0 0
168       20   2   -0.0217280000000000   21.7954246938353187  5.8899273529561240   22.4114852362297476 0 0 0
169       21   1   -0.2033700000000000  -6.3449147866113504  -22.9841914360736759 -32.7973693590116042 0 0 0
170       21   3    0.4284680000000000  -5.1785148667242868  -22.1904509935230614 -31.6926908674825079 0 0 0
171       21   1   -0.2033700000000000  -5.8976490087623930  -22.0972384728717053 -30.0578031652078401 0 0 0
172       21   3    0.4284680000000000  -3.8055214328386286  -22.8807744726229245 -31.7321205873692520 0 0 0
173       21   1   -0.2033700000000000  -2.5716447650226315  -21.9409801418161834 -30.8348148708473886 0 0 0
174       21   1   -0.2033700000000000  -3.8189621840382397  -24.5596200320482581 -31.1156908237262009 0 0 0
175       21   2   -0.0217280000000000  -5.0848361924736203  -21.1600030609394878 -32.0491426645391257 0 0 0
176       21   2   -0.0217280000000000  -3.4471683425100679  -22.9327992850106952 -32.7648487146844687 0 0 0
177       22   1   -0.2033700000000000   13.8439914990668136  13.4284188568879070  24.7727710362543974 0 0 0
178       22   3    0.4284680000000000   14.1299647410794247  13.8141716454752608  23.0464334899298464 0 0 0
179       22   1   -0.2033700000000000   15.6320418702866597  13.0042730195295082  22.5111496391518351 0 0 0
180       22   3    0.4284680000000000   12.9011773849649600  13.4834164117810733  22.1839401352092764 0 0 0
181       22   1   -0.2033700000000000   13.0848337646110817  14.1043966630764963  20.5131689281864951 0 0 0
182       22   1   -0.2033700000000000   12.5098972426205481  11.7395781462600564  22.1159940270676891 0 0 0
183       22   2   -0.0217280000000000   14.3283225071132438  14.8898255469915881  23.0106647856369833 0 0 0
184       22   2   -0.0217280000000000   12.0174057272009271  13.9835544469417474  22.5919358534694545 0 0 0
185       23   1   -0.2033700000000000  -4.5425464693934225  -15.1514592163311406 -12.0382902390315429 0 0 0
186       23   3    0.4284680000000000  -4.1396784884666626  -13.6231758635995899 -12.8826092644050121 0 0 0
187       23   1   -0.2033700000000000  -2.3906468665077107  -13.6092027643979989 -13.2559635535009654 0 0 0
188       23   3    0.4284680000000000  -5.0411791786755460  -13.4016309722767559 -14.1079363818645405 0 0 0
189       23   1   -0.2033700000000000  -4.8201718330178265  -11.7630050524288592 -14.7985038387201104 0 0 0
190       23   1   -0.2033700000000000  -4.8158537539164126  -14.6135503954120551 -15.4037637177718043 0 0 0
191       23   2   -0.0217280000000000  -4.3067671504808693  -12.8261851072187234 -12.1514843553301208 0 0 0
192       23   2   -0.0217280000000000  -6.0923678385227307  -13.4594253652784577 -13.8090833863194877 0 0 0
193       24   1   -0.2033700000000000   32.6826752212398688  23.9330816266702477 -21.1977517556268360 0 0 0
194       24   3    0.4284680000000000   32.0975649265059602  22.4381492799412854 -21.9937733976692051 0 0 0
195       24   1   -0.2033700000000000   31.1473500469917042  21.4859712919133088 -20.8151517242028170 0 0 0
196       24   3    0.4284680000000000   31.3431105323636920  22.7512897315332765 -23.2960613085538171 0 0 0
197       24   1   -0.2033700000000000   30.9854711749988141  21.2600634008910063 -24.2229705195140070 0 0 0
198       24   1   -0.2033700000000000   29.8238094195513312  23.6632504138123565 -23.0536967849861085 0 0 0
199       24   2   -0.0217280000000000   32.9929260656352454  21.8498995176667101 -22.2172620262860150 0 0 0
200       24   2   -0.0217280000000000   31.9715736655817970  23.3643526324777682 -23.9493903780671893 0 0 0
201       25   1   -0.2033700000000000   33.3162934465213070 -21.5318674513860060  14.4947120423741609 0 0 0
202       25   3    0.4284680000000000   32.2937261314949637 -22.8585426580374040  13.8582246385739865 0 0 0
203       25   1   -0.2033700000000000   31.8610214841138273 -23.9551245191079722  15.2032061244710164 0 0 0
204       25   3    0.4284680000000000   31.0831881257485634 -22.3145590124045441  13.0824078380163211 0 0 0
205       25   1   -0.2033700000000000   30.2073174253869539 -23.6242417970818472  12.2289419135249062 0 0 0
206       25   1   -0.2033700000000000   29.9233049120655501 -21.4024401628647354  14.0930506308123462 0 0 0
207       25   2   -0.0217280000000000   32.9369274632114468 -23.4332186942103391  13.1846550284172359 0 0 0
208       25   2   -0.0217280000000000   31.4227020643258115 -21.6260635998132003  12.3024365207536661 0 0 0
209       26   1   -0.2033700000000000   33.2448666343704318 -21.5946447083722930  3.4022739849549892  0 0 0
210       26   3    0.4284680000000000   31.8038678917505990 -22.5968688600290122  3.7626857029998222  0 0 0
211       26   1   -0.2033700000000000   32.1460638949674831 -24.2919324574341218  3.3062192930259400  0 0 0
212       26   3    0.4284680000000000   31.3466763732523646 -22.4231442660098352  5.2200833354070415  0 0 0
213       26   1   -0.2033700000000000   29.7655972601112779 -23.2144359702658534  5.5114059079355382  0 0 0
214       26   1   -0.2033700000000000   32.5252730261306766 -23.0180450858508188  6.4266038135078372  0 0 0
215       26   2   -0.0217280000000000   31.0198743952523408 -22.2456848907455083  3.0846882571589624  0 0 0
216       26   2   -0.0217280000000000   31.1922615770332214 -21.3613016561985916  5.4352512839910450  0 0 0
217       27   1   -0.2033700000000000   24.0099498637491209 -13.1906867015873086  11.9100282632125598 0 0 0
218       27   3    0.4284680000000000   23.0119883796964295 -12.9286852134766423  13.3750386145326932 0 0 0
219       27   1   -0.2033700000000000   21.8609378189382682 -11.5957943941330051  13.0632935943835751 0 0 0
220       27   3    0.4284680000000000   22.3453021771110905 -14.2322809729835082  13.8434185683928810 0 0 0
221       27   1   -0.2033700000000000   21.5636901365214548 -14.0324256728084809  15.4434070188190962 0 0 0
222       27   1   -0.2033700000000000   21.1475812427467851 -14.8904849021509094  12.6897631299217153 0 0 0
223       27   2   -0.0217280000000000   23.7017660628729274 -12.5687072010477117  14.1446353256479309 0 0 0
224       27   2   -0.0217280000000000   23.1048422132699187 -15.0085696787559950  13.9780502220331861 0 0 0
225       28   1   -0.2033700000000000   22.0761883647533885 -24.4632775031773484  23.6349746124417166 0 0 0
226       28   3    0.4284680000000000   22.2409264279633199 -23.2360208141595699  22.3397797920803356 0 0 0
227       28   1   -0.2033700000000000   20.6105135792121814 -22.7600214950334241  21.7795308490928008 0 0 0
228       28   3    0.4284680000000000   23.1155037108138188 -22.0548329905934253  22.7904704619204459 0 0 0
229       28   1   -0.2033700000000000   23.4954970355139352 -20.9597617883524059  21.4239981059227880 0 0 0
230       28   1   -0.2033700000000000   22.4090060586176278 -21.0957860043581817  24.1245539170814673 0 0 0
231       28   2   -0.0217280000000000   22.7187295282441539 -23.7510697578367953  21.5006818821919801 0 0 0
232       28   2   -0.0217280000000000   24.0796931897875446 -22.4252875413948836  23.1520682741744217 0 0 0
233       29   1   -0.2033700000000000   24.4557990309951130 -3.5154805189383471  -31.0189252250108183 0 0 0
234       29   3    0.4284680000000000   23.1348111780113186 -4.7224429321728820  -31.1141095630519651 0 0 0
235       29   1   -0.2033700000000000   22.3314588278829440 -4.8315897986204943  -29.5199288172179521 0 0 0
236       29   3    0.4284680000000000   22.1760259342000943 -4.4181837957558994  -32.2765937187533041 0 0 0
237       29   1   -0.2033700000000000   21.0125390415815154 -5.7560408787609134  -32.5359375844183774 0 0 0
238       29   1   -0.2033700000000000   21.2694965245088383 -2.8879731271753148  -32.0885818605448847 0 0 0
239       29   2   -0.0217280000000000   23.6242693498610841 -5.6869205800825062  -31.2810529189910795 0 0 0
240       29   2   -0.0217280000000000   22.7416580078650910 -4.3305799474748792  -33.2093513648799856 0 0 0
241       30   1   -0.2033700000000000  -4.3865510518881399   31.2855313712734819  33.8015082529525372 0 0 0
242       30   3    0.4284680000000000  -4.5985831409081985   32.1176564305668606  32.2287916504389855 0 0 0
243       30   1   -0.2033700000000000  -3.3363195061486848   33.3735450206765236  32.0610577752197372 0 0 0
244       30   3    0.4284680000000000  -4.6418852400106401   31.1167027565154015  31.0628461762781107 0 0 0
245       30   1   -0.2033700000000000  -5.1112965093438456   31.9149265813420158  29.5287945636515374 0 0 0
246       30   1   -0.2033700000000000  -3.1099241971567828   30.2288538024627300  30.8108376096267058 0 0 0
247       30   2   -0.0217280000000000  -5.5542907622994724   32.6463006404061957  32.2981801308805458 0 0 0
248       30   2   -0.0217280000000000  -5.4103611712254445   30.3609644496252429  31.2524648938202567 0 0 0
249       31   1   -0.2033700000000000   5.4477225755436338   33.3640318889248491 -23.5839204545605412 0 0 0
250       31   3    0.4284680000000000   4.3338847439562587   32.3836878035637028 -22.5793718036121973 0 0 0
251       31   1   -0.2033700000000000   2.6762999190957188   32.5341572878046463 -23.2339493544068461 0 0 0
252       31   3    0.4284680000000000   4.8234308259681811   30.9324269759318078 -22.4474672098029266 0 0 0
253       31   1   -0.2033700000000000   3.8616309621602172   30.0217562982291533 -21.2406356129131169 0 0 0
254       31   1   -0.2033700000000000   4.8304361808179026   30.0255677345464420 -23.9889749006748794 0 0 0
255       31   2   -0.0217280000000000   4.3226782753392250   32.8612428448740914 -21.5947540519033581 0 0 0
256       31   2   -0.0217280000000000   5.8531280961000345   30.9216102189937487 -22.0769845070321402 0 0 0
257       32   1   -0.2033700000000000  -21.1036196971498171  23.2353325352149120  24.0826297278928223 0 0 0
258       32   3    0.4284680000000000  -22.2567901564987558  23.2819101183965778  22.7119161716273652 0 0 0
259       32   1   -0.2033700000000000  -21.3670751687385909  23.7007047943592255  21.2180224179620396 0 0 0
260       32   3    0.4284680000000000  -23.0661556125455789  21.9787973745413723  22.6117317743376347 0 0 0
261       32   1   -0.2033700000000000  -24.3921607993454010  22.1193685065840100  21.4147469933498975 0 0 0
262       32   1   -0.2033700000000000  -22.0794846323735463  20.5395701955896044  22.2195657075331638 0 0 0
263       32   2   -0.0217280000000000  -22.9295037870801366  24.1203422641270535  22.9172072518909999 0 0 0
264       32   2   -0.0217280000000000  -23.5512680411741755  21.7700321060932822  23.5702378503120435 0 0 0
265       33   1   -0.2033700000000000   12.5791241787497974 -12.8652714379510478  20.7444005460031313 0 0 0
266       33   3    0.4284680000000000   13.8201748714688399 -13.5082925679787476  21.8656249826523990 0 0 0
267       33   1   -0.2033700000000000   15.2202335480295190 -12.3955290091885768  21.8827495765395597 0 0 0
268       33   3    0.4284680000000000   13.2305686567427596 -13.7909387667755592  23.2569149653526708 0 0 0
269       33   1   -0.2033700000000000   14.3941322039987352 -14.6712677106666156  24.2970896557507778 0 0 0
270       33   1   -0.2033700000000000   12.6717315636826324 -12.3273755191164653  24.1196851799646907 0 0 0
271       33   2   -0.0217280000000000   14.1720847279338376 -14.4420721481239358  21.4163236716965315 0 0 0