LAMMPS data file via vdw_self_gen.py, on 2021-08-05 13:24:08.324289

9000 atoms
8 atom types
8500 bonds
8 bond types
15500 angles
13 angle types
19500 dihedrals
11 dihedral types

-47.6877289811311584  47.6877289811311584 xlo xhi
-47.6877289811311584  47.6877289811311584 ylo yhi
-47.6877289811311584  47.6877289811311584 zlo zhi

Masses

1  1.007940
2  1.007940
3  1.007940
4  12.011000
5  12.011000
6  12.011000
7  12.011000
8  15.999400

Atoms

1         0    4   -0.1079060000000000  -3.4861887824825457  -27.5102475041602261 -5.5356516896008490  0 0 0
2         0    7   -0.1113290000000000  -4.9245661747388967  -27.4717858065468334 -5.0321183584672342  0 0 0
3         0    5    0.6359480000000000  -5.7183236733361991  -26.2211045003164465 -5.4586628808402304  0 0 0
4         0    6   -0.1910640000000000  -7.1627405489597500  -26.3238408007678437 -4.9584977663195753  0 0 0
5         0    6   -0.1910640000000000  -5.0855647969723643  -24.9268263779277959 -4.9455298585264345  0 0 0
6         0    8   -0.7223670000000000  -5.7518624470516713  -26.1441023233635583 -6.8853325160053513  0 0 0
7         0    1    0.0285690000000000  -3.0195786759023813  -28.4609588448622013 -5.2573622341809516  0 0 0
8         0    1    0.0285690000000000  -2.8860111280490242  -26.7087788323143940 -5.0953921894553620  0 0 0
9         0    1    0.0285690000000000  -3.4406884176283858  -27.4215359477760039 -6.6252888730532247  0 0 0
10        0    2    0.0140440000000000  -4.9203559719774574  -27.5579012849568343 -3.9386432268017146  0 0 0
11        0    2    0.0140440000000000  -5.4287415060582234  -28.3657268838840508 -5.4216835839920678  0 0 0
12        0    1    0.0285690000000000  -7.2092008653684720  -26.3577857678045469 -3.8651166031326110  0 0 0
13        0    1    0.0285690000000000  -7.6509976977671492  -27.2218866844399052 -5.3540141119465758  0 0 0
14        0    1    0.0285690000000000  -7.7581274725435447  -25.4717763501469499 -5.3061032983721308  0 0 0
15        0    1    0.0285690000000000  -4.9744931790762426  -24.9367302568529290 -3.8564835144344243  0 0 0
16        0    1    0.0285690000000000  -5.6980699155736430  -24.0601987101104271 -5.2210823226066152  0 0 0
17        0    1    0.0285690000000000  -4.1035734106913875  -24.7534861406172801 -5.3983204334052619  0 0 0
18        0    3    0.4025730000000000  -6.1563732980849464  -26.9626167944633046 -7.2201745011216705  0 0 0
19        1    4   -0.1079060000000000  -15.6088199125128941 -14.4404194339782936 -17.3705931700771679 0 0 0
20        1    7   -0.1113290000000000  -15.7919434648334605 -15.9003780342649232 -16.9719187536235907 0 0 0
21        1    5    0.6359480000000000  -16.1349513430250688 -16.1192019054707245 -15.4850910451149684 0 0 0
22        1    6   -0.1910640000000000  -16.3647523255991665 -17.6098369713150227 -15.2162814309205654 0 0 0
23        1    6   -0.1910640000000000  -15.0455662328459319 -15.5887108395054099 -14.5519970182607743 0 0 0
24        1    8   -0.7223670000000000  -17.3434046761011977 -15.4245126401697004 -15.1696741797562584 0 0 0
25        1    1    0.0285690000000000  -15.4465581719492775 -14.3670271214221117 -18.4510128857001874 0 0 0
26        1    1    0.0285690000000000  -14.7394443424282837 -13.9963907978164066 -16.8772187030561511 0 0 0
27        1    1    0.0285690000000000  -16.4922352358675397 -13.8438826722512189 -17.1236711715221972 0 0 0
28        1    2    0.0140440000000000  -14.8829450898079187 -16.4562451500507478 -17.2324090006365509 0 0 0
29        1    2    0.0140440000000000  -16.6034464683396124 -16.3061553176432703 -17.5898929852826278 0 0 0
30        1    1    0.0285690000000000  -15.4625858422292257 -18.1984804305236807 -15.4122092339878805 0 0 0
31        1    1    0.0285690000000000  -17.1756247689640205 -17.9999789792594491 -15.8420527361340611 0 0 0
32        1    1    0.0285690000000000  -16.6707229203098173 -17.7768426948654117 -14.1771375014411962 0 0 0
33        1    1    0.0285690000000000  -14.0717800047454009 -16.0372328839391933 -14.7734135675941083 0 0 0
34        1    1    0.0285690000000000  -15.2932787391067855 -15.8031641959928315 -13.5056780097680296 0 0 0
35        1    1    0.0285690000000000  -14.9552778714020800 -14.4993621519343794 -14.6193815415213688 0 0 0
36        1    3    0.4025730000000000  -18.0430364767192302 -15.7585516663841307 -15.7567409523892241 0 0 0
37        2    4   -0.1079060000000000   25.5067091599669915  15.2682012254065160 -24.7587042523043728 0 0 0
38        2    7   -0.1113290000000000   26.2549447965558684  16.3434443942799170 -25.5384158658061367 0 0 0
39        2    5    0.6359480000000000   26.5452922341897732  15.9821340896040009 -27.0085682916091301 0 0 0
40        2    6   -0.1910640000000000   27.2337772558798470  17.1579567124676231 -27.7089178716550748 0 0 0
41        2    6   -0.1910640000000000   27.4082470846447883  14.7264030640658774 -27.1400736902706790 0 0 0
42        2    8   -0.7223670000000000   25.3134204983886555  15.7271134279682787 -27.6867252949448037 0 0 0
43        2    1    0.0285690000000000   25.2721138822933895  15.6327340091817941 -23.7531680912707195 0 0 0
44        2    1    0.0285690000000000   26.1089844752650109  14.3620003847238831 -24.6470881368516395 0 0 0
45        2    1    0.0285690000000000   24.5640715453389085  15.0024012575084242 -25.2465914519249957 0 0 0
46        2    2    0.0140440000000000   27.1922432700632299  16.5727574323325477 -25.0168714600842073 0 0 0
47        2    2    0.0140440000000000   25.6408840555151336  17.2528868298057496 -25.5079471576395456 0 0 0
48        2    1    0.0285690000000000   28.2024128992083689  17.3874771706681273 -27.2530028142803751 0 0 0
49        2    1    0.0285690000000000   26.6095890211838011  18.0579625761570384 -27.6677702691525624 0 0 0
50        2    1    0.0285690000000000   27.3916229397801558  16.9415699148163057 -28.7717398306756138 0 0 0
51        2    1    0.0285690000000000   28.3517662370081247  14.8268390893650714 -26.5940506645238983 0 0 0
52        2    1    0.0285690000000000   27.6395968255949143  14.5236071158528173 -28.1924454383476899 0 0 0
53        2    1    0.0285690000000000   26.8822731200298470  13.8381831047028534 -26.7743006491148421 0 0 0
54        2    3    0.4025730000000000   24.7593405104047868  16.5227020878802051 -27.6109085808552450 0 0 0
55        3    4   -0.1079060000000000   5.3801734384029984  -25.7677042845662321  28.4534369558490994 0 0 0
56        3    7   -0.1113290000000000   5.0802452920945687  -26.8954495784716094  27.4725249825170046 0 0 0
57        3    5    0.6359480000000000   5.4879277667601167  -26.6010372433528595  26.0153663423269599 0 0 0
58        3    6   -0.1910640000000000   5.2060463526757808  -27.8242689581537768  25.1371254641511470 0 0 0
59        3    6   -0.1910640000000000   4.7669963846363217  -25.3790312599162391  25.4445734981057186 0 0 0
60        3    8   -0.7223670000000000   6.8908390600075657  -26.3342174057900635  25.9598009748600305 0 0 0
61        3    1    0.0285690000000000   5.1345704322561696  -26.0852065208797619  29.4722075675215933 0 0 0
62        3    1    0.0285690000000000   4.7840529747494518  -24.8771432850877297  28.2344959242416600 0 0 0
63        3    1    0.0285690000000000   6.4388341462914047  -25.4917528833461375  28.4350645652074867 0 0 0
64        3    2    0.0140440000000000   4.0106343165760618  -27.1334795063343712  27.5214696399577718 0 0 0
65        3    2    0.0140440000000000   5.6221569547373997  -27.7833360446723638  27.8233438138661953 0 0 0
66        3    1    0.0285690000000000   4.1384431828594499  -28.0660476729600603  25.1134671745944651 0 0 0
67        3    1    0.0285690000000000   5.7520122238599445  -28.7019969299688782  25.5015832905117037 0 0 0
68        3    1    0.0285690000000000   5.5475636282355305  -27.6545587277148215  24.1095587213657403 0 0 0
69        3    1    0.0285690000000000   3.6793926951740334  -25.4875853663703111  25.5061458241944266 0 0 0
70        3    1    0.0285690000000000   5.0384617094738466  -25.2247888808771705  24.3935496823340614 0 0 0
71        3    1    0.0285690000000000   5.0595589401644414  -24.4611835021236317  25.9654725957416623 0 0 0
72        3    3    0.4025730000000000   7.3575484633072588  -27.1085017607255097  26.3181027939648793 0 0 0
73        4    4   -0.1079060000000000  -26.2531516018109734 -27.8600785678683245  6.8637386863002128  0 0 0
74        4    7   -0.1113290000000000  -25.6514897862506679 -26.9151007697544244  5.8298263780900417  0 0 0
75        4    5    0.6359480000000000  -26.6835774457971269 -26.0633162616634202  5.0646772810585716  0 0 0
76        4    6   -0.1910640000000000  -25.9645638051680514 -25.1061920775185676  4.1086476368976932  0 0 0
77        4    6   -0.1910640000000000  -27.6810950323981970 -26.9198624315496033  4.2835675092755761  0 0 0
78        4    8   -0.7223670000000000  -27.4316966015588228 -25.2763476838282131  5.9938912600657970  0 0 0
79        4    1    0.0285690000000000  -25.4539460855251320 -28.3674954073515941  7.4140302087200034  0 0 0
80        4    1    0.0285690000000000  -26.8676730692002010 -28.6318920398331258  6.3914453379335123  0 0 0
81        4    1    0.0285690000000000  -26.8686198732463097 -27.3202125272436476  7.5896813011373903  0 0 0
82        4    2    0.0140440000000000  -25.0497573875432025 -27.4991083351399013  5.1227374523400435  0 0 0
83        4    2    0.0140440000000000  -24.9614409753938098 -26.2480146544871324  6.3626614678247737  0 0 0
84        4    1    0.0285690000000000  -25.3925354594838950 -25.6492803917650676  3.3492848484607434  0 0 0
85        4    1    0.0285690000000000  -25.2782995218519169 -24.4492250071817843  4.6552281288087123  0 0 0
86        4    1    0.0285690000000000  -26.6806349106975418 -24.4493186284821853  3.6016087168167661  0 0 0
87        4    1    0.0285690000000000  -27.1737548507568043 -27.5946165560072494  3.5865956717387393  0 0 0
88        4    1    0.0285690000000000  -28.3696319164639732 -26.2875271293496127  3.7106764024562913  0 0 0
89        4    1    0.0285690000000000  -28.3107208962771679 -27.5142296748681119  4.9541434385368506  0 0 0
90        4    3    0.4025730000000000  -26.8047005918877410 -24.7254716674195798  6.4930162358006331  0 0 0
91        5    4   -0.1079060000000000  -35.3651147486692139  14.7853810306410143 -26.8999848559032166 0 0 0
92        5    7   -0.1113290000000000  -36.4534045051497557  15.2291425365453073 -25.9290802405485046 0 0 0
93        5    5    0.6359480000000000  -37.5840975537838631  16.0573761710467089 -26.5707633417371589 0 0 0
94        5    6   -0.1910640000000000  -38.6509388497670159  16.3855329669272294 -25.5213717245120044 0 0 0
95        5    6   -0.1910640000000000  -37.0704349651982596  17.3502557295055659 -27.2059470511526023 0 0 0
96        5    8   -0.7223670000000000  -38.2057772482079869  15.2909538693950875 -27.6044710594077571 0 0 0
97        5    1    0.0285690000000000  -34.6462688964167924  14.1403514539431860 -26.3840201751502548 0 0 0
98        5    1    0.0285690000000000  -34.8115516482978009  15.6401113400632799 -27.2992312314185277 0 0 0
99        5    1    0.0285690000000000  -35.7824174972946523  14.2182928048675947 -27.7375519130268913 0 0 0
100       5    2    0.0140440000000000  -35.9906934444966637  15.7964460127709785 -25.1122652644299471 0 0 0
101       5    2    0.0140440000000000  -36.8823179924322275  14.3212462429983329 -25.4854114226326587 0 0 0
102       5    1    0.0285690000000000  -38.2439187023367211  16.9991551864992374 -24.7110658803807013 0 0 0
103       5    1    0.0285690000000000  -39.0672266411279310  15.4695308277031458 -25.0866773630340241 0 0 0
104       5    1    0.0285690000000000  -39.4930438638697936  16.9210944026860410 -25.9745406957036877 0 0 0
105       5    1    0.0285690000000000  -36.5293398344696953  17.9677295841361051 -26.4817930419463146 0 0 0
106       5    1    0.0285690000000000  -37.9016211674614425  17.9410004739312505 -27.6087935969994298 0 0 0
107       5    1    0.0285690000000000  -36.4113604786228251  17.1451101438258284 -28.0561878024233522 0 0 0
108       5    3    0.4025730000000000  -38.5386776982335135  14.4676631093011387 -27.2081331509045015 0 0 0
109       6    4   -0.1079060000000000  -16.4567326314700537 -35.1427579846045219 -36.5732380263375063 0 0 0
110       6    7   -0.1113290000000000  -16.7290882894739568 -36.4420053293608461 -37.3227267674116447 0 0 0
111       6    5    0.6359480000000000  -15.7480906276401296 -37.5857181693398061 -36.9975199823597052 0 0 0
112       6    6   -0.1910640000000000  -16.1586596224988703 -38.8554288891654167 -37.7500675145599018 0 0 0
113       6    6   -0.1910640000000000  -14.3015449673769304 -37.2274574162270540 -37.3410313182029086 0 0 0
114       6    8   -0.7223670000000000  -15.7972656008540824 -37.8694167641645834 -35.5976852200381515 0 0 0
115       6    1    0.0285690000000000  -17.2394660278668290 -34.4112396569884424 -36.7995816421673823 0 0 0
116       6    1    0.0285690000000000  -15.5003253681195492 -34.7023215043219935 -36.8693706482263153 0 0 0
117       6    1    0.0285690000000000  -16.4480736627489499 -35.2992206444164438 -35.4903282086032306 0 0 0
118       6    2    0.0140440000000000  -16.7228221804611970 -36.2381803170974024 -38.4004732892124068 0 0 0
119       6    2    0.0140440000000000  -17.7473916720379421 -36.7591838807916034 -37.0628412792230719 0 0 0
120       6    1    0.0285690000000000  -16.1143166584987085 -38.7131747197306950 -38.8347751445792184 0 0 0
121       6    1    0.0285690000000000  -17.1775355107824552 -39.1573566405805522 -37.4816533021945162 0 0 0
122       6    1    0.0285690000000000  -15.5082377766078991 -39.6959689610809505 -37.4821629931497071 0 0 0
123       6    1    0.0285690000000000  -14.1959548371988689 -36.9418119228337858 -38.3925608266871450 0 0 0
124       6    1    0.0285690000000000  -13.6353863274359561 -38.0762899933398558 -37.1464776807041019 0 0 0
125       6    1    0.0285690000000000  -13.9315118514384064 -36.4088617286568734 -36.7146529830887971 0 0 0
126       6    3    0.4025730000000000  -16.7139702742761287 -38.1018112131353348 -35.3710589090904506 0 0 0
127       7    4   -0.1079060000000000   25.9822093033008272  35.7983319131945521 -28.0567957516066890 0 0 0
128       7    7   -0.1113290000000000   26.2324786704483657  36.0443967099883125 -26.5732958358849487 0 0 0
129       7    5    0.6359480000000000   26.4530090416250019  37.5232877049951128 -26.1985389731372678 0 0 0
130       7    6   -0.1910640000000000   26.6230965563573214  37.6577264882893488 -24.6819452732035849 0 0 0
131       7    6   -0.1910640000000000   27.6638043578335733  38.1297558069876033 -26.9091839589163904 0 0 0
132       7    8   -0.7223670000000000   25.3065390228104050  38.2858552318629606 -26.5813413966221468 0 0 0
133       7    1    0.0285690000000000   25.7585260129797469  34.7398791704745236 -28.2261050631036632 0 0 0
134       7    1    0.0285690000000000   26.8609316148868729  36.0483842101152945 -28.6582229078156026 0 0 0
135       7    1    0.0285690000000000   25.1321142444581689  36.3825029349249931 -28.4219420555750126 0 0 0
136       7    2    0.0140440000000000   27.0936787826101977  35.4446645718769133 -26.2542704539342751 0 0 0
137       7    2    0.0140440000000000   25.3582350351619681  35.6638675303832997 -26.0292553143883048 0 0 0
138       7    1    0.0285690000000000   27.5058818682055666  37.1167259377622116 -24.3258530276908047 0 0 0
139       7    1    0.0285690000000000   25.7437732222718054  37.2716559504756262 -24.1536890416596925 0 0 0
140       7    1    0.0285690000000000   26.7188788301821631  38.7101875708221854 -24.3912900677199040 0 0 0
141       7    1    0.0285690000000000   28.5766707528118680  37.5603101237949915 -26.7070367612790491 0 0 0
142       7    1    0.0285690000000000   27.8250337858675891  39.1647440419665500 -26.5852401051531579 0 0 0
143       7    1    0.0285690000000000   27.5107514204277628  38.1772369208316107 -27.9925553483667393 0 0 0
144       7    3    0.4025730000000000   24.5316772890723875  37.9086929170900575 -26.1307284752543048 0 0 0
145       8    4   -0.1079060000000000   16.5167196375374701  26.4642869115428390  39.0877850353758163 0 0 0
146       8    7   -0.1113290000000000   15.4906042745011110  26.8480382617522437  38.0277016408953585 0 0 0
147       8    5    0.6359480000000000   15.7807440686568885  26.2838192206182910  36.6228277321871332 0 0 0
148       8    6   -0.1910640000000000   14.6532435881153944  26.6723671915449181  35.6611452791562513 0 0 0
149       8    6   -0.1910640000000000   17.1216064837644630  26.7657797826883055  36.0672675170339687 0 0 0
150       8    8   -0.7223670000000000   15.8322362755628525  24.8569978260115896  36.6858332321099851 0 0 0
151       8    1    0.0285690000000000   16.1975935841381720  26.8365400554675340  40.0668704375650080 0 0 0
152       8    1    0.0285690000000000   17.4963571491230638  26.9012621067031148  38.8738768751550481 0 0 0
153       8    1    0.0285690000000000   16.6282398212094833  25.3783860948268369  39.1628308872884929 0 0 0
154       8    2    0.0140440000000000   15.4169037168271981  27.9415691055453550  37.9843428301220527 0 0 0
155       8    2    0.0140440000000000   14.5163018199775582  26.4748196659715980  38.3690622805023338 0 0 0
156       8    1    0.0285690000000000   14.5786105093050136  27.7585689684363679  35.5454353261481302 0 0 0
157       8    1    0.0285690000000000   13.6877740885174628  26.2947498668554047  36.0169379626679458 0 0 0
158       8    1    0.0285690000000000   14.8121672814417291  26.2268938090337649  34.6723956911039508 0 0 0
159       8    1    0.0285690000000000   17.1779581657941804  27.8587808431545128  36.0421657152625698 0 0 0
160       8    1    0.0285690000000000   17.2769526705172751  26.3897368709372770  35.0491346739416940 0 0 0
161       8    1    0.0285690000000000   17.9610904608509223  26.3831184742506970  36.6573608999318878 0 0 0
162       8    3    0.4025730000000000   14.9812702909467905  24.5415747559709487  37.0352317193885554 0 0 0
163       9    4   -0.1079060000000000  -6.8181354694021330  -14.8768312719388245  25.4791975312495680 0 0 0
164       9    7   -0.1113290000000000  -6.3793579158964757  -15.9025333263916604  26.5181220686105910 0 0 0
165       9    5    0.6359480000000000  -4.8606619917193852  -15.9384375660483588  26.7797869332037699 0 0 0
166       9    6   -0.1910640000000000  -4.5453490013653468  -16.9501809945969590  27.8861381218878677 0 0 0
167       9    6   -0.1910640000000000  -4.0611453770756043  -16.2830481125506310  25.5224636229736817 0 0 0
168       9    8   -0.7223670000000000  -4.4251302032132820  -14.6517849334682850  27.2239462478369667 0 0 0
169       9    1    0.0285690000000000  -7.9108408680396671  -14.8607701677657715  25.4102118905615804 0 0 0
170       9    1    0.0285690000000000  -6.4301289193416720  -15.1212193545006652  24.4861622556868461 0 0 0
171       9    1    0.0285690000000000  -6.4848705242371958  -13.8692069215415543  25.7454246144148833 0 0 0
172       9    2    0.0140440000000000  -6.7295428815269629  -16.8945346428531629  26.2075977652380345 0 0 0
173       9    2    0.0140440000000000  -6.8981405722061195  -15.6584909185067147  27.4542803554755892 0 0 0
174       9    1    0.0285690000000000  -4.8301154789010328  -17.9667401149855657  27.5957783488016766 0 0 0
175       9    1    0.0285690000000000  -5.0721902885098693  -16.6940958490694307  28.8125145511001222 0 0 0
176       9    1    0.0285690000000000  -3.4764396570057903  -16.9437114759718241  28.1284601835528889 0 0 0
177       9    1    0.0285690000000000  -4.3812648545716639  -17.2364668649305877  25.0900597221611470 0 0 0
178       9    1    0.0285690000000000  -2.9907750391748094  -16.3506236476909024  25.7502268381613710 0 0 0
179       9    1    0.0285690000000000  -4.1547813107657428  -15.5016172487107387  24.7609051273475025 0 0 0
180       9    3    0.4025730000000000  -4.9265876093095500  -14.4260804752652589  28.0260136330475120 0 0 0
181       10   4   -0.1079060000000000  -27.1469442538767396 -26.4025150921921323 -7.2835645288793884  0 0 0
182       10   7   -0.1113290000000000  -26.0128263882878308 -26.4373644974242339 -6.2654698249313627  0 0 0
183       10   5    0.6359480000000000  -26.4640768418984571 -26.6928867305078512 -4.8138237446431393  0 0 0
184       10   6   -0.1910640000000000  -25.2415876353933122 -26.7772569201237474 -3.8943337714065658  0 0 0
185       10   6   -0.1910640000000000  -27.4203767930384146 -25.6143212913033871 -4.3029106902949543  0 0 0
186       10   8   -0.7223670000000000  -27.1532565886838135 -27.9429369012693734 -4.7442085185790548  0 0 0
187       10   1    0.0285690000000000  -26.7375121680418850 -26.2957967325325548 -8.2935143418406518  0 0 0
188       10   1    0.0285690000000000  -27.8158629694480446 -25.5548251480041415 -7.1093141722628239  0 0 0
189       10   1    0.0285690000000000  -27.7371875421530838 -27.3234814783971665 -7.2574304299817616  0 0 0
190       10   2    0.0140440000000000  -25.4542887112313885 -25.4951567289919048 -6.3237934857745604  0 0 0
191       10   2    0.0140440000000000  -25.3255819609569777 -27.2364248024909195 -6.5725239005750620  0 0 0
192       10   1    0.0285690000000000  -24.6823670690583299 -25.8360564239903496 -3.8799402288880378  0 0 0
193       10   1    0.0285690000000000  -24.5648278985832604 -27.5774254682492064 -4.2153340602282263  0 0 0
194       10   1    0.0285690000000000  -25.5404823707405697 -27.0205074064499406 -2.8682635200184037  0 0 0
195       10   1    0.0285690000000000  -26.9789451858703515 -24.6154289794045269 -4.3791289041442445  0 0 0
196       10   1    0.0285690000000000  -27.6836363837317982 -25.7950705903365360 -3.2540259138743188  0 0 0
197       10   1    0.0285690000000000  -28.3670301111254233 -25.6241680071005860 -4.8534774554041951  0 0 0
198       10   3    0.4025730000000000  -26.5504989391918542 -28.6356666125429840 -5.0644004705355510  0 0 0
199       11   4   -0.1079060000000000  -28.3906859654335015 -5.0849124223483892   37.9444859586293148 0 0 0
200       11   7   -0.1113290000000000  -27.4941898678234331 -5.1435302054126035   36.7128961962577094 0 0 0
201       11   5    0.6359480000000000  -26.0317465649500335 -5.5340731385723503   37.0043249682410575 0 0 0
202       11   6   -0.1910640000000000  -25.2457522667702818 -5.6299056697999763   35.6928032989624242 0 0 0
203       11   6   -0.1910640000000000  -25.3425111066769304 -4.5473896003559968   37.9478583437884822 0 0 0
204       11   8   -0.7223670000000000  -25.9993352115659597 -6.8181986420234537   37.6307526400901367 0 0 0
205       11   1    0.0285690000000000  -29.4233325350994406 -4.8792412100996758   37.6438824315220728 0 0 0
206       11   1    0.0285690000000000  -28.0824635925061443 -4.2875298508716071   38.6268155562814357 0 0 0
207       11   1    0.0285690000000000  -28.3837282577772143 -6.0330794252500759   38.4905446916540939 0 0 0
208       11   2    0.0140440000000000  -27.5282259648090672 -4.1732521571036933   36.2024811513463902 0 0 0
209       11   2    0.0140440000000000  -27.9318752613232206 -5.8811717180985035   36.0277677597734396 0 0 0
210       11   1    0.0285690000000000  -25.2078180065950583 -4.6663006040390336   35.1743252773020885 0 0 0
211       11   1    0.0285690000000000  -25.6963411559807966 -6.3680738940854003   35.0194594360102585 0 0 0
212       11   1    0.0285690000000000  -24.2191982898912812 -5.9673340793386345   35.8762645310800607 0 0 0
213       11   1    0.0285690000000000  -25.3781983203083286 -3.5250432805642942   37.5579976559888635 0 0 0
214       11   1    0.0285690000000000  -24.2916127889299354 -4.8226175643063973   38.0961738487643302 0 0 0
215       11   1    0.0285690000000000  -25.7972647631365817 -4.5607008799873388   38.9440486604806040 0 0 0
216       11   3    0.4025730000000000  -26.4330098917343506 -7.4531036200048648   37.0353233296633917 0 0 0
217       12   4   -0.1079060000000000  -16.4058006928492723  15.1218533661468939 -3.4234267612972111  0 0 0
218       12   7   -0.1113290000000000  -16.4321328388057530  16.2624620442694372 -4.4345019819315894  0 0 0
219       12   5    0.6359480000000000  -15.8699101912773148  15.8993687447083012 -5.8231213957091432  0 0 0
220       12   6   -0.1910640000000000  -16.0113634101923488  17.0936767784645767 -6.7721626525382597  0 0 0
221       12   6   -0.1910640000000000  -14.4064633640870632  15.4595591121778089 -5.7619983769668419  0 0 0
222       12   8   -0.7223670000000000  -16.6202912834799896  14.8127353099057757 -6.3695611703723536  0 0 0
223       12   1    0.0285690000000000  -16.8914150045982936  15.4369336296729411 -2.4939509769645145  0 0 0
224       12   1    0.0285690000000000  -15.3812889792397414  14.8295779699292467 -3.1757485068163609  0 0 0
225       12   1    0.0285690000000000  -16.9384128097028217  14.2423691374150820 -3.7977007777514871  0 0 0
226       12   2    0.0140440000000000  -15.8835416119765114  17.1170703746861079 -4.0199977811948493  0 0 0
227       12   2    0.0140440000000000  -17.4785970948231224  16.5759157089730422 -4.5428709828584477  0 0 0
228       12   1    0.0285690000000000  -15.4335079305461900  17.9559508526667777 -6.4237955252118564  0 0 0
229       12   1    0.0285690000000000  -17.0606624992287905  17.3956026601168077 -6.8676970229806074  0 0 0
230       12   1    0.0285690000000000  -15.6733592577034209  16.8327590820306163 -7.7816200173079864  0 0 0
231       12   1    0.0285690000000000  -13.7747395174983396  16.2246275661791053 -5.2993406492207065  0 0 0
232       12   1    0.0285690000000000  -14.0204031891002998  15.2567374891244096 -6.7679586773322002  0 0 0
233       12   1    0.0285690000000000  -14.2918476391000056  14.5237458534585464 -5.2047820763340251  0 0 0
234       12   3    0.4025730000000000  -17.5526365725776436  15.0854282068615611 -6.4152226294738242  0 0 0
235       13   4   -0.1079060000000000  -37.3047358752907599  3.4979406833675331  -27.5358439015213818 0 0 0
236       13   7   -0.1113290000000000  -37.5200386194744837  4.3304542684380092  -26.2770665187725321 0 0 0
237       13   5    0.6359480000000000  -37.1362985084979798  5.8165870923099776  -26.4197118234203323 0 0 0
238       13   6   -0.1910640000000000  -37.4595122575012027  6.5659551272766672  -25.1231623949659308 0 0 0
239       13   6   -0.1910640000000000  -35.6597850264232221  6.0056492179799736  -26.7704376453790402 0 0 0
240       13   8   -0.7223670000000000  -37.9041931215192776  6.4061554663673430  -27.4709907721795190 0 0 0
241       13   1    0.0285690000000000  -37.6730089711011402  2.4791956540159621  -27.3759828431809886 0 0 0
242       13   1    0.0285690000000000  -36.2438842156043464  3.4269333567431346  -27.7926422504378685 0 0 0
243       13   1    0.0285690000000000  -37.8430372338599810  3.9179675488148518  -28.3908633718640537 0 0 0
244       13   2    0.0140440000000000  -36.9593208152282813  3.8764022309905455  -25.4508984025327969 0 0 0
245       13   2    0.0140440000000000  -38.5846041080600983  4.2589072129590875  -26.0188692709855829 0 0 0
246       13   1    0.0285690000000000  -36.8791851420577785  6.1795686402461243  -24.2789354636723864 0 0 0
247       13   1    0.0285690000000000  -38.5246144189826012  6.4830255306610756  -24.8782242398883078 0 0 0
248       13   1    0.0285690000000000  -37.2506616710662897  7.6367734495893922  -25.2283221583983206 0 0 0
249       13   1    0.0285690000000000  -35.0061895531012084  5.5273448995303172  -26.0338951368261426 0 0 0
250       13   1    0.0285690000000000  -35.4055260869165025  7.0712259277813319  -26.8155360113119698 0 0 0
251       13   1    0.0285690000000000  -35.4281712684975716  5.6020321541754150  -27.7618112168672759 0 0 0
252       13   3    0.4025730000000000  -38.8454388426534507  6.2933395010155859  -27.2540963891071080 0 0 0
253       14   4   -0.1079060000000000  -28.1376542823078033  38.3832194957419404 -26.4994622112116396 0 0 0
254       14   7   -0.1113290000000000  -26.6451262632189625  38.1435865229539814 -26.3022547293872293 0 0 0
255       14   5    0.6359480000000000  -26.1667397915482987  36.7316198189565952 -26.6942895957260014 0 0 0
256       14   6   -0.1910640000000000  -24.6479007578833844  36.6285692152577411 -26.5223344774738301 0 0 0
257       14   6   -0.1910640000000000  -26.8538441211267553  35.6363405313182753 -25.8775300995185695 0 0 0
258       14   8   -0.7223670000000000  -26.4702940031608804  36.4927612723704158 -28.0702408549772144 0 0 0
259       14   1    0.0285690000000000  -28.3801574651170512  39.4269591505321770 -26.2740252904427827 0 0 0
260       14   1    0.0285690000000000  -28.7357510327157222  37.7558295236539010 -25.8323372031547827 0 0 0
261       14   1    0.0285690000000000  -28.4424229069714976  38.1842961489372854 -27.5313511599443359 0 0 0
262       14   2    0.0140440000000000  -26.3877038133960049  38.3493001395069726 -25.2560534794874698 0 0 0
263       14   2    0.0140440000000000  -26.1139469727633298  38.8841735366199188 -26.9141892977688535 0 0 0
264       14   1    0.0285690000000000  -24.3496060682724007  36.7741939102620918 -25.4789712060506979 0 0 0
265       14   1    0.0285690000000000  -24.1327708538744901  37.3753631442619607 -27.1373585760246314 0 0 0
266       14   1    0.0285690000000000  -24.2823947882590083  35.6505447193971037 -26.8558048575160484 0 0 0
267       14   1    0.0285690000000000  -26.7117195703781896  35.7862013473584923 -24.8024490427650370 0 0 0
268       14   1    0.0285690000000000  -26.4576870109765494  34.6489707916323084 -26.1426635312655051 0 0 0
269       14   1    0.0285690000000000  -27.9276429194594265  35.5927694705303566 -26.0883165522642919 0 0 0
270       14   3    0.4025730000000000  -26.0339271898817799  37.1835069965446650 -28.5976576463326211 0 0 0
271       15   4   -0.1079060000000000  -36.2757871696553451 -37.0966275245970110 -35.1638421119872504 0 0 0