
                                 *****************
                                 * O   R   C   A *
                                 *****************

           --- An Ab Initio, DFT and Semiempirical electronic structure package ---

                  #######################################################
                  #                        -***-                        #
                  #          Department of theory and spectroscopy      #
                  #               Directorship: Frank Neese             #
                  #        Max Planck Institute fuer Kohlenforschung    #
                  #                Kaiser Wilhelm Platz 1               #
                  #                 D-45470 Muelheim/Ruhr               #
                  #                      Germany                        #
                  #                                                     #
                  #                  All rights reserved                #
                  #                        -***-                        #
                  #######################################################


                         Program Version 4.1.2  - RELEASE  -


 With contributions from (in alphabetic order):
   Daniel Aravena         : Magnetic Properties
   Michael Atanasov       : Ab Initio Ligand Field Theory
   Alexander A. Auer      : GIAO ZORA
   Ute Becker             : Parallelization
   Giovanni Bistoni       : ED, Open-shell LED
   Martin Brehm           : Molecular dynamics
   Dmytro Bykov           : SCF Hessian
   Vijay G. Chilkuri      : MRCI spin determinant printing
   Dipayan Datta          : RHF DLPNO-CCSD density
   Achintya Kumar Dutta   : EOM-CC, STEOM-CC
   Dmitry Ganyushin       : Spin-Orbit,Spin-Spin,Magnetic field MRCI
   Miquel Garcia          : C-PCM Hessian
   Yang Guo               : DLPNO-NEVPT2, CIM, IAO-localization
   Andreas Hansen         : Spin unrestricted coupled pair/coupled cluster methods
   Benjamin Helmich-Paris : CASSCF linear response (MC-RPA)
   Lee Huntington         : MR-EOM, pCC
   Robert Izsak           : Overlap fitted RIJCOSX, COSX-SCS-MP3, EOM
   Christian Kollmar      : KDIIS, OOCD, Brueckner-CCSD(T), CCSD density
   Simone Kossmann        : Meta GGA functionals, TD-DFT gradient, OOMP2, MP2 Hessian
   Martin Krupicka        : AUTO-CI
   Lucas Lang             : DCDCAS
   Dagmar Lenk            : GEPOL surface, SMD
   Dimitrios Liakos       : Extrapolation schemes; parallel MDCI
   Dimitrios Manganas     : ROCIS; embedding schemes
   Dimitrios Pantazis     : SARC Basis sets
   Taras Petrenko         : DFT Hessian,TD-DFT gradient, ASA, ECA, R-Raman, ABS, FL, XAS/XES, NRVS
   Peter Pinski           : DLPNO-MP2, DLPNO-MP2 Gradient
   Christoph Reimann      : Effective Core Potentials
   Marius Retegan         : Local ZFS, SOC
   Christoph Riplinger    : Optimizer, TS searches, QM/MM, DLPNO-CCSD(T), (RO)-DLPNO pert. Triples
   Tobias Risthaus        : Range-separated hybrids, TD-DFT gradient, RPA, STAB
   Michael Roemelt        : Restricted open shell CIS
   Masaaki Saitow         : Open-shell DLPNO
   Barbara Sandhoefer     : DKH picture change effects
   Avijit Sen             : IP-ROCIS
   Kantharuban Sivalingam : CASSCF convergence, NEVPT2, FIC-MRCI
   Bernardo de Souza      : ESD, SOC TD-DFT
   Georgi Stoychev        : AutoAux, RI-MP2 NMR
   Willem Van den Heuvel  : Paramagnetic NMR
   Boris Wezisla          : Elementary symmetry handling
   Frank Wennmohs         : Technical directorship


 We gratefully acknowledge several colleagues who have allowed us to
 interface, adapt or use parts of their codes:
   Stefan Grimme, W. Hujo, H. Kruse,             : VdW corrections, initial TS optimization,
                  C. Bannwarth                     DFT functionals, gCP, sTDA/sTD-DF
   Ed Valeev                                     : LibInt (2-el integral package), F12 methods
   Garnet Chan, S. Sharma, J. Yang, R. Olivares  : DMRG
   Ulf Ekstrom                                   : XCFun DFT Library
   Mihaly Kallay                                 : mrcc  (arbitrary order and MRCC methods)
   Andreas Klamt, Michael Diedenhofen            : otool_cosmo (COSMO solvation model)
   Jiri Pittner, Ondrej Demel                    : Mk-CCSD
   Frank Weinhold                                : gennbo (NPA and NBO analysis)
   Christopher J. Cramer and Donald G. Truhlar   : smd solvation model
   Lars Goerigk                                  : TD-DFT with DH, B97 family of functionals
   V. Asgeirsson, H. Jonsson                     : NEB implementation
   FAccTs GmbH                                   : IRC, NEB, NEB-TS, Multilevel


 Your calculation uses the libint2 library for the computation of 2-el integrals
 For citations please refer to: http://libint.valeyev.net

 This ORCA versions uses:
   CBLAS   interface :  Fast vector & matrix operations
   LAPACKE interface :  Fast linear algebra routines
   SCALAPACK package :  Parallel linear algebra routines


Your calculation utilizes the atom-pairwise dispersion correction
with the zero-damping scheme (D30)
Cite in your paper:
S.Grimme, J.Antony, S.Ehrlich and H.Krieg, J.Chem.Phys., 132, (2010), 154104 
   

XCFun DFT library Copyright 2009-2010 Ulf Ekstrom and contributors.
See http://admol.org/xcfun for more information. This is free soft-
ware; see the source code for copying conditions. There is ABSOLUTELY
NO WARRANTY; not even for MERCHANTABILITY or FITNESS FOR A PARTICULAR
PURPOSE. For details see the documentation. Scientific users of this 
library should cite U. Ekstrom, L. Visscher, R. Bast, A. J. Thorvald-
sen and K. Ruud; J.Chem.Theor.Comp. 2010, DOI: 10.1021/ct100117s
XCFun Version 0.99 
----- Orbital basis set information -----
Your calculation utilizes the basis: def2-TZVP
   F. Weigend and R. Ahlrichs, Phys. Chem. Chem. Phys. 7, 3297 (2005).

================================================================================
                                        WARNINGS
                       Please study these warnings very carefully!
================================================================================


WARNING: Geometry Optimization
  ===> : Switching off AutoStart
         For restart on a previous wavefunction, please use MOREAD

INFO   : the flag for use of LIBINT has been found!

================================================================================
                                       INPUT FILE
================================================================================
NAME = bonds_angles_[1[8[6]]]-[8[6[1][1][1]][1]]_4.in
|  1> #Run DFT geometry optimization
|  2> ! wB97X-D3 def2-TZVP TIGHTSCF Grid5 FinalGrid6 Opt CHELPG PAL4
|  3> 
|  4> %base "4_geo_opt"
|  5> %geom MaxIter 500
|  6> end
|  7> 
|  8> %geom
|  9>   Constraints
| 10>     { B 2 1 C }
| 11>   end
| 12> end
| 13> 
| 14> 
| 15> * xyz 0 1
| 16>   C                    3.011268             -1.180975            0.598540            
| 17>   O                    4.394633             -1.128128            0.874356            
| 18>   H                    4.772235             -0.378944            0.412445            
| 19>   H                    2.806395             -1.319043            -0.469301           
| 20>   H                    2.611593             -2.040343            1.135947            
| 21>   H                    2.484718             -0.284569            0.945707            
| 22> *
| 23> 
| 24>                          ****END OF INPUT****
================================================================================

                       *****************************
                       * Geometry Optimization Run *
                       *****************************

Geometry optimization settings:
Update method            Update   .... BFGS
Choice of coordinates    CoordSys .... Z-matrix Internals
Initial Hessian          InHess   .... Almoef's Model

Convergence Tolerances:
Energy Change            TolE     ....  5.0000e-06 Eh
Max. Gradient            TolMAXG  ....  3.0000e-04 Eh/bohr
RMS Gradient             TolRMSG  ....  1.0000e-04 Eh/bohr
Max. Displacement        TolMAXD  ....  4.0000e-03 bohr
RMS Displacement         TolRMSD  ....  2.0000e-03 bohr

------------------------------------------------------------------------------
                        ORCA OPTIMIZATION COORDINATE SETUP
------------------------------------------------------------------------------

The optimization will be done in new redundant internal coordinates
Making redundant internal coordinates   ...  (new redundants) done
Evaluating the initial hessian          ...  (Almloef) done
Evaluating the coordinates              ...  done
Calculating the B-matrix                .... done
Calculating the G-matrix                .... done
Diagonalizing the G-matrix              .... done
Imposing constraints:
 Iter   0:  RMS(Cart)=    0.0000000000 RMS(Int)=    0.0000000000
CONVERGED
The first mode is                       ....    3
The number of degrees of freedom        ....   12
Storing new coordinates                 .... done

    -----------------------------------------------------------------
                    Redundant Internal Coordinates


    -----------------------------------------------------------------
         Definition                    Initial Value    Approx d2E/dq
    -----------------------------------------------------------------
      1. B(O   1,C   0)                  1.4116         0.516942   
      2. B(H   2,O   1)                  0.9577         0.524335 C 
      3. B(H   3,C   0)                  1.0960         0.352188   
      4. B(H   4,C   0)                  1.0895         0.360732   
      5. B(H   5,C   0)                  1.0960         0.352186   
      6. A(O   1,C   0,H   4)          107.0168         0.340286   
      7. A(O   1,C   0,H   3)          112.2263         0.338927   
      8. A(O   1,C   0,H   5)          112.2281         0.338926   
      9. A(H   3,C   0,H   5)          108.7730         0.288819   
     10. A(H   4,C   0,H   5)          108.2173         0.289906   
     11. A(H   3,C   0,H   4)          108.2177         0.289907   
     12. A(C   0,O   1,H   2)          108.7499         0.359297   
     13. D(H   2,O   1,C   0,H   5)    -61.4304         0.021176   
     14. D(H   2,O   1,C   0,H   3)     61.4271         0.021176   
     15. D(H   2,O   1,C   0,H   4)    179.9981         0.021176   
    -----------------------------------------------------------------

Number of atoms                         .... 6
Number of degrees of freedom            .... 15

         *************************************************************
         *                GEOMETRY OPTIMIZATION CYCLE   1            *
         *************************************************************
---------------------------------
CARTESIAN COORDINATES (ANGSTROEM)
---------------------------------
  C      3.011268   -1.180975    0.598540
  O      4.394633   -1.128128    0.874356
  H      4.772235   -0.378944    0.412445
  H      2.806395   -1.319043   -0.469301
  H      2.611593   -2.040343    1.135947
  H      2.484718   -0.284569    0.945707

----------------------------
CARTESIAN COORDINATES (A.U.)
----------------------------
  NO LB      ZA    FRAG     MASS         X           Y           Z
   0 C     6.0000    0    12.011    5.690472   -2.231719    1.131077
   1 O     8.0000    0    15.999    8.304653   -2.131853    1.652293
   2 H     1.0000    0     1.008    9.018217   -0.716100    0.779408
   3 H     1.0000    0     1.008    5.303318   -2.492630   -0.886850
   4 H     1.0000    0     1.008    4.935196   -3.855689    2.146629
   5 H     1.0000    0     1.008    4.695437   -0.537757    1.787127

--------------------------------
INTERNAL COORDINATES (ANGSTROEM)
--------------------------------
 C      0   0   0     0.000000000000     0.00000000     0.00000000
 O      1   0   0     1.411582797603     0.00000000     0.00000000
 H      2   1   0     0.957716924869   108.74991537     0.00000000
 H      1   2   3     1.096047498986   112.22629787    61.42709664
 H      1   2   3     1.089522716008   107.01684839   179.99806219
 H      1   2   3     1.096049061505   112.22810511   298.56955737

---------------------------
INTERNAL COORDINATES (A.U.)
---------------------------
 C      0   0   0     0.000000000000     0.00000000     0.00000000
 O      1   0   0     2.667504902825     0.00000000     0.00000000
 H      2   1   0     1.809822701824   108.74991537     0.00000000
 H      1   2   3     2.071229602853   112.22629787    61.42709664
 H      1   2   3     2.058899549942   107.01684839   179.99806219
 H      1   2   3     2.071232555585   112.22810511   298.56955737

---------------------
BASIS SET INFORMATION
---------------------
There are 3 groups of distinct atoms

 Group   1 Type C   : 11s6p2d1f contracted to 5s3p2d1f pattern {62111/411/11/1}
 Group   2 Type O   : 11s6p2d1f contracted to 5s3p2d1f pattern {62111/411/11/1}
 Group   3 Type H   : 5s1p contracted to 3s1p pattern {311/1}

Atom   0C    basis set group =>   1
Atom   1O    basis set group =>   2
Atom   2H    basis set group =>   3
Atom   3H    basis set group =>   3
Atom   4H    basis set group =>   3
Atom   5H    basis set group =>   3


           ************************************************************
           *        Program running with 4 parallel MPI-processes     *
           *              working on a common directory               *
           ************************************************************
------------------------------------------------------------------------------
                           ORCA GTO INTEGRAL CALCULATION
------------------------------------------------------------------------------

                         BASIS SET STATISTICS AND STARTUP INFO

 # of primitive gaussian shells          ...   64
 # of primitive gaussian functions       ...  124
 # of contracted shells                  ...   38
 # of contracted basis functions         ...   86
 Highest angular momentum                ...    3
 Maximum contraction depth               ...    6
 Integral package used                   ... LIBINT
 Integral threshhold            Thresh   ...  2.500e-11
 Primitive cut-off              TCut     ...  2.500e-12


------------------------------ INTEGRAL EVALUATION ----------------------------


 * One electron integrals 
 Pre-screening matrix                    ... done
 Shell pair data                         ... done (   0.000 sec)



           ************************************************************
           *        Program running with 4 parallel MPI-processes     *
           *              working on a common directory               *
           ************************************************************
-------------------------------------------------------------------------------
                                 ORCA SCF
-------------------------------------------------------------------------------

------------
SCF SETTINGS
------------
Hamiltonian:
 Density Functional     Method          .... DFT(GTOs)
 Exchange Functional    Exchange        .... WB97X-D3
 Correlation Functional Correlation     .... WB97X-D3
 Gradients option       PostSCFGGA      .... off
 Hybrid DFT is turned on
   Fraction HF Exchange ScalHFX         ....  0.195728
   Scaling of DF-GGA-X  ScalDFX         ....  0.000000
   Scaling of DF-GGA-C  ScalDFC         ....  1.000000
   Scaling of DF-LDA-C  ScalLDAC        ....  1.000000
   Perturbative correction              ....  0.000000
   Density functional embedding theory  .... OFF
 Long-range corrected/Screened/Range-Separated Hybrid DFT is turned on
   Amount of maximum screened exact exchange              ....  0.804272
   Range separation parameter mu (erf(mu*r12)/r12)        ....  0.250000


General Settings:
 Integral files         IntName         .... 4_geo_opt
 Hartree-Fock type      HFTyp           .... RHF
 Total Charge           Charge          ....    0
 Multiplicity           Mult            ....    1
 Number of Electrons    NEL             ....   18
 Basis Dimension        Dim             ....   86
 Nuclear Repulsion      ENuc            ....     40.4371098307 Eh

Convergence Acceleration:
 DIIS                   CNVDIIS         .... on
   Start iteration      DIISMaxIt       ....    12
   Startup error        DIISStart       ....  0.200000
   # of expansion vecs  DIISMaxEq       ....     5
   Bias factor          DIISBfac        ....   1.050
   Max. coefficient     DIISMaxC        ....  10.000
 Newton-Raphson         CNVNR           .... off
 SOSCF                  CNVSOSCF        .... on
   Start iteration      SOSCFMaxIt      ....   150
   Startup grad/error   SOSCFStart      ....  0.003300
 Level Shifting         CNVShift        .... on
   Level shift para.    LevelShift      ....    0.2500
   Turn off err/grad.   ShiftErr        ....    0.0010
 Zerner damping         CNVZerner       .... off
 Static damping         CNVDamp         .... on
   Fraction old density DampFac         ....    0.7000
   Max. Damping (<1)    DampMax         ....    0.9800
   Min. Damping (>=0)   DampMin         ....    0.0000
   Turn off err/grad.   DampErr         ....    0.1000
 Fernandez-Rico         CNVRico         .... off

SCF Procedure:
 Maximum # iterations   MaxIter         ....   125
 SCF integral mode      SCFMode         .... Direct
   Integral package                     .... LIBINT
 Reset frequency        DirectResetFreq ....    20
 Integral Threshold     Thresh          ....  2.500e-11 Eh
 Primitive CutOff       TCut            ....  2.500e-12 Eh

Convergence Tolerance:
 Convergence Check Mode ConvCheckMode   .... Total+1el-Energy
 Convergence forced     ConvForced      .... 0
 Energy Change          TolE            ....  1.000e-08 Eh
 1-El. energy change                    ....  1.000e-05 Eh
 Orbital Gradient       TolG            ....  1.000e-05
 Orbital Rotation angle TolX            ....  1.000e-05
 DIIS Error             TolErr          ....  5.000e-07


Diagonalization of the overlap matrix:
Smallest eigenvalue                        ... 1.650e-03
Time for diagonalization                   ...    0.002 sec
Threshold for overlap eigenvalues          ... 1.000e-08
Number of eigenvalues below threshold      ... 0
Time for construction of square roots      ...    0.004 sec
Total time needed                          ...    0.006 sec

-------------------
DFT GRID GENERATION
-------------------

General Integration Accuracy     IntAcc      ...  5.010
Radial Grid Type                 RadialGrid  ... Gauss-Chebyshev
Angular Grid (max. acc.)         AngularGrid ... Lebedev-434
Angular grid pruning method      GridPruning ... 3 (G Style)
Weight generation scheme         WeightScheme... Becke
Basis function cutoff            BFCut       ...    1.0000e-11
Integration weight cutoff        WCut        ...    1.0000e-14
Grids for H and He will be reduced by one unit

# of grid points (after initial pruning)     ...  48308 (   0.0 sec)
# of grid points (after weights+screening)   ...  46677 (   0.0 sec)
nearest neighbour list constructed           ...    0.0 sec
Grid point re-assignment to atoms done       ...    0.0 sec
Grid point division into batches done        ...    0.3 sec
Reduced shell lists constructed in    0.3 sec

Total number of grid points                  ...    46677
Total number of batches                      ...      733
Average number of points per batch           ...       63
Average number of grid points per atom       ...     7780
Average number of shells per batch           ...    33.11 (87.14%)
Average number of basis functions per batch  ...    76.78 (89.28%)
Average number of large shells per batch     ...    30.62 (92.47%)
Average number of large basis fcns per batch ...    72.25 (94.11%)
Maximum spatial batch extension              ...  15.77, 14.99, 16.58 au
Average spatial batch extension              ...   0.41,  0.40,  0.43 au

Time for grid setup =    0.376 sec

------------------------------
INITIAL GUESS: MODEL POTENTIAL
------------------------------
Loading Hartree-Fock densities                     ... done
Calculating cut-offs                               ... done
Setting up the integral package                    ... done
Initializing the effective Hamiltonian             ... done
Starting the Coulomb interaction                   ... done (   0.0 sec)
Reading the grid                                   ... done
Mapping shells                                     ... done
Starting the XC term evaluation                    ... done (   0.1 sec)
  promolecular density results
     # of electrons  =     17.998045194
     EX              =    -14.430244072
     EC              =     -0.575114897
     EX+EC           =    -15.005358969
Transforming the Hamiltonian                       ... done (   0.0 sec)
Diagonalizing the Hamiltonian                      ... done (   0.0 sec)
Back transforming the eigenvectors                 ... done (   0.0 sec)
Now organizing SCF variables                       ... done
                      ------------------
                      INITIAL GUESS DONE (   0.5 sec)
                      ------------------
--------------
SCF ITERATIONS
--------------
ITER       Energy         Delta-E        Max-DP      RMS-DP      [F,P]     Damp
               ***  Starting incremental Fock matrix formation  ***
  0   -115.6512088347   0.000000000000 0.03696416  0.00147468  0.2523537 0.7000
  1   -115.6882768513  -0.037068016580 0.02202999  0.00104081  0.1262478 0.7000
                               ***Turning on DIIS***
  2   -115.7053409171  -0.017064065863 0.03156502  0.00188115  0.0490929 0.0000
  3   -115.7330769701  -0.027736052948 0.01773999  0.00068030  0.0611252 0.0000
  4   -115.7376013276  -0.004524357568 0.00406470  0.00013181  0.0065582 0.0000
                      *** Initiating the SOSCF procedure ***
                           *** Shutting down DIIS ***
                      *** Re-Reading the Fockian *** 
                      *** Removing any level shift *** 
ITER      Energy       Delta-E        Grad      Rot      Max-DP    RMS-DP
  5   -115.73769552  -0.0000941925  0.000490  0.000490  0.000678  0.000043
               *** Restarting incremental Fock matrix formation ***
  6   -115.73770366  -0.0000081435  0.000152  0.000202  0.000490  0.000026
  7   -115.73770439  -0.0000007222  0.000056  0.000109  0.000208  0.000011
  8   -115.73770444  -0.0000000574  0.000019  0.000017  0.000030  0.000001
  9   -115.73770445  -0.0000000056  0.000010  0.000008  0.000015  0.000001
 10   -115.73770445  -0.0000000015  0.000003  0.000003  0.000003  0.000000
                  ***Gradient check signals convergence***
              ***Rediagonalizing the Fockian in SOSCF/NRSCF***

               *****************************************************
               *                     SUCCESS                       *
               *           SCF CONVERGED AFTER  11 CYCLES          *
               *****************************************************

Setting up the final grid:

General Integration Accuracy     IntAcc      ...  5.340
Radial Grid Type                 RadialGrid  ... Gauss-Chebyshev
Angular Grid (max. acc.)         AngularGrid ... Lebedev-590
Angular grid pruning method      GridPruning ... 3 (G Style)
Weight generation scheme         WeightScheme... Becke
Basis function cutoff            BFCut       ...    1.0000e-11
Integration weight cutoff        WCut        ...    1.0000e-14
Grids for H and He will be reduced by one unit

# of grid points (after initial pruning)     ...  77324 (   0.0 sec)
# of grid points (after weights+screening)   ...  74512 (   0.0 sec)
nearest neighbour list constructed           ...    0.0 sec
Grid point re-assignment to atoms done       ...    0.0 sec
Grid point division into batches done        ...    0.8 sec
Reduced shell lists constructed in    0.8 sec

Total number of grid points                  ...    74512
Total number of batches                      ...     1167
Average number of points per batch           ...       63
Average number of grid points per atom       ...    12419
Average number of shells per batch           ...    32.92 (86.63%)
Average number of basis functions per batch  ...    76.34 (88.77%)
Average number of large shells per batch     ...    30.32 (92.10%)
Average number of large basis fcns per batch ...    71.51 (93.66%)
Maximum spatial batch extension              ...  13.18, 14.25, 15.48 au
Average spatial batch extension              ...   0.34,  0.36,  0.37 au

Final grid set up in    0.9 sec
Final integration                            ... done (   0.2 sec)
Change in XC energy                          ...    -0.000107571
Integrated number of electrons               ...    18.000000746
Previous integrated no of electrons          ...    18.000002275

----------------
TOTAL SCF ENERGY
----------------

Total Energy       :         -115.73781202 Eh           -3149.38598 eV

Components:
Nuclear Repulsion  :           40.43710983 Eh            1100.34970 eV
Electronic Energy  :         -156.17492185 Eh           -4249.73568 eV
One Electron Energy:         -237.29367448 Eh           -6457.08915 eV
Two Electron Energy:           81.11875263 Eh            2207.35348 eV

Virial components:
Potential Energy   :         -230.98804751 Eh           -6285.50432 eV
Kinetic Energy     :          115.25023549 Eh            3136.11834 eV
Virial Ratio       :            2.00423059


DFT components:
N(Alpha)           :        9.000000372883 electrons
N(Beta)            :        9.000000372883 electrons
N(Total)           :       18.000000745766 electrons
E(XC)              :      -10.655541877383 Eh       
DFET-embed. en.    :        0.000000000000 Eh       

---------------
SCF CONVERGENCE
---------------

  Last Energy change         ...   -5.3959e-11  Tolerance :   1.0000e-08
  Last MAX-Density change    ...    1.8662e-06  Tolerance :   1.0000e-07
  Last RMS-Density change    ...    7.8056e-08  Tolerance :   5.0000e-09
  Last Orbital Gradient      ...    1.3504e-06  Tolerance :   1.0000e-05
  Last Orbital Rotation      ...    7.8076e-07  Tolerance :   1.0000e-05

             **** THE GBW FILE WAS UPDATED (4_geo_opt.gbw) ****
             **** DENSITY FILE WAS UPDATED (4_geo_opt.scfp.tmp) ****
             **** ENERGY FILE WAS UPDATED (4_geo_opt.en.tmp) ****
----------------
ORBITAL ENERGIES
----------------

  NO   OCC          E(Eh)            E(eV) 
   0   2.0000     -19.228104      -523.2233 
   1   2.0000     -10.315114      -280.6885 
   2   2.0000      -1.136761       -30.9328 
   3   2.0000      -0.795325       -21.6419 
   4   2.0000      -0.611569       -16.6416 
   5   2.0000      -0.541771       -14.7423 
   6   2.0000      -0.526318       -14.3218 
   7   2.0000      -0.433790       -11.8040 
   8   2.0000      -0.373601       -10.1662 
   9   0.0000       0.116621         3.1734 
  10   0.0000       0.156669         4.2632 
  11   0.0000       0.202569         5.5122 
  12   0.0000       0.205115         5.5815 
  13   0.0000       0.226361         6.1596 
  14   0.0000       0.304329         8.2812 
  15   0.0000       0.313364         8.5271 
  16   0.0000       0.404498        11.0069 
  17   0.0000       0.452630        12.3167 
  18   0.0000       0.484932        13.1957 
  19   0.0000       0.535848        14.5812 
  20   0.0000       0.543627        14.7928 
  21   0.0000       0.567623        15.4458 
  22   0.0000       0.598567        16.2878 
  23   0.0000       0.603505        16.4222 
  24   0.0000       0.671295        18.2669 
  25   0.0000       0.779014        21.1981 
  26   0.0000       0.832197        22.6452 
  27   0.0000       0.861308        23.4374 
  28   0.0000       0.989575        26.9277 
  29   0.0000       1.013919        27.5901 
  30   0.0000       1.109766        30.1983 
  31   0.0000       1.382612        37.6228 
  32   0.0000       1.512875        41.1674 
  33   0.0000       1.553560        42.2745 
  34   0.0000       1.602816        43.6148 
  35   0.0000       1.613052        43.8934 
  36   0.0000       1.624156        44.1955 
  37   0.0000       1.660471        45.1837 
  38   0.0000       1.687984        45.9324 
  39   0.0000       1.774642        48.2905 
  40   0.0000       1.952063        53.1183 
  41   0.0000       2.030629        55.2562 
  42   0.0000       2.055223        55.9255 
  43   0.0000       2.094179        56.9855 
  44   0.0000       2.114633        57.5421 
  45   0.0000       2.268433        61.7272 
  46   0.0000       2.333514        63.4981 
  47   0.0000       2.345565        63.8261 
  48   0.0000       2.380952        64.7890 
  49   0.0000       2.429460        66.1090 
  50   0.0000       2.497632        67.9640 
  51   0.0000       2.596245        70.6474 
  52   0.0000       2.639888        71.8350 
  53   0.0000       2.707020        73.6618 
  54   0.0000       2.841811        77.3296 
  55   0.0000       2.871293        78.1319 
  56   0.0000       2.888352        78.5960 
  57   0.0000       2.992862        81.4399 
  58   0.0000       3.096064        84.2482 
  59   0.0000       3.172989        86.3414 
  60   0.0000       3.299263        89.7775 
  61   0.0000       3.408363        92.7463 
  62   0.0000       3.441742        93.6546 
  63   0.0000       3.488298        94.9214 
  64   0.0000       3.612596        98.3037 
  65   0.0000       3.645251        99.1923 
  66   0.0000       3.666992        99.7839 
  67   0.0000       4.005289       108.9894 
  68   0.0000       4.223784       114.9350 
  69   0.0000       4.273361       116.2841 
  70   0.0000       4.455757       121.2473 
  71   0.0000       4.564354       124.2024 
  72   0.0000       5.346078       145.4742 
  73   0.0000       5.425323       147.6306 
  74   0.0000       5.554211       151.1378 
  75   0.0000       5.826133       158.5371 
  76   0.0000       5.834042       158.7523 
  77   0.0000       5.985477       162.8731 
  78   0.0000       6.379006       173.5816 
  79   0.0000       6.530900       177.7148 
  80   0.0000       6.744908       183.5383 
  81   0.0000       6.804027       185.1470 
  82   0.0000       7.039388       191.5515 
  83   0.0000       7.215710       196.3495 
  84   0.0000      22.406111       609.7013 
  85   0.0000      43.664336      1188.1670 

                    ********************************
                    * MULLIKEN POPULATION ANALYSIS *
                    ********************************

-----------------------
MULLIKEN ATOMIC CHARGES
-----------------------
   0 C :   -0.150845
   1 O :   -0.477671
   2 H :    0.313034
   3 H :    0.098627
   4 H :    0.118225
   5 H :    0.098630
Sum of atomic charges:    0.0000000

--------------------------------
MULLIKEN REDUCED ORBITAL CHARGES
--------------------------------
  0 C s       :     3.223098  s :     3.223098
      pz      :     1.047259  p :     2.826079
      px      :     0.702184
      py      :     1.076636
      dz2     :     0.011109  d :     0.094248
      dxz     :     0.032493
      dyz     :     0.002645
      dx2y2   :     0.012741
      dxy     :     0.035260
      f0      :     0.001356  f :     0.007420
      f+1     :     0.000956
      f-1     :     0.000175
      f+2     :     0.001464
      f-2     :     0.000123
      f+3     :     0.001361
      f-3     :     0.001986
  1 O s       :     3.792831  s :     3.792831
      pz      :     1.759398  p :     4.652577
      px      :     1.313636
      py      :     1.579543
      dz2     :     0.003136  d :     0.030578
      dxz     :     0.006477
      dyz     :     0.005835
      dx2y2   :     0.008937
      dxy     :     0.006192
      f0      :     0.000269  f :     0.001685
      f+1     :     0.000233
      f-1     :     0.000087
      f+2     :     0.000287
      f-2     :     0.000235
      f+3     :     0.000367
      f-3     :     0.000206
  2 H s       :     0.639299  s :     0.639299
      pz      :     0.016997  p :     0.047667
      px      :     0.012713
      py      :     0.017958
  3 H s       :     0.882008  s :     0.882008
      pz      :     0.012072  p :     0.019365
      px      :     0.003007
      py      :     0.004285
  4 H s       :     0.861556  s :     0.861556
      pz      :     0.006297  p :     0.020219
      px      :     0.004194
      py      :     0.009729
  5 H s       :     0.882006  s :     0.882006
      pz      :     0.004929  p :     0.019364
      px      :     0.004977
      py      :     0.009458


                     *******************************
                     * LOEWDIN POPULATION ANALYSIS *
                     *******************************

----------------------
LOEWDIN ATOMIC CHARGES
----------------------
   0 C :   -0.385181
   1 O :   -0.076203
   2 H :    0.165907
   3 H :    0.093394
   4 H :    0.108689
   5 H :    0.093393

-------------------------------
LOEWDIN REDUCED ORBITAL CHARGES
-------------------------------
  0 C s       :     2.862946  s :     2.862946
      pz      :     1.096642  p :     3.052255
      px      :     0.846066
      py      :     1.109547
      dz2     :     0.072415  d :     0.412959
      dxz     :     0.114040
      dyz     :     0.020709
      dx2y2   :     0.082150
      dxy     :     0.123645
      f0      :     0.007821  f :     0.057021
      f+1     :     0.007163
      f-1     :     0.000854
      f+2     :     0.012526
      f-2     :     0.004830
      f+3     :     0.011735
      f-3     :     0.012090
  1 O s       :     3.366390  s :     3.366390
      pz      :     1.699043  p :     4.633606
      px      :     1.381216
      py      :     1.553347
      dz2     :     0.006131  d :     0.071563
      dxz     :     0.017863
      dyz     :     0.008085
      dx2y2   :     0.019337
      dxy     :     0.020146
      f0      :     0.000483  f :     0.004644
      f+1     :     0.000622
      f-1     :     0.000072
      f+2     :     0.001050
      f-2     :     0.000560
      f+3     :     0.000890
      f-3     :     0.000966
  2 H s       :     0.675104  s :     0.675104
      pz      :     0.055719  p :     0.158989
      px      :     0.033880
      py      :     0.069390
  3 H s       :     0.846781  s :     0.846781
      pz      :     0.036183  p :     0.059824
      px      :     0.009713
      py      :     0.013929
  4 H s       :     0.831716  s :     0.831716
      pz      :     0.019212  p :     0.059595
      px      :     0.011608
      py      :     0.028775
  5 H s       :     0.846783  s :     0.846783
      pz      :     0.015605  p :     0.059824
      px      :     0.015203
      py      :     0.029017


                      *****************************
                      * MAYER POPULATION ANALYSIS *
                      *****************************

  NA   - Mulliken gross atomic population
  ZA   - Total nuclear charge
  QA   - Mulliken gross atomic charge
  VA   - Mayer's total valence
  BVA  - Mayer's bonded valence
  FA   - Mayer's free valence

  ATOM       NA         ZA         QA         VA         BVA        FA
  0 C      6.1508     6.0000    -0.1508     3.9350     3.9350     0.0000
  1 O      8.4777     8.0000    -0.4777     1.8880     1.8880    -0.0000
  2 H      0.6870     1.0000     0.3130     0.9136     0.9136    -0.0000
  3 H      0.9014     1.0000     0.0986     0.9596     0.9596     0.0000
  4 H      0.8818     1.0000     0.1182     0.9598     0.9598    -0.0000
  5 H      0.9014     1.0000     0.0986     0.9596     0.9596     0.0000

  Mayer bond orders larger than 0.1
B(  0-C ,  1-O ) :   0.9987 B(  0-C ,  3-H ) :   0.9755 B(  0-C ,  4-H ) :   0.9749 
B(  0-C ,  5-H ) :   0.9755 B(  1-O ,  2-H ) :   0.9002 

-------
TIMINGS
-------

Total SCF time: 0 days 0 hours 0 min 8 sec 

Total time                  ....       8.635 sec
Sum of individual times     ....       8.251 sec  ( 95.6%)

Fock matrix formation       ....       6.707 sec  ( 77.7%)
  XC integration            ....       1.973 sec  ( 29.4% of F)
    Basis function eval.    ....       0.411 sec  ( 20.8% of XC)
    Density eval.           ....       0.279 sec  ( 14.1% of XC)
    XC-Functional eval.     ....       0.689 sec  ( 34.9% of XC)
    XC-Potential eval.      ....       0.269 sec  ( 13.6% of XC)
Diagonalization             ....       0.020 sec  (  0.2%)
Density matrix formation    ....       0.002 sec  (  0.0%)
Population analysis         ....       0.012 sec  (  0.1%)
Initial guess               ....       0.171 sec  (  2.0%)
Orbital Transformation      ....       0.000 sec  (  0.0%)
Orbital Orthonormalization  ....       0.000 sec  (  0.0%)
DIIS solution               ....       0.013 sec  (  0.2%)
SOSCF solution              ....       0.023 sec  (  0.3%)
Grid generation             ....       1.305 sec  ( 15.1%)


-------------------------------------------------------------------------------
                          DFT DISPERSION CORRECTION                            
                                                                               
                              DFTD3 V3.1  Rev 1                                
                              USING zero damping                               
-------------------------------------------------------------------------------
The omegaB97X-D3 functional is recognized. Fit by Chai et al.
Active option DFTDOPT                   ...         3   

molecular C6(AA) [au] = 208.715919 


            DFT-D V3
 parameters
 s6 scaling factor         :     1.0000 
 rs6 scaling factor        :     1.2810 
 s8 scaling factor         :     1.0000 
 rs8 scaling factor        :     1.0940 
 Damping factor alpha6     :    14.0000 
 Damping factor alpha8     :    16.0000 
 ad hoc parameters k1-k3   :    16.0000     1.3333    -4.0000 

 Edisp/kcal,au: -0.150154818826  -0.000239286910 
 E6   /kcal   :  -0.029615311 
 E8   /kcal   :  -0.120539508 
 % E8         :  80.276816291 

-------------------------   ----------------
Dispersion correction           -0.000239287
-------------------------   ----------------


-------------------------   --------------------
FINAL SINGLE POINT ENERGY      -115.738051307954
-------------------------   --------------------



           ************************************************************
           *        Program running with 4 parallel MPI-processes     *
           *              working on a common directory               *
           ************************************************************
------------------------------------------------------------------------------
                         ORCA SCF GRADIENT CALCULATION
------------------------------------------------------------------------------

Gradient of the Kohn-Sham DFT energy:
Kohn-Sham wavefunction type      ... RKS
Hartree-Fock exchange scaling    ...    0.196
Number of operators              ...    1
Number of atoms                  ...    6
Basis set dimensions             ...   86
Integral neglect threshold       ... 2.5e-11
Integral primitive cutoff        ... 2.5e-12

Nuclear repulsion gradient       ... done
One Electron Gradient            ... done
Pre-screening matrix             ... done
Starting the two electron gradient:
Two electron gradient done
Exchange-correlation gradient    ... done
Dispersion correction            ... done

------------------
CARTESIAN GRADIENT
------------------

   1   C   :   -0.000096117    0.000027796   -0.000042321
   2   O   :   -0.000052356   -0.000190527    0.000125784
   3   H   :    0.000085141    0.000171127   -0.000107386
   4   H   :    0.000010441    0.000004952    0.000000732
   5   H   :    0.000039711   -0.000014263    0.000014463
   6   H   :    0.000013181    0.000000915    0.000008728

Difference to translation invariance:
           :    0.0000000000   -0.0000000000   -0.0000000000

Norm of the cartesian gradient     ...    0.0003422064
RMS gradient                       ...    0.0000806588
MAX gradient                       ...    0.0001905272

-------
TIMINGS
-------

Total SCF gradient time            ...        1.634 sec

One electron gradient       ....       0.013 sec  (  0.8%)
Prescreening matrices       ....       0.026 sec  (  1.6%)
Two electron gradient       ....       0.844 sec  ( 51.7%)
XC gradient                 ....       0.410 sec  ( 25.1%)
------------------------------------------------------------------------------
                         ORCA GEOMETRY RELAXATION STEP
------------------------------------------------------------------------------

Reading the OPT-File                    .... done
Getting information on internals        .... done
Copying old internal coords+grads       .... done
Making the new internal coordinates     .... (new redundants).... done
Validating the new internal coordinates .... (new redundants).... done
Calculating the B-matrix                .... done
Calculating the G,G- and P matrices     .... done
Transforming gradient to internals      .... done
Projecting the internal gradient        .... done
Number of atoms                         ....   6
Number of internal coordinates          ....  15
Current Energy                          ....  -115.738051308 Eh
Current gradient norm                   ....     0.000342206 Eh/bohr
Maximum allowed component of the step   ....  0.300
Current trust radius                    ....  0.300
Evaluating the initial hessian          ....  (Almloef) done
Projecting the Hessian                  .... done
Forming the augmented Hessian           .... done
Diagonalizing the augmented Hessian     .... done
Last element of RFO vector              ....  0.999999966
Lowest eigenvalues of augmented Hessian:
 -0.000000021  0.021176451  0.181846431  0.192338827  0.313380906
Length of the computed step             ....  0.000261486
The final length of the internal step   ....  0.000261486
Converting the step to cartesian space:
 Initial RMS(Int)=    0.0000675155
Transforming coordinates:
 Iter   0:  RMS(Cart)=    0.0000646167 RMS(Int)=    1.6223021096
 Iter   1:  RMS(Cart)=    0.0000000062 RMS(Int)=    0.0000000068
Imposing constraints:
 Iter   0:  RMS(Cart)=    0.0000000004 RMS(Int)=    0.0000000000
CONVERGED
done
Storing new coordinates                 .... done

                                .--------------------.
          ----------------------|Geometry convergence|-------------------------
          Item                value                   Tolerance       Converged
          ---------------------------------------------------------------------
          RMS gradient        0.0000216600            0.0001000000      YES
          MAX gradient        0.0000619923            0.0003000000      YES
          RMS step            0.0000675155            0.0020000000      YES
          MAX step            0.0001983941            0.0040000000      YES
          ........................................................
          Max(Bonds)      0.0000      Max(Angles)    0.01
          Max(Dihed)        0.00      Max(Improp)    0.00
          ---------------------------------------------------------------------

                    ***********************HURRAY********************
                    ***        THE OPTIMIZATION HAS CONVERGED     ***
                    *************************************************


    ---------------------------------------------------------------------------
                         Redundant Internal Coordinates

                          --- Optimized Parameters ---  
                            (Angstroem and degrees)

        Definition                    OldVal   dE/dq     Step     FinalVal
    ----------------------------------------------------------------------------
     1. B(O   1,C   0)                1.4116  0.000035 -0.0000    1.4115   
     2. B(H   2,O   1)                0.9577  0.000219  0.0000    0.9577 C 
     3. B(H   3,C   0)                1.0960 -0.000003  0.0000    1.0961   
     4. B(H   4,C   0)                1.0895  0.000004 -0.0000    1.0895   
     5. B(H   5,C   0)                1.0960 -0.000003  0.0000    1.0961   
     6. A(O   1,C   0,H   4)          107.02 -0.000062    0.01    107.03   
     7. A(O   1,C   0,H   3)          112.23 -0.000004    0.00    112.23   
     8. A(O   1,C   0,H   5)          112.23 -0.000004    0.00    112.23   
     9. A(H   3,C   0,H   5)          108.77  0.000017   -0.00    108.77   
    10. A(H   4,C   0,H   5)          108.22  0.000027   -0.00    108.21   
    11. A(H   3,C   0,H   4)          108.22  0.000027   -0.00    108.21   
    12. A(C   0,O   1,H   2)          108.75 -0.000002    0.00    108.75   
    13. D(H   2,O   1,C   0,H   5)    -61.43 -0.000009    0.00    -61.43   
    14. D(H   2,O   1,C   0,H   3)     61.43  0.000008   -0.00     61.43   
    15. D(H   2,O   1,C   0,H   4)    180.00 -0.000001    0.00    180.00   
    ----------------------------------------------------------------------------
                 *******************************************************
                 *** FINAL ENERGY EVALUATION AT THE STATIONARY POINT ***
                 ***               (AFTER    1 CYCLES)               ***
                 *******************************************************
---------------------------------
CARTESIAN COORDINATES (ANGSTROEM)
---------------------------------
  C      3.011320   -1.181006    0.598571
  O      4.394657   -1.128113    0.874336
  H      4.772220   -0.378905    0.412432
  H      2.806405   -1.319051   -0.469270
  H      2.611493   -2.040331    1.135921
  H      2.484747   -0.284595    0.945704

----------------------------
CARTESIAN COORDINATES (A.U.)
----------------------------
  NO LB      ZA    FRAG     MASS         X           Y           Z
   0 C     6.0000    0    12.011    5.690570   -2.231777    1.131135
   1 O     8.0000    0    15.999    8.304697   -2.131825    1.652256
   2 H     1.0000    0     1.008    9.018188   -0.716027    0.779383
   3 H     1.0000    0     1.008    5.303338   -2.492646   -0.886791
   4 H     1.0000    0     1.008    4.935007   -3.855667    2.146580
   5 H     1.0000    0     1.008    4.695491   -0.537806    1.787121

--------------------------------
INTERNAL COORDINATES (ANGSTROEM)
--------------------------------
 C      0   0   0     0.000000000000     0.00000000     0.00000000
 O      1   0   0     1.411546629739     0.00000000     0.00000000
 H      2   1   0     0.957716923904   108.75022464     0.00000000
 H      1   2   3     1.096052074274   112.22690788    61.42676178
 H      1   2   3     1.089517331758   107.02821528   180.00013975
 H      1   2   3     1.096053345576   112.22874981   298.57395082

---------------------------
INTERNAL COORDINATES (A.U.)
---------------------------
 C      0   0   0     0.000000000000     0.00000000     0.00000000
 O      1   0   0     2.667436555467     0.00000000     0.00000000
 H      2   1   0     1.809822700000   108.75022464     0.00000000
 H      1   2   3     2.071238248894   112.22690788    61.42676178
 H      1   2   3     2.058889375182   107.02821528   180.00013975
 H      1   2   3     2.071240651306   112.22874981   298.57395082

---------------------
BASIS SET INFORMATION
---------------------
There are 3 groups of distinct atoms

 Group   1 Type C   : 11s6p2d1f contracted to 5s3p2d1f pattern {62111/411/11/1}
 Group   2 Type O   : 11s6p2d1f contracted to 5s3p2d1f pattern {62111/411/11/1}
 Group   3 Type H   : 5s1p contracted to 3s1p pattern {311/1}

Atom   0C    basis set group =>   1
Atom   1O    basis set group =>   2
Atom   2H    basis set group =>   3
Atom   3H    basis set group =>   3
Atom   4H    basis set group =>   3
Atom   5H    basis set group =>   3


           ************************************************************
           *        Program running with 4 parallel MPI-processes     *
           *              working on a common directory               *
           ************************************************************
------------------------------------------------------------------------------
                           ORCA GTO INTEGRAL CALCULATION
------------------------------------------------------------------------------

                         BASIS SET STATISTICS AND STARTUP INFO

 # of primitive gaussian shells          ...   64
 # of primitive gaussian functions       ...  124
 # of contracted shells                  ...   38
 # of contracted basis functions         ...   86
 Highest angular momentum                ...    3
 Maximum contraction depth               ...    6
 Integral package used                   ... LIBINT
 Integral threshhold            Thresh   ...  2.500e-11
 Primitive cut-off              TCut     ...  2.500e-12


------------------------------ INTEGRAL EVALUATION ----------------------------


 * One electron integrals 
 Pre-screening matrix                    ... done
 Shell pair data                         ... done (   0.000 sec)



           ************************************************************
           *        Program running with 4 parallel MPI-processes     *
           *              working on a common directory               *
           ************************************************************
-------------------------------------------------------------------------------
                                 ORCA SCF
-------------------------------------------------------------------------------

------------
SCF SETTINGS
------------
Hamiltonian:
 Density Functional     Method          .... DFT(GTOs)
 Exchange Functional    Exchange        .... WB97X-D3
 Correlation Functional Correlation     .... WB97X-D3
 Gradients option       PostSCFGGA      .... off
 Hybrid DFT is turned on
   Fraction HF Exchange ScalHFX         ....  0.195728
   Scaling of DF-GGA-X  ScalDFX         ....  0.000000
   Scaling of DF-GGA-C  ScalDFC         ....  1.000000
   Scaling of DF-LDA-C  ScalLDAC        ....  1.000000
   Perturbative correction              ....  0.000000
   Density functional embedding theory  .... OFF
 Long-range corrected/Screened/Range-Separated Hybrid DFT is turned on
   Amount of maximum screened exact exchange              ....  0.804272
   Range separation parameter mu (erf(mu*r12)/r12)        ....  0.250000


General Settings:
 Integral files         IntName         .... 4_geo_opt
 Hartree-Fock type      HFTyp           .... RHF
 Total Charge           Charge          ....    0
 Multiplicity           Mult            ....    1
 Number of Electrons    NEL             ....   18
 Basis Dimension        Dim             ....   86
 Nuclear Repulsion      ENuc            ....     40.4375362195 Eh

Convergence Acceleration:
 DIIS                   CNVDIIS         .... on
   Start iteration      DIISMaxIt       ....    12
   Startup error        DIISStart       ....  0.200000
   # of expansion vecs  DIISMaxEq       ....     5
   Bias factor          DIISBfac        ....   1.050
   Max. coefficient     DIISMaxC        ....  10.000
 Newton-Raphson         CNVNR           .... off
 SOSCF                  CNVSOSCF        .... on
   Start iteration      SOSCFMaxIt      ....   150
   Startup grad/error   SOSCFStart      ....  0.003300
 Level Shifting         CNVShift        .... on
   Level shift para.    LevelShift      ....    0.2500
   Turn off err/grad.   ShiftErr        ....    0.0010
 Zerner damping         CNVZerner       .... off
 Static damping         CNVDamp         .... on
   Fraction old density DampFac         ....    0.7000
   Max. Damping (<1)    DampMax         ....    0.9800
   Min. Damping (>=0)   DampMin         ....    0.0000
   Turn off err/grad.   DampErr         ....    0.1000
 Fernandez-Rico         CNVRico         .... off

SCF Procedure:
 Maximum # iterations   MaxIter         ....   125
 SCF integral mode      SCFMode         .... Direct
   Integral package                     .... LIBINT
 Reset frequency        DirectResetFreq ....    20
 Integral Threshold     Thresh          ....  2.500e-11 Eh
 Primitive CutOff       TCut            ....  2.500e-12 Eh

Convergence Tolerance:
 Convergence Check Mode ConvCheckMode   .... Total+1el-Energy
 Convergence forced     ConvForced      .... 0
 Energy Change          TolE            ....  1.000e-08 Eh
 1-El. energy change                    ....  1.000e-05 Eh
 Orbital Gradient       TolG            ....  1.000e-05
 Orbital Rotation angle TolX            ....  1.000e-05
 DIIS Error             TolErr          ....  5.000e-07


Diagonalization of the overlap matrix:
Smallest eigenvalue                        ... 1.650e-03
Time for diagonalization                   ...    0.002 sec
Threshold for overlap eigenvalues          ... 1.000e-08
Number of eigenvalues below threshold      ... 0
Time for construction of square roots      ...    0.007 sec
Total time needed                          ...    0.009 sec

---------------------
INITIAL GUESS: MOREAD
---------------------
Guess MOs are being read from file: 4_geo_opt.gbw
Input Geometry matches current geometry (good)
Input basis set matches current basis set (good)
MOs were renormalized
MOs were reorthogonalized (Cholesky)
                      ------------------
                      INITIAL GUESS DONE (   0.0 sec)
                      ------------------
-------------------
DFT GRID GENERATION
-------------------

General Integration Accuracy     IntAcc      ...  5.010
Radial Grid Type                 RadialGrid  ... Gauss-Chebyshev
Angular Grid (max. acc.)         AngularGrid ... Lebedev-434
Angular grid pruning method      GridPruning ... 3 (G Style)
Weight generation scheme         WeightScheme... Becke
Basis function cutoff            BFCut       ...    1.0000e-11
Integration weight cutoff        WCut        ...    1.0000e-14
Grids for H and He will be reduced by one unit

# of grid points (after initial pruning)     ...  48308 (   0.0 sec)
# of grid points (after weights+screening)   ...  46677 (   0.0 sec)
nearest neighbour list constructed           ...    0.0 sec
Grid point re-assignment to atoms done       ...    0.0 sec
Grid point division into batches done        ...    0.3 sec
Reduced shell lists constructed in    0.3 sec

Total number of grid points                  ...    46677
Total number of batches                      ...      733
Average number of points per batch           ...       63
Average number of grid points per atom       ...     7780
Average number of shells per batch           ...    33.14 (87.20%)
Average number of basis functions per batch  ...    76.84 (89.35%)
Average number of large shells per batch     ...    30.59 (92.33%)
Average number of large basis fcns per batch ...    72.26 (94.03%)
Maximum spatial batch extension              ...  15.77, 14.99, 16.58 au
Average spatial batch extension              ...   0.40,  0.41,  0.42 au

Time for grid setup =    0.397 sec

--------------
SCF ITERATIONS
--------------
ITER       Energy         Delta-E        Max-DP      RMS-DP      [F,P]     Damp
               ***  Starting incremental Fock matrix formation  ***
                      *** Initiating the SOSCF procedure ***
                      *** Re-Reading the Fockian *** 
                      *** Removing any level shift *** 
ITER      Energy       Delta-E        Grad      Rot      Max-DP    RMS-DP
  0   -115.73770445 -115.7377044475  0.000009  0.000009  0.000010  0.000001
               *** Restarting incremental Fock matrix formation ***
  1   -115.73770445  -0.0000000023  0.000004  0.000004  0.000005  0.000000
  2   -115.73770445  -0.0000000003  0.000003  0.000002  0.000003  0.000000
                 **** Energy Check signals convergence ****
              ***Rediagonalizing the Fockian in SOSCF/NRSCF***

               *****************************************************
               *                     SUCCESS                       *
               *           SCF CONVERGED AFTER   3 CYCLES          *
               *****************************************************

Setting up the final grid:

General Integration Accuracy     IntAcc      ...  5.340
Radial Grid Type                 RadialGrid  ... Gauss-Chebyshev
Angular Grid (max. acc.)         AngularGrid ... Lebedev-590
Angular grid pruning method      GridPruning ... 3 (G Style)
Weight generation scheme         WeightScheme... Becke
Basis function cutoff            BFCut       ...    1.0000e-11
Integration weight cutoff        WCut        ...    1.0000e-14
Grids for H and He will be reduced by one unit

# of grid points (after initial pruning)     ...  77324 (   0.0 sec)
# of grid points (after weights+screening)   ...  74512 (   0.0 sec)
nearest neighbour list constructed           ...    0.0 sec
Grid point re-assignment to atoms done       ...    0.0 sec
Grid point division into batches done        ...    0.8 sec
Reduced shell lists constructed in    0.8 sec

Total number of grid points                  ...    74512
Total number of batches                      ...     1167
Average number of points per batch           ...       63
Average number of grid points per atom       ...    12419
Average number of shells per batch           ...    32.93 (86.65%)
Average number of basis functions per batch  ...    76.37 (88.80%)
Average number of large shells per batch     ...    30.31 (92.05%)
Average number of large basis fcns per batch ...    71.51 (93.63%)
Maximum spatial batch extension              ...  13.18, 14.25, 15.48 au
Average spatial batch extension              ...   0.34,  0.36,  0.37 au

Final grid set up in    0.9 sec
Final integration                            ... done (   0.2 sec)
Change in XC energy                          ...    -0.000107590
Integrated number of electrons               ...    18.000000746
Previous integrated no of electrons          ...    18.000002273

----------------
TOTAL SCF ENERGY
----------------

Total Energy       :         -115.73781204 Eh           -3149.38598 eV

Components:
Nuclear Repulsion  :           40.43753622 Eh            1100.36130 eV
Electronic Energy  :         -156.17534826 Eh           -4249.74728 eV
One Electron Energy:         -237.29451335 Eh           -6457.11198 eV
Two Electron Energy:           81.11916509 Eh            2207.36470 eV

Virial components:
Potential Energy   :         -230.98812523 Eh           -6285.50644 eV
Kinetic Energy     :          115.25031319 Eh            3136.12046 eV
Virial Ratio       :            2.00422991


DFT components:
N(Alpha)           :        9.000000372849 electrons
N(Beta)            :        9.000000372849 electrons
N(Total)           :       18.000000745699 electrons
E(XC)              :      -10.655556940431 Eh       
DFET-embed. en.    :        0.000000000000 Eh       

---------------
SCF CONVERGENCE
---------------

  Last Energy change         ...   -9.7970e-11  Tolerance :   1.0000e-08
  Last MAX-Density change    ...    7.7310e-07  Tolerance :   1.0000e-07
  Last RMS-Density change    ...    5.3386e-08  Tolerance :   5.0000e-09
  Last Orbital Gradient      ...    6.8007e-07  Tolerance :   1.0000e-05
  Last Orbital Rotation      ...    6.4787e-07  Tolerance :   1.0000e-05

             **** THE GBW FILE WAS UPDATED (4_geo_opt.gbw) ****
             **** DENSITY FILE WAS UPDATED (4_geo_opt.scfp.tmp) ****
             **** ENERGY FILE WAS UPDATED (4_geo_opt.en.tmp) ****
----------------
ORBITAL ENERGIES
----------------

  NO   OCC          E(Eh)            E(eV) 
   0   2.0000     -19.228101      -523.2232 
   1   2.0000     -10.315107      -280.6883 
   2   2.0000      -1.136771       -30.9331 
   3   2.0000      -0.795324       -21.6419 
   4   2.0000      -0.611574       -16.6418 
   5   2.0000      -0.541767       -14.7422 
   6   2.0000      -0.526330       -14.3222 
   7   2.0000      -0.433784       -11.8039 
   8   2.0000      -0.373597       -10.1661 
   9   0.0000       0.116621         3.1734 
  10   0.0000       0.156667         4.2631 
  11   0.0000       0.202577         5.5124 
  12   0.0000       0.205117         5.5815 
  13   0.0000       0.226364         6.1597 
  14   0.0000       0.304342         8.2816 
  15   0.0000       0.313362         8.5270 
  16   0.0000       0.404512        11.0073 
  17   0.0000       0.452641        12.3170 
  18   0.0000       0.484917        13.1953 
  19   0.0000       0.535843        14.5810 
  20   0.0000       0.543629        14.7929 
  21   0.0000       0.567630        15.4460 
  22   0.0000       0.598568        16.2879 
  23   0.0000       0.603523        16.4227 
  24   0.0000       0.671287        18.2666 
  25   0.0000       0.779017        21.1981 
  26   0.0000       0.832185        22.6449 
  27   0.0000       0.861319        23.4377 
  28   0.0000       0.989578        26.9278 
  29   0.0000       1.013908        27.5899 
  30   0.0000       1.109778        30.1986 
  31   0.0000       1.382617        37.6229 
  32   0.0000       1.512879        41.1675 
  33   0.0000       1.553569        42.2748 
  34   0.0000       1.602812        43.6147 
  35   0.0000       1.613053        43.8934 
  36   0.0000       1.624182        44.1962 
  37   0.0000       1.660462        45.1835 
  38   0.0000       1.687993        45.9326 
  39   0.0000       1.774667        48.2911 
  40   0.0000       1.952077        53.1187 
  41   0.0000       2.030587        55.2551 
  42   0.0000       2.055227        55.9256 
  43   0.0000       2.094196        56.9860 
  44   0.0000       2.114607        57.5414 
  45   0.0000       2.268416        61.7267 
  46   0.0000       2.333533        63.4987 
  47   0.0000       2.345588        63.8267 
  48   0.0000       2.380987        64.7900 
  49   0.0000       2.429498        66.1100 
  50   0.0000       2.497663        67.9649 
  51   0.0000       2.596212        70.6465 
  52   0.0000       2.639896        71.8352 
  53   0.0000       2.707054        73.6627 
  54   0.0000       2.841882        77.3315 
  55   0.0000       2.871312        78.1324 
  56   0.0000       2.888306        78.5948 
  57   0.0000       2.992835        81.4392 
  58   0.0000       3.096075        84.2485 
  59   0.0000       3.172995        86.3416 
  60   0.0000       3.299184        89.7754 
  61   0.0000       3.408281        92.7440 
  62   0.0000       3.441816        93.6566 
  63   0.0000       3.488320        94.9220 
  64   0.0000       3.612605        98.3040 
  65   0.0000       3.645290        99.1934 
  66   0.0000       3.667010        99.7844 
  67   0.0000       4.005333       108.9906 
  68   0.0000       4.223806       114.9356 
  69   0.0000       4.273394       116.2850 
  70   0.0000       4.455664       121.2448 
  71   0.0000       4.564342       124.2021 
  72   0.0000       5.346098       145.4747 
  73   0.0000       5.425346       147.6312 
  74   0.0000       5.554221       151.1380 
  75   0.0000       5.826193       158.5388 
  76   0.0000       5.834072       158.7532 
  77   0.0000       5.985533       162.8746 
  78   0.0000       6.379004       173.5815 
  79   0.0000       6.530907       177.7150 
  80   0.0000       6.744905       183.5382 
  81   0.0000       6.804049       185.1476 
  82   0.0000       7.039382       191.5513 
  83   0.0000       7.215711       196.3495 
  84   0.0000      22.406220       609.7042 
  85   0.0000      43.664332      1188.1669 

                    ********************************
                    * MULLIKEN POPULATION ANALYSIS *
                    ********************************

-----------------------
MULLIKEN ATOMIC CHARGES
-----------------------
   0 C :   -0.150852
   1 O :   -0.477663
   2 H :    0.313044
   3 H :    0.098622
   4 H :    0.118225
   5 H :    0.098625
Sum of atomic charges:   -0.0000000

--------------------------------
MULLIKEN REDUCED ORBITAL CHARGES
--------------------------------
  0 C s       :     3.223084  s :     3.223084
      pz      :     1.047267  p :     2.826093
      px      :     0.702184
      py      :     1.076642
      dz2     :     0.011109  d :     0.094255
      dxz     :     0.032497
      dyz     :     0.002645
      dx2y2   :     0.012739
      dxy     :     0.035265
      f0      :     0.001356  f :     0.007420
      f+1     :     0.000956
      f-1     :     0.000175
      f+2     :     0.001464
      f-2     :     0.000123
      f+3     :     0.001361
      f-3     :     0.001986
  1 O s       :     3.792825  s :     3.792825
      pz      :     1.759405  p :     4.652575
      px      :     1.313652
      py      :     1.579518
      dz2     :     0.003136  d :     0.030578
      dxz     :     0.006477
      dyz     :     0.005835
      dx2y2   :     0.008938
      dxy     :     0.006192
      f0      :     0.000269  f :     0.001685
      f+1     :     0.000233
      f-1     :     0.000087
      f+2     :     0.000287
      f-2     :     0.000235
      f+3     :     0.000367
      f-3     :     0.000206
  2 H s       :     0.639289  s :     0.639289
      pz      :     0.016997  p :     0.047667
      px      :     0.012712
      py      :     0.017958
  3 H s       :     0.882014  s :     0.882014
      pz      :     0.012072  p :     0.019365
      px      :     0.003007
      py      :     0.004286
  4 H s       :     0.861556  s :     0.861556
      pz      :     0.006297  p :     0.020220
      px      :     0.004195
      py      :     0.009728
  5 H s       :     0.882010  s :     0.882010
      pz      :     0.004929  p :     0.019364
      px      :     0.004977
      py      :     0.009458


                     *******************************
                     * LOEWDIN POPULATION ANALYSIS *
                     *******************************

----------------------
LOEWDIN ATOMIC CHARGES
----------------------
   0 C :   -0.385215
   1 O :   -0.076174
   2 H :    0.165918
   3 H :    0.093394
   4 H :    0.108685
   5 H :    0.093392

-------------------------------
LOEWDIN REDUCED ORBITAL CHARGES
-------------------------------
  0 C s       :     2.862930  s :     2.862930
      pz      :     1.096642  p :     3.052268
      px      :     0.846079
      py      :     1.109548
      dz2     :     0.072417  d :     0.412991
      dxz     :     0.114054
      dyz     :     0.020705
      dx2y2   :     0.082151
      dxy     :     0.123664
      f0      :     0.007823  f :     0.057026
      f+1     :     0.007164
      f-1     :     0.000855
      f+2     :     0.012526
      f-2     :     0.004831
      f+3     :     0.011736
      f-3     :     0.012091
  1 O s       :     3.366367  s :     3.366367
      pz      :     1.699038  p :     4.633597
      px      :     1.381240
      py      :     1.553318
      dz2     :     0.006131  d :     0.071567
      dxz     :     0.017864
      dyz     :     0.008085
      dx2y2   :     0.019340
      dxy     :     0.020146
      f0      :     0.000483  f :     0.004644
      f+1     :     0.000622
      f-1     :     0.000072
      f+2     :     0.001050
      f-2     :     0.000560
      f+3     :     0.000890
      f-3     :     0.000967
  2 H s       :     0.675095  s :     0.675095
      pz      :     0.055719  p :     0.158988
      px      :     0.033878
      py      :     0.069391
  3 H s       :     0.846782  s :     0.846782
      pz      :     0.036182  p :     0.059824
      px      :     0.009713
      py      :     0.013929
  4 H s       :     0.831718  s :     0.831718
      pz      :     0.019211  p :     0.059597
      px      :     0.011611
      py      :     0.028774
  5 H s       :     0.846784  s :     0.846784
      pz      :     0.015605  p :     0.059824
      px      :     0.015203
      py      :     0.029016


                      *****************************
                      * MAYER POPULATION ANALYSIS *
                      *****************************

  NA   - Mulliken gross atomic population
  ZA   - Total nuclear charge
  QA   - Mulliken gross atomic charge
  VA   - Mayer's total valence
  BVA  - Mayer's bonded valence
  FA   - Mayer's free valence

  ATOM       NA         ZA         QA         VA         BVA        FA
  0 C      6.1509     6.0000    -0.1509     3.9350     3.9350    -0.0000
  1 O      8.4777     8.0000    -0.4777     1.8880     1.8880     0.0000
  2 H      0.6870     1.0000     0.3130     0.9136     0.9136     0.0000
  3 H      0.9014     1.0000     0.0986     0.9596     0.9596     0.0000
  4 H      0.8818     1.0000     0.1182     0.9598     0.9598     0.0000
  5 H      0.9014     1.0000     0.0986     0.9596     0.9596     0.0000

  Mayer bond orders larger than 0.1
B(  0-C ,  1-O ) :   0.9987 B(  0-C ,  3-H ) :   0.9755 B(  0-C ,  4-H ) :   0.9749 
B(  0-C ,  5-H ) :   0.9755 B(  1-O ,  2-H ) :   0.9002 

-------
TIMINGS
-------

Total SCF time: 0 days 0 hours 0 min 4 sec 

Total time                  ....       4.188 sec
Sum of individual times     ....       3.841 sec  ( 91.7%)

Fock matrix formation       ....       2.518 sec  ( 60.1%)
  XC integration            ....       0.742 sec  ( 29.5% of F)
    Basis function eval.    ....       0.168 sec  ( 22.7% of XC)
    Density eval.           ....       0.105 sec  ( 14.2% of XC)
    XC-Functional eval.     ....       0.271 sec  ( 36.6% of XC)
    XC-Potential eval.      ....       0.100 sec  ( 13.5% of XC)
Diagonalization             ....       0.006 sec  (  0.1%)
Density matrix formation    ....       0.001 sec  (  0.0%)
Population analysis         ....       0.013 sec  (  0.3%)
Initial guess               ....       0.004 sec  (  0.1%)
Orbital Transformation      ....       0.000 sec  (  0.0%)
Orbital Orthonormalization  ....       0.002 sec  (  0.0%)
DIIS solution               ....       0.000 sec  (  0.0%)
SOSCF solution              ....       0.009 sec  (  0.2%)
Grid generation             ....       1.289 sec  ( 30.8%)


-------------------------------------------------------------------------------
                          DFT DISPERSION CORRECTION                            
                                                                               
                              DFTD3 V3.1  Rev 1                                
                              USING zero damping                               
-------------------------------------------------------------------------------
The omegaB97X-D3 functional is recognized. Fit by Chai et al.
Active option DFTDOPT                   ...         3   

molecular C6(AA) [au] = 208.715890 


            DFT-D V3
 parameters
 s6 scaling factor         :     1.0000 
 rs6 scaling factor        :     1.2810 
 s8 scaling factor         :     1.0000 
 rs8 scaling factor        :     1.0940 
 Damping factor alpha6     :    14.0000 
 Damping factor alpha8     :    16.0000 
 ad hoc parameters k1-k3   :    16.0000     1.3333    -4.0000 

 Edisp/kcal,au: -0.150152627415  -0.000239283417 
 E6   /kcal   :  -0.029616831 
 E8   /kcal   :  -0.120535797 
 % E8         :  80.275516274 

-------------------------   ----------------
Dispersion correction           -0.000239283
-------------------------   ----------------


-------------------------   --------------------
FINAL SINGLE POINT ENERGY      -115.738051323568
-------------------------   --------------------

                                *** OPTIMIZATION RUN DONE ***

                            ***************************************
                            *     ORCA property calculations      *
                            ***************************************

                                    ---------------------
                                    Active property flags
                                    ---------------------
   (+) Dipole Moment


------------------------------------------------------------------------------
                       ORCA ELECTRIC PROPERTIES CALCULATION
------------------------------------------------------------------------------

Dipole Moment Calculation                       ... on
Quadrupole Moment Calculation                   ... off
Polarizability Calculation                      ... off
GBWName                                         ... 4_geo_opt.gbw
Electron density file                           ... 4_geo_opt.scfp.tmp
The origin for moment calculation is the CENTER OF MASS  = ( 7.033267, -2.140188  1.369371)

-------------
DIPOLE MOMENT
-------------
                                X             Y             Z
Electronic contribution:      1.75603      -0.02835       0.41989
Nuclear contribution   :     -2.06578       0.47598      -0.81754
                        -----------------------------------------
Total Dipole Moment    :     -0.30975       0.44763      -0.39765
                        -----------------------------------------
Magnitude (a.u.)       :      0.67412
Magnitude (Debye)      :      1.71347



--------------------
Rotational spectrum 
--------------------
 
Rotational constants in cm-1:     4.292654     0.833812     0.804909 
Rotational constants in MHz : 128690.519982 24997.043558 24130.564653 

 Dipole components along the rotational axes: 
x,y,z [a.u.] :    -0.332809     0.586238    -0.000005 
x,y,z [Debye]:    -0.845932     1.490098    -0.000012 

 
------------------------------------------------------------------------------
                      ORCA CHELPG CHARGES GENERATION
------------------------------------------------------------------------------

GBW file                           ... 4_geo_opt.gbw

Reading the GBW file               ... done

Grid spacing                       ...     0.300000
Point Cut-Off                      ...     2.800000
Van-der-Waals Radii                ...        COSMO
Total charge                       ...            0


Number of points X direction       ...           26
Number of points Y direction       ...           24
Number of points Z direction       ...           24
Maximum number of possible points  ...        14976
Final number of points             ...         5948


CHELPG Charges            
--------------------------------
  0   C   :       0.093868
  1   O   :      -0.606874
  2   H   :       0.403823
  3   H   :       0.014311
  4   H   :       0.081023
  5   H   :       0.013850
--------------------------------
Total charge:     0.000000
--------------------------------

CHELPG charges calculated...

Timings for individual parts in CHELPG calculation:
Grid generation                 ...        0.001 sec (=   0.000 min)
Potential calculation           ...        0.614 sec (=   0.010 min)
Fit to the potential            ...        0.048 sec (=   0.001 min)
------------------------------------------------------------------------------


Timings for individual modules:

Sum of individual times         ...       32.967 sec (=   0.549 min)
GTO integral calculation        ...        6.391 sec (=   0.107 min)  19.4 %
SCF iterations                  ...       17.752 sec (=   0.296 min)  53.8 %
SCF Gradient evaluation         ...        4.094 sec (=   0.068 min)  12.4 %
Geometry relaxation             ...        3.188 sec (=   0.053 min)   9.7 %
CHELPG charge generation        ...        1.542 sec (=   0.026 min)   4.7 %
                             ****ORCA TERMINATED NORMALLY****
TOTAL RUN TIME: 0 days 0 hours 0 minutes 36 seconds 318 msec
