
                                 *****************
                                 * O   R   C   A *
                                 *****************

           --- An Ab Initio, DFT and Semiempirical electronic structure package ---

                  #######################################################
                  #                        -***-                        #
                  #          Department of theory and spectroscopy      #
                  #               Directorship: Frank Neese             #
                  #        Max Planck Institute fuer Kohlenforschung    #
                  #                Kaiser Wilhelm Platz 1               #
                  #                 D-45470 Muelheim/Ruhr               #
                  #                      Germany                        #
                  #                                                     #
                  #                  All rights reserved                #
                  #                        -***-                        #
                  #######################################################


                         Program Version 4.1.2  - RELEASE  -


 With contributions from (in alphabetic order):
   Daniel Aravena         : Magnetic Properties
   Michael Atanasov       : Ab Initio Ligand Field Theory
   Alexander A. Auer      : GIAO ZORA
   Ute Becker             : Parallelization
   Giovanni Bistoni       : ED, Open-shell LED
   Martin Brehm           : Molecular dynamics
   Dmytro Bykov           : SCF Hessian
   Vijay G. Chilkuri      : MRCI spin determinant printing
   Dipayan Datta          : RHF DLPNO-CCSD density
   Achintya Kumar Dutta   : EOM-CC, STEOM-CC
   Dmitry Ganyushin       : Spin-Orbit,Spin-Spin,Magnetic field MRCI
   Miquel Garcia          : C-PCM Hessian
   Yang Guo               : DLPNO-NEVPT2, CIM, IAO-localization
   Andreas Hansen         : Spin unrestricted coupled pair/coupled cluster methods
   Benjamin Helmich-Paris : CASSCF linear response (MC-RPA)
   Lee Huntington         : MR-EOM, pCC
   Robert Izsak           : Overlap fitted RIJCOSX, COSX-SCS-MP3, EOM
   Christian Kollmar      : KDIIS, OOCD, Brueckner-CCSD(T), CCSD density
   Simone Kossmann        : Meta GGA functionals, TD-DFT gradient, OOMP2, MP2 Hessian
   Martin Krupicka        : AUTO-CI
   Lucas Lang             : DCDCAS
   Dagmar Lenk            : GEPOL surface, SMD
   Dimitrios Liakos       : Extrapolation schemes; parallel MDCI
   Dimitrios Manganas     : ROCIS; embedding schemes
   Dimitrios Pantazis     : SARC Basis sets
   Taras Petrenko         : DFT Hessian,TD-DFT gradient, ASA, ECA, R-Raman, ABS, FL, XAS/XES, NRVS
   Peter Pinski           : DLPNO-MP2, DLPNO-MP2 Gradient
   Christoph Reimann      : Effective Core Potentials
   Marius Retegan         : Local ZFS, SOC
   Christoph Riplinger    : Optimizer, TS searches, QM/MM, DLPNO-CCSD(T), (RO)-DLPNO pert. Triples
   Tobias Risthaus        : Range-separated hybrids, TD-DFT gradient, RPA, STAB
   Michael Roemelt        : Restricted open shell CIS
   Masaaki Saitow         : Open-shell DLPNO
   Barbara Sandhoefer     : DKH picture change effects
   Avijit Sen             : IP-ROCIS
   Kantharuban Sivalingam : CASSCF convergence, NEVPT2, FIC-MRCI
   Bernardo de Souza      : ESD, SOC TD-DFT
   Georgi Stoychev        : AutoAux, RI-MP2 NMR
   Willem Van den Heuvel  : Paramagnetic NMR
   Boris Wezisla          : Elementary symmetry handling
   Frank Wennmohs         : Technical directorship


 We gratefully acknowledge several colleagues who have allowed us to
 interface, adapt or use parts of their codes:
   Stefan Grimme, W. Hujo, H. Kruse,             : VdW corrections, initial TS optimization,
                  C. Bannwarth                     DFT functionals, gCP, sTDA/sTD-DF
   Ed Valeev                                     : LibInt (2-el integral package), F12 methods
   Garnet Chan, S. Sharma, J. Yang, R. Olivares  : DMRG
   Ulf Ekstrom                                   : XCFun DFT Library
   Mihaly Kallay                                 : mrcc  (arbitrary order and MRCC methods)
   Andreas Klamt, Michael Diedenhofen            : otool_cosmo (COSMO solvation model)
   Jiri Pittner, Ondrej Demel                    : Mk-CCSD
   Frank Weinhold                                : gennbo (NPA and NBO analysis)
   Christopher J. Cramer and Donald G. Truhlar   : smd solvation model
   Lars Goerigk                                  : TD-DFT with DH, B97 family of functionals
   V. Asgeirsson, H. Jonsson                     : NEB implementation
   FAccTs GmbH                                   : IRC, NEB, NEB-TS, Multilevel


 Your calculation uses the libint2 library for the computation of 2-el integrals
 For citations please refer to: http://libint.valeyev.net

 This ORCA versions uses:
   CBLAS   interface :  Fast vector & matrix operations
   LAPACKE interface :  Fast linear algebra routines
   SCALAPACK package :  Parallel linear algebra routines


Your calculation utilizes the atom-pairwise dispersion correction
with the zero-damping scheme (D30)
Cite in your paper:
S.Grimme, J.Antony, S.Ehrlich and H.Krieg, J.Chem.Phys., 132, (2010), 154104 
   

XCFun DFT library Copyright 2009-2010 Ulf Ekstrom and contributors.
See http://admol.org/xcfun for more information. This is free soft-
ware; see the source code for copying conditions. There is ABSOLUTELY
NO WARRANTY; not even for MERCHANTABILITY or FITNESS FOR A PARTICULAR
PURPOSE. For details see the documentation. Scientific users of this 
library should cite U. Ekstrom, L. Visscher, R. Bast, A. J. Thorvald-
sen and K. Ruud; J.Chem.Theor.Comp. 2010, DOI: 10.1021/ct100117s
XCFun Version 0.99 
----- Orbital basis set information -----
Your calculation utilizes the basis: def2-TZVP
   F. Weigend and R. Ahlrichs, Phys. Chem. Chem. Phys. 7, 3297 (2005).

================================================================================
                                        WARNINGS
                       Please study these warnings very carefully!
================================================================================


INFO   : the flag for use of LIBINT has been found!

Your calculation utilizes the atom-pairwise dispersion correction
with the zero-damping scheme (D30)
Cite in your paper:
S.Grimme, J.Antony, S.Ehrlich and H.Krieg, J.Chem.Phys., 132, (2010), 154104 
   

XCFun DFT library Copyright 2009-2010 Ulf Ekstrom and contributors.
See http://admol.org/xcfun for more information. This is free soft-
ware; see the source code for copying conditions. There is ABSOLUTELY
NO WARRANTY; not even for MERCHANTABILITY or FITNESS FOR A PARTICULAR
PURPOSE. For details see the documentation. Scientific users of this 
library should cite U. Ekstrom, L. Visscher, R. Bast, A. J. Thorvald-
sen and K. Ruud; J.Chem.Theor.Comp. 2010, DOI: 10.1021/ct100117s
XCFun Version 0.99 
----- Orbital basis set information -----
Your calculation utilizes the basis: def2-TZVP
   F. Weigend and R. Ahlrichs, Phys. Chem. Chem. Phys. 7, 3297 (2005).

================================================================================
                                        WARNINGS
                       Please study these warnings very carefully!
================================================================================


WARNING: MOInp is set but Guess=PModel. MOInp will be ignored!
         To read the initial guess from a file you must also specify
         'MORead' in the simple input or 'Guess MORead' in the %scf block


INFO   : the flag for use of LIBINT has been found!

Your calculation utilizes the atom-pairwise dispersion correction
with the zero-damping scheme (D30)
Cite in your paper:
S.Grimme, J.Antony, S.Ehrlich and H.Krieg, J.Chem.Phys., 132, (2010), 154104 
   

XCFun DFT library Copyright 2009-2010 Ulf Ekstrom and contributors.
See http://admol.org/xcfun for more information. This is free soft-
ware; see the source code for copying conditions. There is ABSOLUTELY
NO WARRANTY; not even for MERCHANTABILITY or FITNESS FOR A PARTICULAR
PURPOSE. For details see the documentation. Scientific users of this 
library should cite U. Ekstrom, L. Visscher, R. Bast, A. J. Thorvald-
sen and K. Ruud; J.Chem.Theor.Comp. 2010, DOI: 10.1021/ct100117s
XCFun Version 0.99 
----- Orbital basis set information -----
Your calculation utilizes the basis: def2-TZVP
   F. Weigend and R. Ahlrichs, Phys. Chem. Chem. Phys. 7, 3297 (2005).

================================================================================
                                        WARNINGS
                       Please study these warnings very carefully!
================================================================================


WARNING: MOInp is set but Guess=PModel. MOInp will be ignored!
         To read the initial guess from a file you must also specify
         'MORead' in the simple input or 'Guess MORead' in the %scf block


INFO   : the flag for use of LIBINT has been found!

================================================================================
                                       INPUT FILE
================================================================================
NAME = 18-171.in
|  1> #Run DFT-D3 single point of the dimer
|  2> ! wB97X-D3 def2-TZVP TIGHTSCF CHELPG PMODEL PAL8
|  3> 
|  4> %base "18-171_DFT_AB"
|  5> 
|  6> %scf
|  7> MaxIter 1000
|  8> end
|  9> 
| 10> * xyz 0 1
| 11>   C                      -3.115504            7.001241             2.301586            
| 12>   O                      -3.053146            6.462424             0.964257            
| 13>   H                      -2.899011            7.214064             0.348305            
| 14>   H                      -3.798502            7.837995             2.319530            
| 15>   H                      -3.430143            6.398298             3.171585            
| 16>   H                      -2.108414            7.378747             2.531896            
| 17>   C                      -1.190909            10.327106            1.281165            
| 18>   O                      -2.215405            10.697744            0.441225            
| 19>   H                      -2.278766            9.994102             -0.216100           
| 20>   H                      -0.267089            10.114509            0.636570            
| 21>   H                      -1.034651            11.061205            2.086478            
| 22>   H                      -1.474296            9.360939             1.762400            
| 23> *
| 24> 
| 25> #Run DFT-D3 single point of the molecule with dimer basis set
| 26> $new_job
| 27> %base "18-171_DFT_A"
| 28> ! wB97X-D3 def2-TZVP TIGHTSCF CHELPG PMODEL
| 29> 
| 30> %scf
| 31> MaxIter 1000
| 32> end
| 33> 
| 34> * xyz 0 1
| 35>   C                      -3.115504            7.001241             2.301586            
| 36>   O                      -3.053146            6.462424             0.964257            
| 37>   H                      -2.899011            7.214064             0.348305            
| 38>   H                      -3.798502            7.837995             2.319530            
| 39>   H                      -3.430143            6.398298             3.171585            
| 40>   H                      -2.108414            7.378747             2.531896            
| 41>   C                    : -1.190909            10.327106            1.281165            
| 42>   O                    : -2.215405            10.697744            0.441225            
| 43>   H                    : -2.278766            9.994102             -0.216100           
| 44>   H                    : -0.267089            10.114509            0.636570            
| 45>   H                    : -1.034651            11.061205            2.086478            
| 46>   H                    : -1.474296            9.360939             1.762400            
| 47> *
| 48> 
| 49> #Run DFT-D3 single point of the particle with dimer basis set
| 50> $new_job
| 51> %base "18-171_DFT_B"
| 52> ! wB97X-D3 def2-TZVP TIGHTSCF CHELPG PMODEL
| 53> 
| 54> %scf
| 55> MaxIter 1000
| 56> end
| 57> 
| 58> * xyz 0 1
| 59>   C                    : -3.115504            7.001241             2.301586            
| 60>   O                    : -3.053146            6.462424             0.964257            
| 61>   H                    : -2.899011            7.214064             0.348305            
| 62>   H                    : -3.798502            7.837995             2.319530            
| 63>   H                    : -3.430143            6.398298             3.171585            
| 64>   H                    : -2.108414            7.378747             2.531896            
| 65>   C                      -1.190909            10.327106            1.281165            
| 66>   O                      -2.215405            10.697744            0.441225            
| 67>   H                      -2.278766            9.994102             -0.216100           
| 68>   H                      -0.267089            10.114509            0.636570            
| 69>   H                      -1.034651            11.061205            2.086478            
| 70>   H                      -1.474296            9.360939             1.762400            
| 71> *
| 72> 
| 73>                          ****END OF INPUT****
================================================================================


                 $$$$$$$$$$$$$$$$$$$$$$$$$$$$$$$$$$$$$$$$$$$$$$ 
                 $ THERE ARE  3 JOBS TO BE PROCESSED THIS RUN $
                 $$$$$$$$$$$$$$$$$$$$$$$$$$$$$$$$$$$$$$$$$$$$$$ 




                 $$$$$$$$$$$$$$$$  JOB NUMBER  1 $$$$$$$$$$$$$$


                       ****************************
                       * Single Point Calculation *
                       ****************************

---------------------------------
CARTESIAN COORDINATES (ANGSTROEM)
---------------------------------
  C     -3.115504    7.001241    2.301586
  O     -3.053146    6.462424    0.964257
  H     -2.899011    7.214064    0.348305
  H     -3.798502    7.837995    2.319530
  H     -3.430143    6.398298    3.171585
  H     -2.108414    7.378747    2.531896
  C     -1.190909   10.327106    1.281165
  O     -2.215405   10.697744    0.441225
  H     -2.278766    9.994102   -0.216100
  H     -0.267089   10.114509    0.636570
  H     -1.034651   11.061205    2.086478
  H     -1.474296    9.360939    1.762400

----------------------------
CARTESIAN COORDINATES (A.U.)
----------------------------
  NO LB      ZA    FRAG     MASS         X           Y           Z
   0 C     6.0000    0    12.011   -5.887449   13.230428    4.349367
   1 O     8.0000    0    15.999   -5.769610   12.212212    1.822182
   2 H     1.0000    0     1.008   -5.478337   13.632605    0.658201
   3 H     1.0000    0     1.008   -7.178128   14.811664    4.383276
   4 H     1.0000    0     1.008   -6.482031   12.091031    5.993427
   5 H     1.0000    0     1.008   -3.984325   13.943811    4.784590
   6 C     6.0000    0    12.011   -2.250492   19.515402    2.421051
   7 O     8.0000    0    15.999   -4.186509   20.215806    0.833794
   8 H     1.0000    0     1.008   -4.306244   18.886116   -0.408370
   9 H     1.0000    0     1.008   -0.504725   19.113652    1.202943
  10 H     1.0000    0     1.008   -1.955207   20.902648    3.942872
  11 H     1.0000    0     1.008   -2.786016   17.689611    3.330453

--------------------------------
INTERNAL COORDINATES (ANGSTROEM)
--------------------------------
 C      0   0   0     0.000000000000     0.00000000     0.00000000
 O      1   0   0     1.443142797472     0.00000000     0.00000000
 H      2   1   0     0.983929445707   107.55747298     0.00000000
 H      1   2   3     1.080261779226   109.38499133    49.64141409
 H      1   2   3     1.104280861724   122.58358166   170.56306611
 H      1   2   3     1.099901697533   106.41662747   293.16727737
 C      6   1   2     3.331510806266   118.50904257    78.76227080
 O      7   6   1     1.375668486468   105.22209439   353.57217240
 H      8   7   6     0.964988516051   105.56585541   300.95546300
 H      7   6   1     1.146361021160   105.59963634   239.61297387
 H      7   6   1     1.100839194585   110.76967425   114.65644715
 H      7   6   1     1.115963256063     3.59892965   132.11630003

---------------------------
INTERNAL COORDINATES (A.U.)
---------------------------
 C      0   0   0     0.000000000000     0.00000000     0.00000000
 O      1   0   0     2.727144659362     0.00000000     0.00000000
 H      2   1   0     1.859357187487   107.55747298     0.00000000
 H      1   2   3     2.041398915679   109.38499133    49.64141409
 H      1   2   3     2.086788403590   122.58358166   170.56306611
 H      1   2   3     2.078512982572   106.41662747   293.16727737
 C      6   1   2     6.295643036042   118.50904257    78.76227080
 O      7   6   1     2.599636690490   105.22209439   353.57217240
 H      8   7   6     1.823564017715   105.56585541   300.95546300
 H      7   6   1     2.166308380594   105.59963634   239.61297387
 H      7   6   1     2.080284595252   110.76967425   114.65644715
 H      7   6   1     2.108864929478     3.59892965   132.11630003

---------------------
BASIS SET INFORMATION
---------------------
There are 3 groups of distinct atoms

 Group   1 Type C   : 11s6p2d1f contracted to 5s3p2d1f pattern {62111/411/11/1}
 Group   2 Type O   : 11s6p2d1f contracted to 5s3p2d1f pattern {62111/411/11/1}
 Group   3 Type H   : 5s1p contracted to 3s1p pattern {311/1}

Atom   0C    basis set group =>   1
Atom   1O    basis set group =>   2
Atom   2H    basis set group =>   3
Atom   3H    basis set group =>   3
Atom   4H    basis set group =>   3
Atom   5H    basis set group =>   3
Atom   6C    basis set group =>   1
Atom   7O    basis set group =>   2
Atom   8H    basis set group =>   3
Atom   9H    basis set group =>   3
Atom  10H    basis set group =>   3
Atom  11H    basis set group =>   3


           ************************************************************
           *        Program running with 8 parallel MPI-processes     *
           *              working on a common directory               *
           ************************************************************
------------------------------------------------------------------------------
                           ORCA GTO INTEGRAL CALCULATION
------------------------------------------------------------------------------

                         BASIS SET STATISTICS AND STARTUP INFO

 # of primitive gaussian shells          ...  128
 # of primitive gaussian functions       ...  248
 # of contracted shells                  ...   76
 # of contracted basis functions         ...  172
 Highest angular momentum                ...    3
 Maximum contraction depth               ...    6
 Integral package used                   ... LIBINT
 Integral threshhold            Thresh   ...  2.500e-11
 Primitive cut-off              TCut     ...  2.500e-12


------------------------------ INTEGRAL EVALUATION ----------------------------


 * One electron integrals 
 Pre-screening matrix                    ... done
 Shell pair data                         ... done (   0.001 sec)



           ************************************************************
           *        Program running with 8 parallel MPI-processes     *
           *              working on a common directory               *
           ************************************************************
-------------------------------------------------------------------------------
                                 ORCA SCF
-------------------------------------------------------------------------------

------------
SCF SETTINGS
------------
Hamiltonian:
 Density Functional     Method          .... DFT(GTOs)
 Exchange Functional    Exchange        .... WB97X-D3
 Correlation Functional Correlation     .... WB97X-D3
 Gradients option       PostSCFGGA      .... off
 Hybrid DFT is turned on
   Fraction HF Exchange ScalHFX         ....  0.195728
   Scaling of DF-GGA-X  ScalDFX         ....  0.000000
   Scaling of DF-GGA-C  ScalDFC         ....  1.000000
   Scaling of DF-LDA-C  ScalLDAC        ....  1.000000
   Perturbative correction              ....  0.000000
   Density functional embedding theory  .... OFF
 Long-range corrected/Screened/Range-Separated Hybrid DFT is turned on
   Amount of maximum screened exact exchange              ....  0.804272
   Range separation parameter mu (erf(mu*r12)/r12)        ....  0.250000


General Settings:
 Integral files         IntName         .... 18-171_DFT_AB
 Hartree-Fock type      HFTyp           .... RHF
 Total Charge           Charge          ....    0
 Multiplicity           Mult            ....    1
 Number of Electrons    NEL             ....   36
 Basis Dimension        Dim             ....  172
 Nuclear Repulsion      ENuc            ....    122.2080160185 Eh

Convergence Acceleration:
 DIIS                   CNVDIIS         .... on
   Start iteration      DIISMaxIt       ....    12
   Startup error        DIISStart       ....  0.200000
   # of expansion vecs  DIISMaxEq       ....     5
   Bias factor          DIISBfac        ....   1.050
   Max. coefficient     DIISMaxC        ....  10.000
 Newton-Raphson         CNVNR           .... off
 SOSCF                  CNVSOSCF        .... on
   Start iteration      SOSCFMaxIt      ....   150
   Startup grad/error   SOSCFStart      ....  0.003300
 Level Shifting         CNVShift        .... on
   Level shift para.    LevelShift      ....    0.2500
   Turn off err/grad.   ShiftErr        ....    0.0010
 Zerner damping         CNVZerner       .... off
 Static damping         CNVDamp         .... on
   Fraction old density DampFac         ....    0.7000
   Max. Damping (<1)    DampMax         ....    0.9800
   Min. Damping (>=0)   DampMin         ....    0.0000
   Turn off err/grad.   DampErr         ....    0.1000
 Fernandez-Rico         CNVRico         .... off

SCF Procedure:
 Maximum # iterations   MaxIter         ....  1000
 SCF integral mode      SCFMode         .... Direct
   Integral package                     .... LIBINT
 Reset frequency        DirectResetFreq ....    20
 Integral Threshold     Thresh          ....  2.500e-11 Eh
 Primitive CutOff       TCut            ....  2.500e-12 Eh

Convergence Tolerance:
 Convergence Check Mode ConvCheckMode   .... Total+1el-Energy
 Convergence forced     ConvForced      .... 0
 Energy Change          TolE            ....  1.000e-08 Eh
 1-El. energy change                    ....  1.000e-05 Eh
 Orbital Gradient       TolG            ....  1.000e-05
 Orbital Rotation angle TolX            ....  1.000e-05
 DIIS Error             TolErr          ....  5.000e-07


Diagonalization of the overlap matrix:
Smallest eigenvalue                        ... 1.079e-03
Time for diagonalization                   ...    0.004 sec
Threshold for overlap eigenvalues          ... 1.000e-08
Number of eigenvalues below threshold      ... 0
Time for construction of square roots      ...    0.005 sec
Total time needed                          ...    0.010 sec

-------------------
DFT GRID GENERATION
-------------------

General Integration Accuracy     IntAcc      ...  4.340
Radial Grid Type                 RadialGrid  ... Gauss-Chebyshev
Angular Grid (max. acc.)         AngularGrid ... Lebedev-110
Angular grid pruning method      GridPruning ... 3 (G Style)
Weight generation scheme         WeightScheme... Becke
Basis function cutoff            BFCut       ...    1.0000e-11
Integration weight cutoff        WCut        ...    1.0000e-14
Grids for H and He will be reduced by one unit

# of grid points (after initial pruning)     ...  13096 (   0.0 sec)
# of grid points (after weights+screening)   ...  12467 (   0.0 sec)
nearest neighbour list constructed           ...    0.0 sec
Grid point re-assignment to atoms done       ...    0.0 sec
Grid point division into batches done        ...    0.0 sec
Reduced shell lists constructed in    0.0 sec

Total number of grid points                  ...    12467
Total number of batches                      ...      202
Average number of points per batch           ...       61
Average number of grid points per atom       ...     1039
Average number of shells per batch           ...    49.04 (64.52%)
Average number of basis functions per batch  ...   106.37 (61.84%)
Average number of large shells per batch     ...    39.74 (81.04%)
Average number of large basis fcns per batch ...    87.22 (82.00%)
Maximum spatial batch extension              ...  25.60, 15.28, 13.15 au
Average spatial batch extension              ...   0.49,  0.38,  0.35 au

Time for grid setup =    0.040 sec

------------------------------
INITIAL GUESS: MODEL POTENTIAL
------------------------------
Loading Hartree-Fock densities                     ... done
Calculating cut-offs                               ... done
Setting up the integral package                    ... done
Initializing the effective Hamiltonian             ... done
Starting the Coulomb interaction                   ... done (   0.0 sec)
Reading the grid                                   ... done
Mapping shells                                     ... done
Starting the XC term evaluation                    ... done (   0.0 sec)
  promolecular density results
     # of electrons  =     35.987545982
     EX              =    -28.845991630
     EC              =     -1.152561621
     EX+EC           =    -29.998553252
Transforming the Hamiltonian                       ... done (   0.0 sec)
Diagonalizing the Hamiltonian                      ... done (   0.0 sec)
Back transforming the eigenvectors                 ... done (   0.0 sec)
Now organizing SCF variables                       ... done
                      ------------------
                      INITIAL GUESS DONE (   0.2 sec)
                      ------------------
--------------
SCF ITERATIONS
--------------
ITER       Energy         Delta-E        Max-DP      RMS-DP      [F,P]     Damp
               ***  Starting incremental Fock matrix formation  ***
  0   -231.2859460254   0.000000000000 0.03747448  0.00108461  0.2522717 0.7000
  1   -231.3596005130  -0.073654487557 0.02374413  0.00077208  0.1254947 0.7000
                               ***Turning on DIIS***
  2   -231.3931628421  -0.033562329118 0.03652361  0.00139042  0.0480956 0.0000
  3   -231.4476427390  -0.054479896901 0.01794224  0.00050951  0.0614213 0.0000
  4   -231.4567447321  -0.009101993152 0.00416513  0.00010160  0.0062206 0.0000
                      *** Initiating the SOSCF procedure ***
                           *** Shutting down DIIS ***
                      *** Re-Reading the Fockian *** 
                      *** Removing any level shift *** 
ITER      Energy       Delta-E        Grad      Rot      Max-DP    RMS-DP
  5   -231.45692608  -0.0001813519  0.000437  0.000437  0.000818  0.000035
               *** Restarting incremental Fock matrix formation ***
  6   -231.45694309  -0.0000170091  0.000177  0.000206  0.000433  0.000021
  7   -231.45694472  -0.0000016306  0.000054  0.000100  0.000215  0.000010
  8   -231.45694483  -0.0000001084  0.000049  0.000027  0.000076  0.000002
  9   -231.45694489  -0.0000000614  0.000010  0.000009  0.000018  0.000001
                  ***Gradient check signals convergence***
              ***Rediagonalizing the Fockian in SOSCF/NRSCF***

               *****************************************************
               *                     SUCCESS                       *
               *           SCF CONVERGED AFTER  10 CYCLES          *
               *****************************************************

Setting up the final grid:

General Integration Accuracy     IntAcc      ...  4.670
Radial Grid Type                 RadialGrid  ... Gauss-Chebyshev
Angular Grid (max. acc.)         AngularGrid ... Lebedev-302
Angular grid pruning method      GridPruning ... 3 (G Style)
Weight generation scheme         WeightScheme... Becke
Basis function cutoff            BFCut       ...    1.0000e-11
Integration weight cutoff        WCut        ...    1.0000e-14
Grids for H and He will be reduced by one unit

# of grid points (after initial pruning)     ...  52000 (   0.0 sec)
# of grid points (after weights+screening)   ...  48971 (   0.0 sec)
nearest neighbour list constructed           ...    0.0 sec
Grid point re-assignment to atoms done       ...    0.0 sec
Grid point division into batches done        ...    0.2 sec
Reduced shell lists constructed in    0.2 sec

Total number of grid points                  ...    48971
Total number of batches                      ...      770
Average number of points per batch           ...       63
Average number of grid points per atom       ...     4081
Average number of shells per batch           ...    46.64 (61.37%)
Average number of basis functions per batch  ...   100.48 (58.42%)
Average number of large shells per batch     ...    37.74 (80.92%)
Average number of large basis fcns per batch ...    83.19 (82.80%)
Maximum spatial batch extension              ...  16.88, 15.22, 12.76 au
Average spatial batch extension              ...   0.31,  0.28,  0.25 au

Final grid set up in    0.3 sec
Final integration                            ... done (   0.1 sec)
Change in XC energy                          ...    -0.000215995
Integrated number of electrons               ...    36.000001894
Previous integrated no of electrons          ...    35.995711718

----------------
TOTAL SCF ENERGY
----------------

Total Energy       :         -231.45716089 Eh           -6298.26955 eV

Components:
Nuclear Repulsion  :          122.20801602 Eh            3325.44918 eV
Electronic Energy  :         -353.66517691 Eh           -9623.71872 eV
One Electron Energy:         -557.00524863 Eh          -15156.88338 eV
Two Electron Energy:          203.34007172 Eh            5533.16465 eV

Virial components:
Potential Energy   :         -461.83337882 Eh          -12567.12514 eV
Kinetic Energy     :          230.37621793 Eh            6268.85559 eV
Virial Ratio       :            2.00469208


DFT components:
N(Alpha)           :       18.000000946799 electrons
N(Beta)            :       18.000000946799 electrons
N(Total)           :       36.000001893597 electrons
E(XC)              :      -21.281768888212 Eh       
DFET-embed. en.    :        0.000000000000 Eh       

---------------
SCF CONVERGENCE
---------------

  Last Energy change         ...   -2.1288e-09  Tolerance :   1.0000e-08
  Last MAX-Density change    ...    5.1687e-06  Tolerance :   1.0000e-07
  Last RMS-Density change    ...    1.7659e-07  Tolerance :   5.0000e-09
  Last Orbital Gradient      ...    1.9727e-06  Tolerance :   1.0000e-05
  Last Orbital Rotation      ...    3.1677e-06  Tolerance :   1.0000e-05

             **** THE GBW FILE WAS UPDATED (18-171_DFT_AB.gbw) ****
             **** DENSITY FILE WAS UPDATED (18-171_DFT_AB.scfp.tmp) ****
             **** ENERGY FILE WAS UPDATED (18-171_DFT_AB.en.tmp) ****
----------------
ORBITAL ENERGIES
----------------

  NO   OCC          E(Eh)            E(eV) 
   0   2.0000     -19.239610      -523.5364 
   1   2.0000     -19.238128      -523.4961 
   2   2.0000     -10.326845      -281.0077 
   3   2.0000     -10.320834      -280.8442 
   4   2.0000      -1.160042       -31.5663 
   5   2.0000      -1.129405       -30.7327 
   6   2.0000      -0.800690       -21.7879 
   7   2.0000      -0.793221       -21.5846 
   8   2.0000      -0.625169       -17.0117 
   9   2.0000      -0.606433       -16.5019 
  10   2.0000      -0.554172       -15.0798 
  11   2.0000      -0.545886       -14.8543 
  12   2.0000      -0.540441       -14.7062 
  13   2.0000      -0.534175       -14.5356 
  14   2.0000      -0.442720       -12.0470 
  15   2.0000      -0.431728       -11.7479 
  16   2.0000      -0.379623       -10.3301 
  17   2.0000      -0.372632       -10.1398 
  18   0.0000       0.071438         1.9439 
  19   0.0000       0.133142         3.6230 
  20   0.0000       0.146299         3.9810 
  21   0.0000       0.157385         4.2827 
  22   0.0000       0.190891         5.1944 
  23   0.0000       0.194020         5.2795 
  24   0.0000       0.204073         5.5531 
  25   0.0000       0.212848         5.7919 
  26   0.0000       0.230565         6.2740 
  27   0.0000       0.260495         7.0884 
  28   0.0000       0.293615         7.9897 
  29   0.0000       0.303561         8.2603 
  30   0.0000       0.317224         8.6321 
  31   0.0000       0.383939        10.4475 
  32   0.0000       0.409827        11.1520 
  33   0.0000       0.417418        11.3585 
  34   0.0000       0.436129        11.8677 
  35   0.0000       0.459486        12.5032 
  36   0.0000       0.473695        12.8899 
  37   0.0000       0.481377        13.0989 
  38   0.0000       0.516726        14.0608 
  39   0.0000       0.529068        14.3967 
  40   0.0000       0.538832        14.6624 
  41   0.0000       0.561028        15.2663 
  42   0.0000       0.575670        15.6648 
  43   0.0000       0.583416        15.8756 
  44   0.0000       0.592786        16.1305 
  45   0.0000       0.617242        16.7960 
  46   0.0000       0.629565        17.1313 
  47   0.0000       0.655177        17.8283 
  48   0.0000       0.677303        18.4304 
  49   0.0000       0.761242        20.7144 
  50   0.0000       0.778137        21.1742 
  51   0.0000       0.785112        21.3640 
  52   0.0000       0.809293        22.0220 
  53   0.0000       0.838991        22.8301 
  54   0.0000       0.863336        23.4926 
  55   0.0000       0.902930        24.5700 
  56   0.0000       0.965727        26.2788 
  57   0.0000       0.987728        26.8774 
  58   0.0000       1.028757        27.9939 
  59   0.0000       1.039173        28.2773 
  60   0.0000       1.110110        30.2076 
  61   0.0000       1.138569        30.9820 
  62   0.0000       1.370840        37.3025 
  63   0.0000       1.375272        37.4231 
  64   0.0000       1.489991        40.5447 
  65   0.0000       1.499664        40.8079 
  66   0.0000       1.542310        41.9684 
  67   0.0000       1.551836        42.2276 
  68   0.0000       1.574429        42.8424 
  69   0.0000       1.590694        43.2850 
  70   0.0000       1.603388        43.6304 
  71   0.0000       1.622575        44.1525 
  72   0.0000       1.641005        44.6540 
  73   0.0000       1.657782        45.1105 
  74   0.0000       1.663856        45.2758 
  75   0.0000       1.689994        45.9871 
  76   0.0000       1.703107        46.3439 
  77   0.0000       1.738440        47.3054 
  78   0.0000       1.781606        48.4800 
  79   0.0000       1.818432        49.4821 
  80   0.0000       1.952593        53.1328 
  81   0.0000       1.958679        53.2984 
  82   0.0000       1.985284        54.0223 
  83   0.0000       2.026548        55.1452 
  84   0.0000       2.028315        55.1933 
  85   0.0000       2.035157        55.3794 
  86   0.0000       2.093081        56.9556 
  87   0.0000       2.107460        57.3469 
  88   0.0000       2.130520        57.9744 
  89   0.0000       2.143240        58.3205 
  90   0.0000       2.224010        60.5184 
  91   0.0000       2.243270        61.0425 
  92   0.0000       2.303750        62.6882 
  93   0.0000       2.327891        63.3451 
  94   0.0000       2.350664        63.9648 
  95   0.0000       2.382534        64.8320 
  96   0.0000       2.402055        65.3632 
  97   0.0000       2.412509        65.6477 
  98   0.0000       2.451032        66.6960 
  99   0.0000       2.480189        67.4894 
 100   0.0000       2.507678        68.2374 
 101   0.0000       2.523300        68.6625 
 102   0.0000       2.552262        69.4506 
 103   0.0000       2.579828        70.2007 
 104   0.0000       2.620219        71.2998 
 105   0.0000       2.658820        72.3502 
 106   0.0000       2.706815        73.6562 
 107   0.0000       2.726686        74.1969 
 108   0.0000       2.740104        74.5620 
 109   0.0000       2.825733        76.8921 
 110   0.0000       2.854196        77.6666 
 111   0.0000       2.901689        78.9590 
 112   0.0000       2.922846        79.5347 
 113   0.0000       2.937919        79.9448 
 114   0.0000       2.985204        81.2315 
 115   0.0000       3.005079        81.7724 
 116   0.0000       3.086989        84.0012 
 117   0.0000       3.099247        84.3348 
 118   0.0000       3.121826        84.9492 
 119   0.0000       3.162527        86.0567 
 120   0.0000       3.246667        88.3463 
 121   0.0000       3.297410        89.7271 
 122   0.0000       3.367087        91.6231 
 123   0.0000       3.386293        92.1457 
 124   0.0000       3.423253        93.1514 
 125   0.0000       3.438934        93.5781 
 126   0.0000       3.443444        93.7009 
 127   0.0000       3.502065        95.2960 
 128   0.0000       3.587300        97.6154 
 129   0.0000       3.616756        98.4169 
 130   0.0000       3.631124        98.8079 
 131   0.0000       3.670360        99.8756 
 132   0.0000       3.685333       100.2830 
 133   0.0000       3.699723       100.6746 
 134   0.0000       3.987176       108.4966 
 135   0.0000       4.028957       109.6335 
 136   0.0000       4.130566       112.3984 
 137   0.0000       4.235535       115.2548 
 138   0.0000       4.244833       115.5078 
 139   0.0000       4.290948       116.7626 
 140   0.0000       4.393903       119.5642 
 141   0.0000       4.416331       120.1745 
 142   0.0000       4.534482       123.3895 
 143   0.0000       4.593520       124.9960 
 144   0.0000       5.336659       145.2179 
 145   0.0000       5.361556       145.8954 
 146   0.0000       5.434687       147.8854 
 147   0.0000       5.466377       148.7477 
 148   0.0000       5.519857       150.2029 
 149   0.0000       5.543180       150.8376 
 150   0.0000       5.768698       156.9742 
 151   0.0000       5.774809       157.1405 
 152   0.0000       5.820091       158.3727 
 153   0.0000       5.876972       159.9205 
 154   0.0000       5.922565       161.1612 
 155   0.0000       6.042187       164.4163 
 156   0.0000       6.260142       170.3471 
 157   0.0000       6.343664       172.6199 
 158   0.0000       6.518927       177.3890 
 159   0.0000       6.536338       177.8628 
 160   0.0000       6.728972       183.1046 
 161   0.0000       6.756487       183.8534 
 162   0.0000       6.795478       184.9144 
 163   0.0000       6.838701       186.0905 
 164   0.0000       7.023371       191.1156 
 165   0.0000       7.027802       191.2362 
 166   0.0000       7.171136       195.1365 
 167   0.0000       7.217974       196.4110 
 168   0.0000      22.328849       607.5989 
 169   0.0000      22.396124       609.4295 
 170   0.0000      43.673934      1188.4282 
 171   0.0000      43.710954      1189.4355 

                    ********************************
                    * MULLIKEN POPULATION ANALYSIS *
                    ********************************

-----------------------
MULLIKEN ATOMIC CHARGES
-----------------------
   0 C :   -0.187524
   1 O :   -0.473251
   2 H :    0.310257
   3 H :    0.120183
   4 H :    0.134038
   5 H :    0.102921
   6 C :   -0.130492
   7 O :   -0.455409
   8 H :    0.310295
   9 H :    0.101797
  10 H :    0.124914
  11 H :    0.042270
Sum of atomic charges:   -0.0000000

--------------------------------
MULLIKEN REDUCED ORBITAL CHARGES
--------------------------------
  0 C s       :     3.234356  s :     3.234356
      pz      :     0.782224  p :     2.853275
      px      :     1.050822
      py      :     1.020230
      dz2     :     0.020430  d :     0.093058
      dxz     :     0.031273
      dyz     :     0.026266
      dx2y2   :     0.003305
      dxy     :     0.011784
      f0      :     0.001541  f :     0.006835
      f+1     :     0.001651
      f-1     :     0.001991
      f+2     :     0.000399
      f-2     :     0.000807
      f+3     :     0.000270
      f-3     :     0.000176
  1 O s       :     3.802878  s :     3.802878
      pz      :     1.229567  p :     4.640250
      px      :     1.902367
      py      :     1.508316
      dz2     :     0.004628  d :     0.028571
      dxz     :     0.003112
      dyz     :     0.013268
      dx2y2   :     0.004722
      dxy     :     0.002842
      f0      :     0.000384  f :     0.001552
      f+1     :     0.000192
      f-1     :     0.000273
      f+2     :     0.000356
      f-2     :     0.000136
      f+3     :     0.000083
      f-3     :     0.000128
  2 H s       :     0.644686  s :     0.644686
      pz      :     0.013779  p :     0.045057
      px      :     0.016789
      py      :     0.014489
  3 H s       :     0.859536  s :     0.859536
      pz      :     0.003090  p :     0.020280
      px      :     0.007891
      py      :     0.009300
  4 H s       :     0.846032  s :     0.846032
      pz      :     0.008978  p :     0.019930
      px      :     0.005169
      py      :     0.005783
  5 H s       :     0.876523  s :     0.876523
      pz      :     0.003516  p :     0.020556
      px      :     0.011867
      py      :     0.005173
  6 C s       :     3.227586  s :     3.227586
      pz      :     0.931024  p :     2.794379
      px      :     0.837082
      py      :     1.026272
      dz2     :     0.025134  d :     0.100273
      dxz     :     0.013741
      dyz     :     0.024059
      dx2y2   :     0.020392
      dxy     :     0.016947
      f0      :     0.000563  f :     0.008254
      f+1     :     0.001926
      f-1     :     0.000487
      f+2     :     0.002027
      f-2     :     0.001761
      f+3     :     0.000841
      f-3     :     0.000650
  7 O s       :     3.794974  s :     3.794974
      pz      :     1.448246  p :     4.626333
      px      :     1.599739
      py      :     1.578348
      dz2     :     0.003186  d :     0.032365
      dxz     :     0.005510
      dyz     :     0.010734
      dx2y2   :     0.007564
      dxy     :     0.005372
      f0      :     0.000157  f :     0.001738
      f+1     :     0.000333
      f-1     :     0.000251
      f+2     :     0.000566
      f-2     :     0.000206
      f+3     :     0.000082
      f-3     :     0.000143
  8 H s       :     0.643000  s :     0.643000
      pz      :     0.016953  p :     0.046704
      px      :     0.013559
      py      :     0.016192
  9 H s       :     0.880509  s :     0.880509
      pz      :     0.005382  p :     0.017694
      px      :     0.008749
      py      :     0.003564
 10 H s       :     0.855162  s :     0.855162
      pz      :     0.008905  p :     0.019924
      px      :     0.003231
      py      :     0.007788
 11 H s       :     0.937936  s :     0.937936
      pz      :     0.005371  p :     0.019794
      px      :     0.003774
      py      :     0.010650


                     *******************************
                     * LOEWDIN POPULATION ANALYSIS *
                     *******************************

----------------------
LOEWDIN ATOMIC CHARGES
----------------------
   0 C :   -0.372208
   1 O :   -0.110124
   2 H :    0.178406
   3 H :    0.095456
   4 H :    0.113506
   5 H :    0.092183
   6 C :   -0.420341
   7 O :   -0.052675
   8 H :    0.172964
   9 H :    0.103181
  10 H :    0.110866
  11 H :    0.088787

-------------------------------
LOEWDIN REDUCED ORBITAL CHARGES
-------------------------------
  0 C s       :     2.866819  s :     2.866819
      pz      :     0.888676  p :     3.063386
      px      :     1.105878
      py      :     1.068833
      dz2     :     0.104800  d :     0.390588
      dxz     :     0.096510
      dyz     :     0.107983
      dx2y2   :     0.019938
      dxy     :     0.061357
      f0      :     0.011333  f :     0.051414
      f+1     :     0.014481
      f-1     :     0.012372
      f+2     :     0.004801
      f-2     :     0.004415
      f+3     :     0.001952
      f-3     :     0.002060
  1 O s       :     3.396241  s :     3.396241
      pz      :     1.293813  p :     4.644406
      px      :     1.807022
      py      :     1.543570
      dz2     :     0.014575  d :     0.065393
      dxz     :     0.011005
      dyz     :     0.030772
      dx2y2   :     0.005728
      dxy     :     0.003313
      f0      :     0.001055  f :     0.004084
      f+1     :     0.000589
      f-1     :     0.000798
      f+2     :     0.001004
      f-2     :     0.000403
      f+3     :     0.000097
      f-3     :     0.000139
  2 H s       :     0.673590  s :     0.673590
      pz      :     0.039974  p :     0.148004
      px      :     0.044293
      py      :     0.063737
  3 H s       :     0.840942  s :     0.840942
      pz      :     0.010605  p :     0.063602
      px      :     0.024118
      py      :     0.028880
  4 H s       :     0.826706  s :     0.826706
      pz      :     0.025938  p :     0.059789
      px      :     0.015441
      py      :     0.018410
  5 H s       :     0.847495  s :     0.847495
      pz      :     0.011095  p :     0.060323
      px      :     0.033342
      py      :     0.015886
  6 C s       :     2.874590  s :     2.874590
      pz      :     1.003963  p :     3.041392
      px      :     0.957123
      py      :     1.080307
      dz2     :     0.069540  d :     0.439740
      dxz     :     0.095173
      dyz     :     0.111080
      dx2y2   :     0.106285
      dxy     :     0.057661
      f0      :     0.009466  f :     0.064619
      f+1     :     0.014407
      f-1     :     0.004398
      f+2     :     0.009792
      f-2     :     0.010996
      f+3     :     0.008358
      f-3     :     0.007202
  7 O s       :     3.352335  s :     3.352335
      pz      :     1.441656  p :     4.615921
      px      :     1.605778
      py      :     1.568487
      dz2     :     0.012164  d :     0.079069
      dxz     :     0.014950
      dyz     :     0.024378
      dx2y2   :     0.015570
      dxy     :     0.012007
      f0      :     0.000499  f :     0.005350
      f+1     :     0.001018
      f-1     :     0.000594
      f+2     :     0.001418
      f-2     :     0.000718
      f+3     :     0.000452
      f-3     :     0.000651
  8 H s       :     0.673232  s :     0.673232
      pz      :     0.052748  p :     0.153804
      px      :     0.036366
      py      :     0.064690
  9 H s       :     0.844690  s :     0.844690
      pz      :     0.016209  p :     0.052129
      px      :     0.025092
      py      :     0.010828
 10 H s       :     0.830697  s :     0.830697
      pz      :     0.024792  p :     0.058436
      px      :     0.009939
      py      :     0.023704
 11 H s       :     0.853593  s :     0.853593
      pz      :     0.015983  p :     0.057620
      px      :     0.011388
      py      :     0.030250


                      *****************************
                      * MAYER POPULATION ANALYSIS *
                      *****************************

  NA   - Mulliken gross atomic population
  ZA   - Total nuclear charge
  QA   - Mulliken gross atomic charge
  VA   - Mayer's total valence
  BVA  - Mayer's bonded valence
  FA   - Mayer's free valence

  ATOM       NA         ZA         QA         VA         BVA        FA
  0 C      6.1875     6.0000    -0.1875     3.9255     3.9255    -0.0000
  1 O      8.4733     8.0000    -0.4733     1.8716     1.8716    -0.0000
  2 H      0.6897     1.0000     0.3103     0.9160     0.9160     0.0000
  3 H      0.8798     1.0000     0.1202     0.9544     0.9544    -0.0000
  4 H      0.8660     1.0000     0.1340     0.9587     0.9587     0.0000
  5 H      0.8971     1.0000     0.1029     0.9559     0.9559     0.0000
  6 C      6.1305     6.0000    -0.1305     3.9286     3.9286    -0.0000
  7 O      8.4554     8.0000    -0.4554     1.8821     1.8821     0.0000
  8 H      0.6897     1.0000     0.3103     0.9148     0.9148    -0.0000
  9 H      0.8982     1.0000     0.1018     0.9647     0.9647     0.0000
 10 H      0.8751     1.0000     0.1249     0.9640     0.9640     0.0000
 11 H      0.9577     1.0000     0.0423     0.9608     0.9608    -0.0000

  Mayer bond orders larger than 0.1
B(  0-C ,  1-O ) :   0.9812 B(  0-C ,  3-H ) :   0.9794 B(  0-C ,  4-H ) :   0.9644 
B(  0-C ,  5-H ) :   0.9789 B(  1-O ,  2-H ) :   0.8988 B(  6-C ,  7-O ) :   0.9937 
B(  6-C ,  9-H ) :   0.9867 B(  6-C , 10-H ) :   0.9692 B(  6-C , 11-H ) :   0.9741 
B(  7-O ,  8-H ) :   0.9011 

-------
TIMINGS
-------

Total SCF time: 0 days 0 hours 0 min 14 sec 

Total time                  ....      14.903 sec
Sum of individual times     ....      14.519 sec  ( 97.4%)

Fock matrix formation       ....      13.915 sec  ( 93.4%)
  XC integration            ....       5.371 sec  ( 38.6% of F)
    Basis function eval.    ....       0.062 sec  (  1.2% of XC)
    Density eval.           ....       0.075 sec  (  1.4% of XC)
    XC-Functional eval.     ....       0.108 sec  (  2.0% of XC)
    XC-Potential eval.      ....       0.076 sec  (  1.4% of XC)
Diagonalization             ....       0.075 sec  (  0.5%)
Density matrix formation    ....       0.005 sec  (  0.0%)
Population analysis         ....       0.025 sec  (  0.2%)
Initial guess               ....       0.125 sec  (  0.8%)
Orbital Transformation      ....       0.000 sec  (  0.0%)
Orbital Orthonormalization  ....       0.000 sec  (  0.0%)
DIIS solution               ....       0.036 sec  (  0.2%)
SOSCF solution              ....       0.045 sec  (  0.3%)
Grid generation             ....       0.292 sec  (  2.0%)


-------------------------------------------------------------------------------
                          DFT DISPERSION CORRECTION                            
                                                                               
                              DFTD3 V3.1  Rev 1                                
                              USING zero damping                               
-------------------------------------------------------------------------------
The omegaB97X-D3 functional is recognized. Fit by Chai et al.
Active option DFTDOPT                   ...         3   

molecular C6(AA) [au] = 835.121644 


            DFT-D V3
 parameters
 s6 scaling factor         :     1.0000 
 rs6 scaling factor        :     1.2810 
 s8 scaling factor         :     1.0000 
 rs8 scaling factor        :     1.0940 
 Damping factor alpha6     :    14.0000 
 Damping factor alpha8     :    16.0000 
 ad hoc parameters k1-k3   :    16.0000     1.3333    -4.0000 

 Edisp/kcal,au: -1.139351448790  -0.001815671913 
 E6   /kcal   :  -0.581147760 
 E8   /kcal   :  -0.558203689 
 % E8         :  48.993108258 

-------------------------   ----------------
Dispersion correction           -0.001815672
-------------------------   ----------------


-------------------------   --------------------
FINAL SINGLE POINT ENERGY      -231.458976562673
-------------------------   --------------------


                            ***************************************
                            *     ORCA property calculations      *
                            ***************************************

                                    ---------------------
                                    Active property flags
                                    ---------------------
   (+) Dipole Moment


------------------------------------------------------------------------------
                       ORCA ELECTRIC PROPERTIES CALCULATION
------------------------------------------------------------------------------

Dipole Moment Calculation                       ... on
Quadrupole Moment Calculation                   ... off
Polarizability Calculation                      ... off
GBWName                                         ... 18-171_DFT_AB.gbw
Electron density file                           ... 18-171_DFT_AB.scfp.tmp
The origin for moment calculation is the CENTER OF MASS  = (-4.524829, 16.294952  2.307767)

-------------
DIPOLE MOMENT
-------------
                                X             Y             Z
Electronic contribution:     -1.38244      -0.19812      -2.55706
Nuclear contribution   :      1.74225       0.35197       2.67810
                        -----------------------------------------
Total Dipole Moment    :      0.35981       0.15385       0.12104
                        -----------------------------------------
Magnitude (a.u.)       :      0.40962
Magnitude (Debye)      :      1.04116



--------------------
Rotational spectrum 
--------------------
 
Rotational constants in cm-1:     0.412685     0.060503     0.057023 
Rotational constants in MHz : 12371.978955  1813.842297  1709.511733 

 Dipole components along the rotational axes: 
x,y,z [a.u.] :     0.239056     0.243214    -0.226900 
x,y,z [Debye]:     0.607633     0.618202    -0.576734 

 
------------------------------------------------------------------------------
                      ORCA CHELPG CHARGES GENERATION
------------------------------------------------------------------------------

GBW file                           ... 18-171_DFT_AB.gbw

Reading the GBW file               ... done

Grid spacing                       ...     0.300000
Point Cut-Off                      ...     2.800000
Van-der-Waals Radii                ...        COSMO
Total charge                       ...            0


Number of points X direction       ...           30
Number of points Y direction       ...           34
Number of points Z direction       ...           29
Maximum number of possible points  ...        29580
Final number of points             ...         9697


CHELPG Charges            
--------------------------------
  0   C   :       0.267617
  1   O   :      -0.658158
  2   H   :       0.410175
  3   H   :      -0.023551
  4   H   :       0.040843
  5   H   :      -0.030260
  6   C   :       0.086610
  7   O   :      -0.582649
  8   H   :       0.399602
  9   H   :       0.011256
 10   H   :       0.089186
 11   H   :      -0.010670
--------------------------------
Total charge:    -0.000000
--------------------------------

CHELPG charges calculated...

Timings for individual parts in CHELPG calculation:
Grid generation                 ...        0.001 sec (=   0.000 min)
Potential calculation           ...        2.061 sec (=   0.034 min)
Fit to the potential            ...        0.003 sec (=   0.000 min)
------------------------------------------------------------------------------


Timings for individual modules:

Sum of individual times         ...       23.199 sec (=   0.387 min)
GTO integral calculation        ...        3.485 sec (=   0.058 min)  15.0 %
SCF iterations                  ...       17.616 sec (=   0.294 min)  75.9 %
CHELPG charge generation        ...        2.099 sec (=   0.035 min)   9.0 %


                 $$$$$$$$$$$$$$$$  JOB NUMBER  2 $$$$$$$$$$$$$$


                       ****************************
                       * Single Point Calculation *
                       ****************************

---------------------------------
CARTESIAN COORDINATES (ANGSTROEM)
---------------------------------
  C     -3.115504    7.001241    2.301586
  O     -3.053146    6.462424    0.964257
  H     -2.899011    7.214064    0.348305
  H     -3.798502    7.837995    2.319530
  H     -3.430143    6.398298    3.171585
  H     -2.108414    7.378747    2.531896
  C     -1.190909   10.327106    1.281165
  O     -2.215405   10.697744    0.441225
  H     -2.278766    9.994102   -0.216100
  H     -0.267089   10.114509    0.636570
  H     -1.034651   11.061205    2.086478
  H     -1.474296    9.360939    1.762400

----------------------------
CARTESIAN COORDINATES (A.U.)
----------------------------
  NO LB      ZA    FRAG     MASS         X           Y           Z
   0 C     6.0000    0    12.011   -5.887449   13.230428    4.349367
   1 O     8.0000    0    15.999   -5.769610   12.212212    1.822182
   2 H     1.0000    0     1.008   -5.478337   13.632605    0.658201
   3 H     1.0000    0     1.008   -7.178128   14.811664    4.383276
   4 H     1.0000    0     1.008   -6.482031   12.091031    5.993427
   5 H     1.0000    0     1.008   -3.984325   13.943811    4.784590
   6 C     0.0000    0     0.000   -2.250492   19.515402    2.421051
   7 O     0.0000    0     0.000   -4.186509   20.215806    0.833794
   8 H     0.0000    0     0.000   -4.306244   18.886116   -0.408370
   9 H     0.0000    0     0.000   -0.504725   19.113652    1.202943
  10 H     0.0000    0     0.000   -1.955207   20.902648    3.942872
  11 H     0.0000    0     0.000   -2.786016   17.689611    3.330453

--------------------------------
INTERNAL COORDINATES (ANGSTROEM)
--------------------------------
 C      0   0   0     0.000000000000     0.00000000     0.00000000
 O      1   0   0     1.443142797472     0.00000000     0.00000000
 H      2   1   0     0.983929445707   107.55747298     0.00000000
 H      1   2   3     1.080261779226   109.38499133    49.64141409
 H      1   2   3     1.104280861724   122.58358166   170.56306611
 H      1   2   3     1.099901697533   106.41662747   293.16727737
 C      6   1   2     3.331510806266   118.50904257    78.76227080
 O      7   6   1     1.375668486468   105.22209439   353.57217240
 H      8   7   6     0.964988516051   105.56585541   300.95546300
 H      7   6   1     1.146361021160   105.59963634   239.61297387
 H      7   6   1     1.100839194585   110.76967425   114.65644715
 H      7   6   1     1.115963256063     3.59892965   132.11630003

---------------------------
INTERNAL COORDINATES (A.U.)
---------------------------
 C      0   0   0     0.000000000000     0.00000000     0.00000000
 O      1   0   0     2.727144659362     0.00000000     0.00000000
 H      2   1   0     1.859357187487   107.55747298     0.00000000
 H      1   2   3     2.041398915679   109.38499133    49.64141409
 H      1   2   3     2.086788403590   122.58358166   170.56306611
 H      1   2   3     2.078512982572   106.41662747   293.16727737
 C      6   1   2     6.295643036042   118.50904257    78.76227080
 O      7   6   1     2.599636690490   105.22209439   353.57217240
 H      8   7   6     1.823564017715   105.56585541   300.95546300
 H      7   6   1     2.166308380594   105.59963634   239.61297387
 H      7   6   1     2.080284595252   110.76967425   114.65644715
 H      7   6   1     2.108864929478     3.59892965   132.11630003

---------------------
BASIS SET INFORMATION
---------------------
There are 3 groups of distinct atoms

 Group   1 Type C   : 11s6p2d1f contracted to 5s3p2d1f pattern {62111/411/11/1}
 Group   2 Type O   : 11s6p2d1f contracted to 5s3p2d1f pattern {62111/411/11/1}
 Group   3 Type H   : 5s1p contracted to 3s1p pattern {311/1}

Atom   0C    basis set group =>   1
Atom   1O    basis set group =>   2
Atom   2H    basis set group =>   3
Atom   3H    basis set group =>   3
Atom   4H    basis set group =>   3
Atom   5H    basis set group =>   3
Atom   6C    basis set group =>   1
Atom   7O    basis set group =>   2
Atom   8H    basis set group =>   3
Atom   9H    basis set group =>   3
Atom  10H    basis set group =>   3
Atom  11H    basis set group =>   3


           ************************************************************
           *        Program running with 8 parallel MPI-processes     *
           *              working on a common directory               *
           ************************************************************
------------------------------------------------------------------------------
                           ORCA GTO INTEGRAL CALCULATION
------------------------------------------------------------------------------

                         BASIS SET STATISTICS AND STARTUP INFO

 # of primitive gaussian shells          ...  128
 # of primitive gaussian functions       ...  248
 # of contracted shells                  ...   76
 # of contracted basis functions         ...  172
 Highest angular momentum                ...    3
 Maximum contraction depth               ...    6
 Integral package used                   ... LIBINT
 Integral threshhold            Thresh   ...  2.500e-11
 Primitive cut-off              TCut     ...  2.500e-12


------------------------------ INTEGRAL EVALUATION ----------------------------


 * One electron integrals 
 Pre-screening matrix                    ... done
 Shell pair data                         ... done (   0.001 sec)



           ************************************************************
           *        Program running with 8 parallel MPI-processes     *
           *              working on a common directory               *
           ************************************************************
-------------------------------------------------------------------------------
                                 ORCA SCF
-------------------------------------------------------------------------------

------------
SCF SETTINGS
------------
Hamiltonian:
 Density Functional     Method          .... DFT(GTOs)
 Exchange Functional    Exchange        .... WB97X-D3
 Correlation Functional Correlation     .... WB97X-D3
 Gradients option       PostSCFGGA      .... off
 Hybrid DFT is turned on
   Fraction HF Exchange ScalHFX         ....  0.195728
   Scaling of DF-GGA-X  ScalDFX         ....  0.000000
   Scaling of DF-GGA-C  ScalDFC         ....  1.000000
   Scaling of DF-LDA-C  ScalLDAC        ....  1.000000
   Perturbative correction              ....  0.000000
   Density functional embedding theory  .... OFF
 Long-range corrected/Screened/Range-Separated Hybrid DFT is turned on
   Amount of maximum screened exact exchange              ....  0.804272
   Range separation parameter mu (erf(mu*r12)/r12)        ....  0.250000


General Settings:
 Integral files         IntName         .... 18-171_DFT_A
 Hartree-Fock type      HFTyp           .... RHF
 Total Charge           Charge          ....    0
 Multiplicity           Mult            ....    1
 Number of Electrons    NEL             ....   18
 Basis Dimension        Dim             ....  172
 Nuclear Repulsion      ENuc            ....     39.7616478537 Eh

Convergence Acceleration:
 DIIS                   CNVDIIS         .... on
   Start iteration      DIISMaxIt       ....    12
   Startup error        DIISStart       ....  0.200000
   # of expansion vecs  DIISMaxEq       ....     5
   Bias factor          DIISBfac        ....   1.050
   Max. coefficient     DIISMaxC        ....  10.000
 Newton-Raphson         CNVNR           .... off
 SOSCF                  CNVSOSCF        .... on
   Start iteration      SOSCFMaxIt      ....   150
   Startup grad/error   SOSCFStart      ....  0.003300
 Level Shifting         CNVShift        .... on
   Level shift para.    LevelShift      ....    0.2500
   Turn off err/grad.   ShiftErr        ....    0.0010
 Zerner damping         CNVZerner       .... off
 Static damping         CNVDamp         .... on
   Fraction old density DampFac         ....    0.7000
   Max. Damping (<1)    DampMax         ....    0.9800
   Min. Damping (>=0)   DampMin         ....    0.0000
   Turn off err/grad.   DampErr         ....    0.1000
 Fernandez-Rico         CNVRico         .... off

SCF Procedure:
 Maximum # iterations   MaxIter         ....  1000
 SCF integral mode      SCFMode         .... Direct
   Integral package                     .... LIBINT
 Reset frequency        DirectResetFreq ....    20
 Integral Threshold     Thresh          ....  2.500e-11 Eh
 Primitive CutOff       TCut            ....  2.500e-12 Eh

Convergence Tolerance:
 Convergence Check Mode ConvCheckMode   .... Total+1el-Energy
 Convergence forced     ConvForced      .... 0
 Energy Change          TolE            ....  1.000e-08 Eh
 1-El. energy change                    ....  1.000e-05 Eh
 Orbital Gradient       TolG            ....  1.000e-05
 Orbital Rotation angle TolX            ....  1.000e-05
 DIIS Error             TolErr          ....  5.000e-07


Diagonalization of the overlap matrix:
Smallest eigenvalue                        ... 1.079e-03
Time for diagonalization                   ...    0.005 sec
Threshold for overlap eigenvalues          ... 1.000e-08
Number of eigenvalues below threshold      ... 0
Time for construction of square roots      ...    0.006 sec
Total time needed                          ...    0.011 sec

-------------------
DFT GRID GENERATION
-------------------

General Integration Accuracy     IntAcc      ...  4.340
Radial Grid Type                 RadialGrid  ... Gauss-Chebyshev
Angular Grid (max. acc.)         AngularGrid ... Lebedev-110
Angular grid pruning method      GridPruning ... 3 (G Style)
Weight generation scheme         WeightScheme... Becke
Basis function cutoff            BFCut       ...    1.0000e-11
Integration weight cutoff        WCut        ...    1.0000e-14
Grids for H and He will be reduced by one unit

# of grid points (after initial pruning)     ...  13096 (   0.0 sec)
# of grid points (after weights+screening)   ...  12467 (   0.0 sec)
nearest neighbour list constructed           ...    0.0 sec
Grid point re-assignment to atoms done       ...    0.0 sec
Grid point division into batches done        ...    0.0 sec
Reduced shell lists constructed in    0.0 sec

Total number of grid points                  ...    12467
Total number of batches                      ...      202
Average number of points per batch           ...       61
Average number of grid points per atom       ...     1039
Average number of shells per batch           ...    49.04 (64.52%)
Average number of basis functions per batch  ...   106.37 (61.84%)
Average number of large shells per batch     ...    39.74 (81.04%)
Average number of large basis fcns per batch ...    87.22 (82.00%)
Maximum spatial batch extension              ...  25.60, 15.28, 13.15 au
Average spatial batch extension              ...   0.49,  0.38,  0.35 au

Time for grid setup =    0.044 sec

------------------------------
INITIAL GUESS: MODEL POTENTIAL
------------------------------
Loading Hartree-Fock densities                     ... done
Calculating cut-offs                               ... done
Setting up the integral package                    ... done
Initializing the effective Hamiltonian             ... done
Starting the Coulomb interaction                   ... done (   0.0 sec)
Reading the grid                                   ... done
Mapping shells                                     ... done
Starting the XC term evaluation                    ... done (   0.0 sec)
  promolecular density results
     # of electrons  =     17.992991519
     EX              =    -14.413986409
     EC              =     -0.573229707
     EX+EC           =    -14.987216115
Transforming the Hamiltonian                       ... done (   0.0 sec)
Diagonalizing the Hamiltonian                      ... done (   0.0 sec)
Back transforming the eigenvectors                 ... done (   0.0 sec)
Now organizing SCF variables                       ... done
                      ------------------
                      INITIAL GUESS DONE (   0.1 sec)
                      ------------------
--------------
SCF ITERATIONS
--------------
ITER       Energy         Delta-E        Max-DP      RMS-DP      [F,P]     Damp
               ***  Starting incremental Fock matrix formation  ***
  0   -115.6435204233   0.000000000000 0.03633841  0.00074751  0.2409373 0.7000
  1   -115.6794046740  -0.035884250668 0.02378693  0.00052873  0.1196398 0.7000
                               ***Turning on DIIS***
  2   -115.6959053824  -0.016500708401 0.03659178  0.00094815  0.0458523 0.0000
  3   -115.7228420042  -0.026936621837 0.01833663  0.00035657  0.0613510 0.0000
  4   -115.7272144247  -0.004372420473 0.00396283  0.00006927  0.0059458 0.0000
                      *** Initiating the SOSCF procedure ***
                           *** Shutting down DIIS ***
                      *** Re-Reading the Fockian *** 
                      *** Removing any level shift *** 
ITER      Energy       Delta-E        Grad      Rot      Max-DP    RMS-DP
  5   -115.72730447  -0.0000900475  0.000427  0.000427  0.000751  0.000023
               *** Restarting incremental Fock matrix formation ***
  6   -115.72731304  -0.0000085702  0.000158  0.000163  0.000378  0.000014
  7   -115.72731386  -0.0000008194  0.000045  0.000098  0.000175  0.000006
  8   -115.72731392  -0.0000000620  0.000035  0.000020  0.000044  0.000001
  9   -115.72731394  -0.0000000145  0.000012  0.000011  0.000020  0.000001
                  ***Gradient check signals convergence***
              ***Rediagonalizing the Fockian in SOSCF/NRSCF***

               *****************************************************
               *                     SUCCESS                       *
               *           SCF CONVERGED AFTER  10 CYCLES          *
               *****************************************************

Setting up the final grid:

General Integration Accuracy     IntAcc      ...  4.670
Radial Grid Type                 RadialGrid  ... Gauss-Chebyshev
Angular Grid (max. acc.)         AngularGrid ... Lebedev-302
Angular grid pruning method      GridPruning ... 3 (G Style)
Weight generation scheme         WeightScheme... Becke
Basis function cutoff            BFCut       ...    1.0000e-11
Integration weight cutoff        WCut        ...    1.0000e-14
Grids for H and He will be reduced by one unit

# of grid points (after initial pruning)     ...  52000 (   0.0 sec)
# of grid points (after weights+screening)   ...  48971 (   0.0 sec)
nearest neighbour list constructed           ...    0.0 sec
Grid point re-assignment to atoms done       ...    0.0 sec
Grid point division into batches done        ...    0.2 sec
Reduced shell lists constructed in    0.2 sec

Total number of grid points                  ...    48971
Total number of batches                      ...      770
Average number of points per batch           ...       63
Average number of grid points per atom       ...     4081
Average number of shells per batch           ...    46.64 (61.37%)
Average number of basis functions per batch  ...   100.48 (58.42%)
Average number of large shells per batch     ...    37.74 (80.92%)
Average number of large basis fcns per batch ...    83.19 (82.80%)
Maximum spatial batch extension              ...  16.88, 15.22, 12.76 au
Average spatial batch extension              ...   0.31,  0.28,  0.25 au

Final grid set up in    0.3 sec
Final integration                            ... done (   0.1 sec)
Change in XC energy                          ...    -0.000078530
Integrated number of electrons               ...    18.000060458
Previous integrated no of electrons          ...    17.997700119

----------------
TOTAL SCF ENERGY
----------------

Total Energy       :         -115.72739247 Eh           -3149.10245 eV

Components:
Nuclear Repulsion  :           39.76164785 Eh            1081.96944 eV
Electronic Energy  :         -155.48904032 Eh           -4231.07189 eV
One Electron Energy:         -235.98652750 Eh           -6421.51988 eV
Two Electron Energy:           80.49748717 Eh            2190.44799 eV

Virial components:
Potential Energy   :         -230.86695506 Eh           -6282.20923 eV
Kinetic Energy     :          115.13956259 Eh            3133.10678 eV
Virial Ratio       :            2.00510537


DFT components:
N(Alpha)           :        9.000030228972 electrons
N(Beta)            :        9.000030228972 electrons
N(Total)           :       18.000060457945 electrons
E(XC)              :      -10.632203203547 Eh       
DFET-embed. en.    :        0.000000000000 Eh       

---------------
SCF CONVERGENCE
---------------

  Last Energy change         ...   -2.4816e-09  Tolerance :   1.0000e-08
  Last MAX-Density change    ...    3.9216e-06  Tolerance :   1.0000e-07
  Last RMS-Density change    ...    1.1803e-07  Tolerance :   5.0000e-09
  Last Orbital Gradient      ...    1.9306e-06  Tolerance :   1.0000e-05
  Last Orbital Rotation      ...    1.9192e-06  Tolerance :   1.0000e-05

             **** THE GBW FILE WAS UPDATED (18-171_DFT_A.gbw) ****
             **** DENSITY FILE WAS UPDATED (18-171_DFT_A.scfp.tmp) ****
             **** ENERGY FILE WAS UPDATED (18-171_DFT_A.en.tmp) ****
----------------
ORBITAL ENERGIES
----------------

  NO   OCC          E(Eh)            E(eV) 
   0   2.0000     -19.231823      -523.3245 
   1   2.0000     -10.316809      -280.7347 
   2   2.0000      -1.123265       -30.5656 
   3   2.0000      -0.795542       -21.6478 
   4   2.0000      -0.600823       -16.3492 
   5   2.0000      -0.540136       -14.6978 
   6   2.0000      -0.530335       -14.4311 
   7   2.0000      -0.427307       -11.6276 
   8   2.0000      -0.371992       -10.1224 
   9   0.0000       0.071599         1.9483 
  10   0.0000       0.124456         3.3866 
  11   0.0000       0.145955         3.9716 
  12   0.0000       0.165667         4.5080 
  13   0.0000       0.186050         5.0627 
  14   0.0000       0.206660         5.6235 
  15   0.0000       0.213504         5.8097 
  16   0.0000       0.222496         6.0544 
  17   0.0000       0.248759         6.7691 
  18   0.0000       0.282882         7.6976 
  19   0.0000       0.305075         8.3015 
  20   0.0000       0.328920         8.9504 
  21   0.0000       0.346604         9.4316 
  22   0.0000       0.366507         9.9732 
  23   0.0000       0.391883        10.6637 
  24   0.0000       0.413656        11.2561 
  25   0.0000       0.449182        12.2229 
  26   0.0000       0.465725        12.6730 
  27   0.0000       0.478234        13.0134 
  28   0.0000       0.508617        13.8402 
  29   0.0000       0.545216        14.8361 
  30   0.0000       0.556182        15.1345 
  31   0.0000       0.575506        15.6603 
  32   0.0000       0.589852        16.0507 
  33   0.0000       0.610798        16.6207 
  34   0.0000       0.626732        17.0543 
  35   0.0000       0.642917        17.4946 
  36   0.0000       0.689248        18.7554 
  37   0.0000       0.732393        19.9294 
  38   0.0000       0.783164        21.3110 
  39   0.0000       0.795675        21.6514 
  40   0.0000       0.801263        21.8035 
  41   0.0000       0.858994        23.3744 
  42   0.0000       0.881574        23.9889 
  43   0.0000       0.927389        25.2355 
  44   0.0000       0.987949        26.8835 
  45   0.0000       1.031874        28.0787 
  46   0.0000       1.052371        28.6365 
  47   0.0000       1.101731        29.9796 
  48   0.0000       1.149147        31.2699 
  49   0.0000       1.190343        32.3909 
  50   0.0000       1.206084        32.8192 
  51   0.0000       1.220771        33.2189 
  52   0.0000       1.234144        33.5828 
  53   0.0000       1.362492        37.0753 
  54   0.0000       1.375187        37.4207 
  55   0.0000       1.390714        37.8433 
  56   0.0000       1.446064        39.3494 
  57   0.0000       1.515621        41.2421 
  58   0.0000       1.521693        41.4074 
  59   0.0000       1.560164        42.4542 
  60   0.0000       1.599758        43.5316 
  61   0.0000       1.620424        44.0940 
  62   0.0000       1.669586        45.4317 
  63   0.0000       1.695008        46.1235 
  64   0.0000       1.710186        46.5365 
  65   0.0000       1.816983        49.4426 
  66   0.0000       1.834470        49.9185 
  67   0.0000       1.918999        52.2186 
  68   0.0000       1.942967        52.8708 
  69   0.0000       1.965529        53.4848 
  70   0.0000       1.994567        54.2749 
  71   0.0000       2.037721        55.4492 
  72   0.0000       2.080549        56.6146 
  73   0.0000       2.110311        57.4245 
  74   0.0000       2.131097        57.9901 
  75   0.0000       2.159396        58.7602 
  76   0.0000       2.176708        59.2312 
  77   0.0000       2.209250        60.1167 
  78   0.0000       2.232198        60.7412 
  79   0.0000       2.312926        62.9379 
  80   0.0000       2.332871        63.4806 
  81   0.0000       2.389400        65.0189 
  82   0.0000       2.432740        66.1982 
  83   0.0000       2.487756        67.6953 
  84   0.0000       2.515685        68.4553 
  85   0.0000       2.547183        69.3124 
  86   0.0000       2.572554        70.0027 
  87   0.0000       2.605570        70.9012 
  88   0.0000       2.614347        71.1400 
  89   0.0000       2.642960        71.9186 
  90   0.0000       2.668226        72.6061 
  91   0.0000       2.706813        73.6561 
  92   0.0000       2.739334        74.5411 
  93   0.0000       2.848546        77.5129 
  94   0.0000       2.872221        78.1571 
  95   0.0000       2.903383        79.0051 
  96   0.0000       2.933388        79.8215 
  97   0.0000       2.988506        81.3214 
  98   0.0000       3.031303        82.4860 
  99   0.0000       3.081490        83.8516 
 100   0.0000       3.089551        84.0709 
 101   0.0000       3.117118        84.8211 
 102   0.0000       3.148626        85.6785 
 103   0.0000       3.227911        87.8359 
 104   0.0000       3.250469        88.4498 
 105   0.0000       3.336376        90.7874 
 106   0.0000       3.373425        91.7956 
 107   0.0000       3.420923        93.0881 
 108   0.0000       3.428258        93.2876 
 109   0.0000       3.498933        95.2108 
 110   0.0000       3.508201        95.4630 
 111   0.0000       3.550625        96.6174 
 112   0.0000       3.599928        97.9590 
 113   0.0000       3.635001        98.9134 
 114   0.0000       3.685631       100.2911 
 115   0.0000       3.696943       100.5989 
 116   0.0000       3.736630       101.6789 
 117   0.0000       3.992340       108.6371 
 118   0.0000       4.096428       111.4695 
 119   0.0000       4.152876       113.0055 
 120   0.0000       4.235728       115.2600 
 121   0.0000       4.250505       115.6621 
 122   0.0000       4.294093       116.8482 
 123   0.0000       4.307743       117.2196 
 124   0.0000       4.323321       117.6436 
 125   0.0000       4.397352       119.6580 
 126   0.0000       4.512715       122.7972 
 127   0.0000       4.558822       124.0519 
 128   0.0000       4.581183       124.6603 
 129   0.0000       4.597241       125.0973 
 130   0.0000       4.616853       125.6310 
 131   0.0000       5.004492       136.1791 
 132   0.0000       5.050725       137.4372 
 133   0.0000       5.096682       138.6878 
 134   0.0000       5.303046       144.3032 
 135   0.0000       5.342720       145.3828 
 136   0.0000       5.416526       147.3912 
 137   0.0000       5.441274       148.0646 
 138   0.0000       5.526219       150.3761 
 139   0.0000       5.689508       154.8194 
 140   0.0000       5.774724       157.1382 
 141   0.0000       5.779486       157.2678 
 142   0.0000       5.806572       158.0049 
 143   0.0000       5.926987       161.2815 
 144   0.0000       5.928799       161.3308 
 145   0.0000       6.267034       170.5347 
 146   0.0000       6.525231       177.5606 
 147   0.0000       6.627618       180.3467 
 148   0.0000       6.736329       183.3048 
 149   0.0000       6.752660       183.7492 
 150   0.0000       6.801411       185.0758 
 151   0.0000       6.837982       186.0710 
 152   0.0000       7.033546       191.3925 
 153   0.0000       7.135803       194.1751 
 154   0.0000       7.178367       195.3333 
 155   0.0000       7.321970       199.2409 
 156   0.0000       7.519097       204.6050 
 157   0.0000       8.107339       220.6119 
 158   0.0000       8.899522       242.1683 
 159   0.0000       9.322272       253.6719 
 160   0.0000       9.522285       259.1146 
 161   0.0000       9.559606       260.1301 
 162   0.0000       9.827889       267.4305 
 163   0.0000       9.882501       268.9165 
 164   0.0000       9.952190       270.8129 
 165   0.0000      10.095823       274.7213 
 166   0.0000      11.243032       305.9385 
[...]
  82   0.0000       2.409197        65.5576 
  83   0.0000       2.445644        66.5493 
  84   0.0000       2.500256        68.0354 
  85   0.0000       2.521930        68.6252 
  86   0.0000       2.568806        69.9008 
  87   0.0000       2.582758        70.2804 
  88   0.0000       2.605216        70.8915 
  89   0.0000       2.628298        71.5196 
  90   0.0000       2.639498        71.8244 
  91   0.0000       2.740495        74.5727 
  92   0.0000       2.803168        76.2781 
  93   0.0000       2.839207        77.2588 
  94   0.0000       2.858990        77.7971 
  95   0.0000       2.865796        77.9823 
  96   0.0000       2.949290        80.2543 
  97   0.0000       3.003221        81.7218 
  98   0.0000       3.076361        83.7120 
  99   0.0000       3.101193        84.3878 
 100   0.0000       3.118001        84.8451 
 101   0.0000       3.169596        86.2491 
 102   0.0000       3.196353        86.9772 
 103   0.0000       3.236509        88.0699 
 104   0.0000       3.307943        90.0137 
 105   0.0000       3.318397        90.2982 
 106   0.0000       3.369718        91.6947 
 107   0.0000       3.395489        92.3960 
 108   0.0000       3.400303        92.5270 
 109   0.0000       3.451024        93.9071 
 110   0.0000       3.463175        94.2378 
 111   0.0000       3.609731        98.2258 
 112   0.0000       3.625119        98.6445 
 113   0.0000       3.653365        99.4131 
 114   0.0000       3.686554       100.3162 
 115   0.0000       3.708416       100.9111 
 116   0.0000       3.738430       101.7279 
 117   0.0000       4.036299       109.8333 
 118   0.0000       4.045625       110.0871 
 119   0.0000       4.117997       112.0564 
 120   0.0000       4.140331       112.6641 
 121   0.0000       4.204521       114.4108 
 122   0.0000       4.240207       115.3819 
 123   0.0000       4.288690       116.7012 
 124   0.0000       4.389595       119.4469 
 125   0.0000       4.421819       120.3238 
 126   0.0000       4.521341       123.0320 
 127   0.0000       4.534757       123.3970 
 128   0.0000       4.557647       124.0199 
 129   0.0000       4.579819       124.6232 
 130   0.0000       4.601449       125.2118 
 131   0.0000       4.926351       134.0528 
 132   0.0000       5.051779       137.4659 
 133   0.0000       5.171205       140.7156 
 134   0.0000       5.284348       143.7944 
 135   0.0000       5.371085       146.1546 
 136   0.0000       5.455988       148.4650 
 137   0.0000       5.475830       149.0049 
 138   0.0000       5.553038       151.1059 
 139   0.0000       5.738024       156.1396 
 140   0.0000       5.829304       158.6234 
 141   0.0000       5.886265       160.1734 
 142   0.0000       5.944505       161.7582 
 143   0.0000       6.043524       164.4527 
 144   0.0000       6.051513       164.6700 
 145   0.0000       6.353666       172.8920 
 146   0.0000       6.546017       178.1262 
 147   0.0000       6.582364       179.1152 
 148   0.0000       6.691758       182.0920 
 149   0.0000       6.765647       184.1026 
 150   0.0000       6.807143       185.2318 
 151   0.0000       6.848072       186.3455 
 152   0.0000       7.014068       190.8625 
 153   0.0000       7.034051       191.4063 
 154   0.0000       7.177232       195.3024 
 155   0.0000       7.227514       196.6707 
 156   0.0000       7.349610       199.9930 
 157   0.0000       7.948091       216.2785 
 158   0.0000       8.846350       240.7214 
 159   0.0000       9.313590       253.4357 
 160   0.0000       9.541427       259.6354 
 161   0.0000       9.547477       259.8001 
 162   0.0000       9.783367       266.2190 
 163   0.0000       9.877998       268.7940 
 164   0.0000       9.880544       268.8633 
 165   0.0000      10.056936       273.6632 
 166   0.0000      11.113015       302.4005 
 167   0.0000      19.115182       520.1506 
 168   0.0000      22.403810       609.6387 
 169   0.0000      43.706292      1189.3087 
 170   0.0000      65.836680      1791.5071 
 171   0.0000     126.443309      3440.6974 

                    ********************************
                    * MULLIKEN POPULATION ANALYSIS *
                    ********************************

-----------------------
MULLIKEN ATOMIC CHARGES
-----------------------
   0 C :    0.005065
   1 O :   -0.000507
   2 H :   -0.000939
   3 H :   -0.000583
   4 H :    0.000540
   5 H :   -0.002536
   6 C :   -0.153160
   7 O :   -0.461481
   8 H :    0.317854
   9 H :    0.095212
  10 H :    0.120613
  11 H :    0.079922
Sum of atomic charges:    0.0000000

--------------------------------
MULLIKEN REDUCED ORBITAL CHARGES
--------------------------------
  0 C s       :    -0.000694  s :    -0.000694
      pz      :    -0.000183  p :    -0.004408
      px      :    -0.001670
      py      :    -0.002555
      dz2     :    -0.000021  d :     0.000036
      dxz     :    -0.000003
      dyz     :    -0.000000
      dx2y2   :    -0.000011
      dxy     :     0.000072
      f0      :    -0.000000  f :     0.000001
      f+1     :     0.000000
      f-1     :     0.000000
      f+2     :     0.000000
      f-2     :    -0.000000
      f+3     :     0.000001
      f-3     :    -0.000000
  1 O s       :     0.000304  s :     0.000304
      pz      :    -0.000100  p :     0.000204
      px      :     0.000073
      py      :     0.000232
      dz2     :    -0.000000  d :    -0.000001
      dxz     :    -0.000000
      dyz     :    -0.000002
      dx2y2   :     0.000000
      dxy     :     0.000000
      f0      :    -0.000000  f :    -0.000000
      f+1     :    -0.000000
      f-1     :    -0.000000
      f+2     :    -0.000000
      f-2     :    -0.000000
      f+3     :     0.000000
      f-3     :    -0.000000
  2 H s       :     0.000941  s :     0.000941
      pz      :    -0.000002  p :    -0.000002
      px      :    -0.000001
      py      :     0.000000
  3 H s       :     0.000579  s :     0.000579
      pz      :    -0.000000  p :     0.000004
      px      :     0.000005
      py      :    -0.000001
  4 H s       :    -0.000540  s :    -0.000540
      pz      :     0.000000  p :     0.000000
      px      :    -0.000000
      py      :     0.000000
  5 H s       :     0.002513  s :     0.002513
      pz      :     0.000002  p :     0.000023
      px      :     0.000009
      py      :     0.000012
  6 C s       :     3.237991  s :     3.237991
      pz      :     0.929892  p :     2.803987
      px      :     0.837713
      py      :     1.036382
      dz2     :     0.025059  d :     0.102799
      dxz     :     0.013684
      dyz     :     0.025473
      dx2y2   :     0.021819
      dxy     :     0.016764
      f0      :     0.000606  f :     0.008383
      f+1     :     0.001915
      f-1     :     0.000488
      f+2     :     0.002048
      f-2     :     0.001766
      f+3     :     0.000890
      f-3     :     0.000672
  7 O s       :     3.793901  s :     3.793901
      pz      :     1.450648  p :     4.633486
      px      :     1.600662
      py      :     1.582176
      dz2     :     0.003175  d :     0.032353
      dxz     :     0.005524
      dyz     :     0.010738
      dx2y2   :     0.007548
      dxy     :     0.005368
      f0      :     0.000157  f :     0.001741
      f+1     :     0.000333
      f-1     :     0.000252
      f+2     :     0.000566
      f-2     :     0.000207
      f+3     :     0.000083
      f-3     :     0.000143
  8 H s       :     0.635717  s :     0.635717
      pz      :     0.016820  p :     0.046429
      px      :     0.013405
      py      :     0.016204
  9 H s       :     0.887095  s :     0.887095
      pz      :     0.005393  p :     0.017693
      px      :     0.008722
      py      :     0.003578
 10 H s       :     0.859509  s :     0.859509
      pz      :     0.008877  p :     0.019878
      px      :     0.003215
      py      :     0.007787
 11 H s       :     0.901042  s :     0.901042
      pz      :     0.005207  p :     0.019036
      px      :     0.003680
      py      :     0.010149


                     *******************************
                     * LOEWDIN POPULATION ANALYSIS *
                     *******************************

----------------------
LOEWDIN ATOMIC CHARGES
----------------------
   0 C :   -0.005900
   1 O :   -0.000069
   2 H :   -0.001136
   3 H :   -0.000663
   4 H :   -0.000021
   5 H :   -0.007208
   6 C :   -0.419007
   7 O :   -0.053681
   8 H :    0.176917
   9 H :    0.101513
  10 H :    0.109276
  11 H :    0.099979

-------------------------------
LOEWDIN REDUCED ORBITAL CHARGES
-------------------------------
  0 C s       :     0.000689  s :     0.000689
      pz      :     0.000240  p :     0.004921
      px      :     0.001613
      py      :     0.003069
      dz2     :     0.000055  d :     0.000287
      dxz     :     0.000016
      dyz     :     0.000013
      dx2y2   :     0.000021
      dxy     :     0.000182
      f0      :     0.000000  f :     0.000002
      f+1     :     0.000000
      f-1     :     0.000001
      f+2     :     0.000000
      f-2     :     0.000000
      f+3     :     0.000001
      f-3     :     0.000000
  1 O s       :     0.000027  s :     0.000027
      pz      :     0.000005  p :     0.000040
      px      :     0.000008
      py      :     0.000027
      dz2     :     0.000000  d :     0.000002
      dxz     :     0.000000
      dyz     :     0.000000
      dx2y2   :     0.000000
      dxy     :     0.000000
      f0      :     0.000000  f :     0.000000
      f+1     :     0.000000
      f-1     :     0.000000
      f+2     :     0.000000
      f-2     :     0.000000
      f+3     :     0.000000
      f-3     :     0.000000
  2 H s       :     0.001125  s :     0.001125
      pz      :     0.000001  p :     0.000011
      px      :     0.000002
      py      :     0.000008
  3 H s       :     0.000662  s :     0.000662
      pz      :     0.000000  p :     0.000001
      px      :     0.000000
      py      :     0.000001
  4 H s       :     0.000019  s :     0.000019
      pz      :     0.000000  p :     0.000002
      px      :     0.000000
      py      :     0.000001
  5 H s       :     0.007064  s :     0.007064
      pz      :     0.000014  p :     0.000144
      px      :     0.000014
      py      :     0.000116
  6 C s       :     2.874541  s :     2.874541
      pz      :     1.003229  p :     3.039601
      px      :     0.956481
      py      :     1.079890
      dz2     :     0.069598  d :     0.440263
      dxz     :     0.095162
      dyz     :     0.111469
      dx2y2   :     0.106451
      dxy     :     0.057582
      f0      :     0.009461  f :     0.064602
      f+1     :     0.014390
      f-1     :     0.004408
      f+2     :     0.009816
      f-2     :     0.010974
      f+3     :     0.008355
      f-3     :     0.007198
  7 O s       :     3.351650  s :     3.351650
      pz      :     1.442183  p :     4.618056
      px      :     1.605300
      py      :     1.570573
      dz2     :     0.012107  d :     0.078644
      dxz     :     0.014971
      dyz     :     0.024162
      dx2y2   :     0.015471
      dxy     :     0.011933
      f0      :     0.000496  f :     0.005330
      f+1     :     0.001016
      f-1     :     0.000590
      f+2     :     0.001410
      f-2     :     0.000719
      f+3     :     0.000450
      f-3     :     0.000649
  8 H s       :     0.669312  s :     0.669312
      pz      :     0.052786  p :     0.153771
      px      :     0.036230
      py      :     0.064755
  9 H s       :     0.846498  s :     0.846498
      pz      :     0.016192  p :     0.051989
      px      :     0.024947
      py      :     0.010850
 10 H s       :     0.832431  s :     0.832431
      pz      :     0.024704  p :     0.058293
      px      :     0.009939
      py      :     0.023651
 11 H s       :     0.843003  s :     0.843003
      pz      :     0.015747  p :     0.057019
      px      :     0.011321
      py      :     0.029950


                      *****************************
                      * MAYER POPULATION ANALYSIS *
                      *****************************

  NA   - Mulliken gross atomic population
  ZA   - Total nuclear charge
  QA   - Mulliken gross atomic charge
  VA   - Mayer's total valence
  BVA  - Mayer's bonded valence
  FA   - Mayer's free valence

  ATOM       NA         ZA         QA         VA         BVA        FA
  0 C     -0.0051     0.0000     0.0051    -0.0102    -0.0102    -0.0000
  1 O      0.0005     0.0000    -0.0005     0.0010     0.0010    -0.0000
  2 H      0.0009     0.0000    -0.0009     0.0019     0.0019     0.0000
  3 H      0.0006     0.0000    -0.0006     0.0012     0.0012     0.0000
  4 H     -0.0005     0.0000     0.0005    -0.0011    -0.0011    -0.0000
  5 H      0.0025     0.0000    -0.0025     0.0051     0.0051     0.0000
  6 C      6.1532     6.0000    -0.1532     3.9384     3.9384    -0.0000
  7 O      8.4615     8.0000    -0.4615     1.8805     1.8805     0.0000
  8 H      0.6821     1.0000     0.3179     0.9092     0.9092     0.0000
  9 H      0.9048     1.0000     0.0952     0.9647     0.9647    -0.0000
 10 H      0.8794     1.0000     0.1206     0.9614     0.9614     0.0000
 11 H      0.9201     1.0000     0.0799     0.9517     0.9517    -0.0000

  Mayer bond orders larger than 0.1
B(  6-C ,  7-O ) :   0.9963 B(  6-C ,  9-H ) :   0.9859 B(  6-C , 10-H ) :   0.9678 
B(  6-C , 11-H ) :   0.9809 B(  7-O ,  8-H ) :   0.8975 

-------
TIMINGS
-------

Total SCF time: 0 days 0 hours 0 min 13 sec 

Total time                  ....      13.889 sec
Sum of individual times     ....      13.435 sec  ( 96.7%)

Fock matrix formation       ....      12.565 sec  ( 90.5%)
  XC integration            ....       4.787 sec  ( 38.1% of F)
    Basis function eval.    ....       0.061 sec  (  1.3% of XC)
    Density eval.           ....       0.074 sec  (  1.5% of XC)
    XC-Functional eval.     ....       0.097 sec  (  2.0% of XC)
    XC-Potential eval.      ....       0.072 sec  (  1.5% of XC)
Diagonalization             ....       0.185 sec  (  1.3%)
Density matrix formation    ....       0.005 sec  (  0.0%)
Population analysis         ....       0.020 sec  (  0.1%)
Initial guess               ....       0.108 sec  (  0.8%)
Orbital Transformation      ....       0.000 sec  (  0.0%)
Orbital Orthonormalization  ....       0.000 sec  (  0.0%)
DIIS solution               ....       0.184 sec  (  1.3%)
SOSCF solution              ....       0.062 sec  (  0.4%)
Grid generation             ....       0.307 sec  (  2.2%)


-------------------------------------------------------------------------------
                          DFT DISPERSION CORRECTION                            
                                                                               
                              DFTD3 V3.1  Rev 1                                
                              USING zero damping                               
-------------------------------------------------------------------------------
The omegaB97X-D3 functional is recognized. Fit by Chai et al.
Active option DFTDOPT                   ...         3   

molecular C6(AA) [au] = 208.781592 


            DFT-D V3
 parameters
 s6 scaling factor         :     1.0000 
 rs6 scaling factor        :     1.2810 
 s8 scaling factor         :     1.0000 
 rs8 scaling factor        :     1.0940 
 Damping factor alpha6     :    14.0000 
 Damping factor alpha8     :    16.0000 
 ad hoc parameters k1-k3   :    16.0000     1.3333    -4.0000 

 Edisp/kcal,au: -0.131048589152  -0.000208839198 
 E6   /kcal   :  -0.026501072 
 E8   /kcal   :  -0.104547517 
 % E8         :  79.777674701 

-------------------------   ----------------
Dispersion correction           -0.000208839
-------------------------   ----------------


-------------------------   --------------------
FINAL SINGLE POINT ENERGY      -115.731663277663
-------------------------   --------------------


                            ***************************************
                            *     ORCA property calculations      *
                            ***************************************

                                    ---------------------
                                    Active property flags
                                    ---------------------
   (+) Dipole Moment


------------------------------------------------------------------------------
                       ORCA ELECTRIC PROPERTIES CALCULATION
------------------------------------------------------------------------------

Dipole Moment Calculation                       ... on
Quadrupole Moment Calculation                   ... off
Polarizability Calculation                      ... off
GBWName                                         ... 18-171_DFT_B.gbw
Electron density file                           ... 18-171_DFT_B.scfp.tmp
The origin for moment calculation is the CENTER OF MASS  = (-3.234480, 19.818892  1.577666)

-------------
DIPOLE MOMENT
-------------
                                X             Y             Z
Electronic contribution:     -1.36447       0.76780      -0.96477
Nuclear contribution   :      1.67343      -1.32917       0.86658
                        -----------------------------------------
Total Dipole Moment    :      0.30896      -0.56137      -0.09819
                        -----------------------------------------
Magnitude (a.u.)       :      0.64825
Magnitude (Debye)      :      1.64773



--------------------
Rotational spectrum 
--------------------
 
Rotational constants in cm-1:     4.031760     0.877869     0.838265 
Rotational constants in MHz : 120869.136980 26317.845971 25130.556121 

 Dipole components along the rotational axes: 
x,y,z [a.u.] :    -0.291278    -0.573328     0.081771 
x,y,z [Debye]:    -0.740369    -1.457284     0.207845 

 
------------------------------------------------------------------------------
                      ORCA CHELPG CHARGES GENERATION
------------------------------------------------------------------------------

GBW file                           ... 18-171_DFT_B.gbw

Reading the GBW file               ... done

Grid spacing                       ...     0.300000
Point Cut-Off                      ...     2.800000
Van-der-Waals Radii                ...        COSMO
Total charge                       ...            0


Number of points X direction       ...           30
Number of points Y direction       ...           34
Number of points Z direction       ...           29
Maximum number of possible points  ...        29580
Final number of points             ...         5967


CHELPG Charges            
--------------------------------
  0   C   :       0.004992
  1   O   :      -0.000214
  2   H   :       0.003227
  3   H   :       0.004177
  4   H   :      -0.020370
  5   H   :       0.003144
  6   C   :       0.026771
  7   O   :      -0.569078
  8   H   :       0.404917
  9   H   :       0.019134
 10   H   :       0.105000
 11   H   :       0.018302
--------------------------------
Total charge:    -0.000000
--------------------------------

CHELPG charges calculated...

Timings for individual parts in CHELPG calculation:
Grid generation                 ...        0.001 sec (=   0.000 min)
Potential calculation           ...        1.203 sec (=   0.020 min)
Fit to the potential            ...        0.002 sec (=   0.000 min)
------------------------------------------------------------------------------


Timings for individual modules:

Sum of individual times         ...       16.095 sec (=   0.268 min)
GTO integral calculation        ...        0.604 sec (=   0.010 min)   3.8 %
SCF iterations                  ...       14.257 sec (=   0.238 min)  88.6 %
CHELPG charge generation        ...        1.234 sec (=   0.021 min)   7.7 %



                             ****ORCA TERMINATED NORMALLY****
TOTAL RUN TIME: 0 days 0 hours 0 minutes 58 seconds 254 msec
