
                                 *****************
                                 * O   R   C   A *
                                 *****************

           --- An Ab Initio, DFT and Semiempirical electronic structure package ---

                  #######################################################
                  #                        -***-                        #
                  #          Department of theory and spectroscopy      #
                  #               Directorship: Frank Neese             #
                  #        Max Planck Institute fuer Kohlenforschung    #
                  #                Kaiser Wilhelm Platz 1               #
                  #                 D-45470 Muelheim/Ruhr               #
                  #                      Germany                        #
                  #                                                     #
                  #                  All rights reserved                #
                  #                        -***-                        #
                  #######################################################


                         Program Version 4.1.2  - RELEASE  -


 With contributions from (in alphabetic order):
   Daniel Aravena         : Magnetic Properties
   Michael Atanasov       : Ab Initio Ligand Field Theory
   Alexander A. Auer      : GIAO ZORA
   Ute Becker             : Parallelization
   Giovanni Bistoni       : ED, Open-shell LED
   Martin Brehm           : Molecular dynamics
   Dmytro Bykov           : SCF Hessian
   Vijay G. Chilkuri      : MRCI spin determinant printing
   Dipayan Datta          : RHF DLPNO-CCSD density
   Achintya Kumar Dutta   : EOM-CC, STEOM-CC
   Dmitry Ganyushin       : Spin-Orbit,Spin-Spin,Magnetic field MRCI
   Miquel Garcia          : C-PCM Hessian
   Yang Guo               : DLPNO-NEVPT2, CIM, IAO-localization
   Andreas Hansen         : Spin unrestricted coupled pair/coupled cluster methods
   Benjamin Helmich-Paris : CASSCF linear response (MC-RPA)
   Lee Huntington         : MR-EOM, pCC
   Robert Izsak           : Overlap fitted RIJCOSX, COSX-SCS-MP3, EOM
   Christian Kollmar      : KDIIS, OOCD, Brueckner-CCSD(T), CCSD density
   Simone Kossmann        : Meta GGA functionals, TD-DFT gradient, OOMP2, MP2 Hessian
   Martin Krupicka        : AUTO-CI
   Lucas Lang             : DCDCAS
   Dagmar Lenk            : GEPOL surface, SMD
   Dimitrios Liakos       : Extrapolation schemes; parallel MDCI
   Dimitrios Manganas     : ROCIS; embedding schemes
   Dimitrios Pantazis     : SARC Basis sets
   Taras Petrenko         : DFT Hessian,TD-DFT gradient, ASA, ECA, R-Raman, ABS, FL, XAS/XES, NRVS
   Peter Pinski           : DLPNO-MP2, DLPNO-MP2 Gradient
   Christoph Reimann      : Effective Core Potentials
   Marius Retegan         : Local ZFS, SOC
   Christoph Riplinger    : Optimizer, TS searches, QM/MM, DLPNO-CCSD(T), (RO)-DLPNO pert. Triples
   Tobias Risthaus        : Range-separated hybrids, TD-DFT gradient, RPA, STAB
   Michael Roemelt        : Restricted open shell CIS
   Masaaki Saitow         : Open-shell DLPNO
   Barbara Sandhoefer     : DKH picture change effects
   Avijit Sen             : IP-ROCIS
   Kantharuban Sivalingam : CASSCF convergence, NEVPT2, FIC-MRCI
   Bernardo de Souza      : ESD, SOC TD-DFT
   Georgi Stoychev        : AutoAux, RI-MP2 NMR
   Willem Van den Heuvel  : Paramagnetic NMR
   Boris Wezisla          : Elementary symmetry handling
   Frank Wennmohs         : Technical directorship


 We gratefully acknowledge several colleagues who have allowed us to
 interface, adapt or use parts of their codes:
   Stefan Grimme, W. Hujo, H. Kruse,             : VdW corrections, initial TS optimization,
                  C. Bannwarth                     DFT functionals, gCP, sTDA/sTD-DF
   Ed Valeev                                     : LibInt (2-el integral package), F12 methods
   Garnet Chan, S. Sharma, J. Yang, R. Olivares  : DMRG
   Ulf Ekstrom                                   : XCFun DFT Library
   Mihaly Kallay                                 : mrcc  (arbitrary order and MRCC methods)
   Andreas Klamt, Michael Diedenhofen            : otool_cosmo (COSMO solvation model)
   Jiri Pittner, Ondrej Demel                    : Mk-CCSD
   Frank Weinhold                                : gennbo (NPA and NBO analysis)
   Christopher J. Cramer and Donald G. Truhlar   : smd solvation model
   Lars Goerigk                                  : TD-DFT with DH, B97 family of functionals
   V. Asgeirsson, H. Jonsson                     : NEB implementation
   FAccTs GmbH                                   : IRC, NEB, NEB-TS, Multilevel


 Your calculation uses the libint2 library for the computation of 2-el integrals
 For citations please refer to: http://libint.valeyev.net

 This ORCA versions uses:
   CBLAS   interface :  Fast vector & matrix operations
   LAPACKE interface :  Fast linear algebra routines
   SCALAPACK package :  Parallel linear algebra routines


Your calculation utilizes the atom-pairwise dispersion correction
with the zero-damping scheme (D30)
Cite in your paper:
S.Grimme, J.Antony, S.Ehrlich and H.Krieg, J.Chem.Phys., 132, (2010), 154104 
   

XCFun DFT library Copyright 2009-2010 Ulf Ekstrom and contributors.
See http://admol.org/xcfun for more information. This is free soft-
ware; see the source code for copying conditions. There is ABSOLUTELY
NO WARRANTY; not even for MERCHANTABILITY or FITNESS FOR A PARTICULAR
PURPOSE. For details see the documentation. Scientific users of this 
library should cite U. Ekstrom, L. Visscher, R. Bast, A. J. Thorvald-
sen and K. Ruud; J.Chem.Theor.Comp. 2010, DOI: 10.1021/ct100117s
XCFun Version 0.99 
----- Orbital basis set information -----
Your calculation utilizes the basis: def2-TZVP
   F. Weigend and R. Ahlrichs, Phys. Chem. Chem. Phys. 7, 3297 (2005).

================================================================================
                                        WARNINGS
                       Please study these warnings very carefully!
================================================================================


INFO   : the flag for use of LIBINT has been found!

Your calculation utilizes the atom-pairwise dispersion correction
with the zero-damping scheme (D30)
Cite in your paper:
S.Grimme, J.Antony, S.Ehrlich and H.Krieg, J.Chem.Phys., 132, (2010), 154104 
   

XCFun DFT library Copyright 2009-2010 Ulf Ekstrom and contributors.
See http://admol.org/xcfun for more information. This is free soft-
ware; see the source code for copying conditions. There is ABSOLUTELY
NO WARRANTY; not even for MERCHANTABILITY or FITNESS FOR A PARTICULAR
PURPOSE. For details see the documentation. Scientific users of this 
library should cite U. Ekstrom, L. Visscher, R. Bast, A. J. Thorvald-
sen and K. Ruud; J.Chem.Theor.Comp. 2010, DOI: 10.1021/ct100117s
XCFun Version 0.99 
----- Orbital basis set information -----
Your calculation utilizes the basis: def2-TZVP
   F. Weigend and R. Ahlrichs, Phys. Chem. Chem. Phys. 7, 3297 (2005).

================================================================================
                                        WARNINGS
                       Please study these warnings very carefully!
================================================================================


WARNING: MOInp is set but Guess=PModel. MOInp will be ignored!
         To read the initial guess from a file you must also specify
         'MORead' in the simple input or 'Guess MORead' in the %scf block


INFO   : the flag for use of LIBINT has been found!

Your calculation utilizes the atom-pairwise dispersion correction
with the zero-damping scheme (D30)
Cite in your paper:
S.Grimme, J.Antony, S.Ehrlich and H.Krieg, J.Chem.Phys., 132, (2010), 154104 
   

XCFun DFT library Copyright 2009-2010 Ulf Ekstrom and contributors.
See http://admol.org/xcfun for more information. This is free soft-
ware; see the source code for copying conditions. There is ABSOLUTELY
NO WARRANTY; not even for MERCHANTABILITY or FITNESS FOR A PARTICULAR
PURPOSE. For details see the documentation. Scientific users of this 
library should cite U. Ekstrom, L. Visscher, R. Bast, A. J. Thorvald-
sen and K. Ruud; J.Chem.Theor.Comp. 2010, DOI: 10.1021/ct100117s
XCFun Version 0.99 
----- Orbital basis set information -----
Your calculation utilizes the basis: def2-TZVP
   F. Weigend and R. Ahlrichs, Phys. Chem. Chem. Phys. 7, 3297 (2005).

================================================================================
                                        WARNINGS
                       Please study these warnings very carefully!
================================================================================


WARNING: MOInp is set but Guess=PModel. MOInp will be ignored!
         To read the initial guess from a file you must also specify
         'MORead' in the simple input or 'Guess MORead' in the %scf block


INFO   : the flag for use of LIBINT has been found!

================================================================================
                                       INPUT FILE
================================================================================
NAME = 20-37.in
|  1> #Run DFT-D3 single point of the dimer
|  2> ! wB97X-D3 def2-TZVP TIGHTSCF CHELPG PMODEL PAL8
|  3> 
|  4> %base "20-37_DFT_AB"
|  5> 
|  6> %scf
|  7> MaxIter 1000
|  8> end
|  9> 
| 10> * xyz 0 1
| 11>   C                      -1.641794            5.307331             1.637861            
| 12>   O                      -2.575965            4.229584             1.491744            
| 13>   H                      -2.767324            3.875175             2.374490            
| 14>   H                      -1.946451            5.984514             2.464272            
| 15>   H                      -0.555480            5.066071             1.793109            
| 16>   H                      -1.550788            5.846078             0.708489            
| 17>   C                      -0.951433            5.290424             5.804685            
| 18>   O                      -2.165011            5.068943             5.047114            
| 19>   H                      -2.451916            5.919018             4.731868            
| 20>   H                      -1.152294            6.019029             6.526219            
| 21>   H                      -0.582023            4.346872             6.325513            
| 22>   H                      -0.158983            5.659910             5.179873            
| 23> *
| 24> 
| 25> #Run DFT-D3 single point of the molecule with dimer basis set
| 26> $new_job
| 27> %base "20-37_DFT_A"
| 28> ! wB97X-D3 def2-TZVP TIGHTSCF CHELPG PMODEL
| 29> 
| 30> %scf
| 31> MaxIter 1000
| 32> end
| 33> 
| 34> * xyz 0 1
| 35>   C                      -1.641794            5.307331             1.637861            
| 36>   O                      -2.575965            4.229584             1.491744            
| 37>   H                      -2.767324            3.875175             2.374490            
| 38>   H                      -1.946451            5.984514             2.464272            
| 39>   H                      -0.555480            5.066071             1.793109            
| 40>   H                      -1.550788            5.846078             0.708489            
| 41>   C                    : -0.951433            5.290424             5.804685            
| 42>   O                    : -2.165011            5.068943             5.047114            
| 43>   H                    : -2.451916            5.919018             4.731868            
| 44>   H                    : -1.152294            6.019029             6.526219            
| 45>   H                    : -0.582023            4.346872             6.325513            
| 46>   H                    : -0.158983            5.659910             5.179873            
| 47> *
| 48> 
| 49> #Run DFT-D3 single point of the particle with dimer basis set
| 50> $new_job
| 51> %base "20-37_DFT_B"
| 52> ! wB97X-D3 def2-TZVP TIGHTSCF CHELPG PMODEL
| 53> 
| 54> %scf
| 55> MaxIter 1000
| 56> end
| 57> 
| 58> * xyz 0 1
| 59>   C                    : -1.641794            5.307331             1.637861            
| 60>   O                    : -2.575965            4.229584             1.491744            
| 61>   H                    : -2.767324            3.875175             2.374490            
| 62>   H                    : -1.946451            5.984514             2.464272            
| 63>   H                    : -0.555480            5.066071             1.793109            
| 64>   H                    : -1.550788            5.846078             0.708489            
| 65>   C                      -0.951433            5.290424             5.804685            
| 66>   O                      -2.165011            5.068943             5.047114            
| 67>   H                      -2.451916            5.919018             4.731868            
| 68>   H                      -1.152294            6.019029             6.526219            
| 69>   H                      -0.582023            4.346872             6.325513            
| 70>   H                      -0.158983            5.659910             5.179873            
| 71> *
| 72> 
| 73>                          ****END OF INPUT****
================================================================================


                 $$$$$$$$$$$$$$$$$$$$$$$$$$$$$$$$$$$$$$$$$$$$$$ 
                 $ THERE ARE  3 JOBS TO BE PROCESSED THIS RUN $
                 $$$$$$$$$$$$$$$$$$$$$$$$$$$$$$$$$$$$$$$$$$$$$$ 




                 $$$$$$$$$$$$$$$$  JOB NUMBER  1 $$$$$$$$$$$$$$


                       ****************************
                       * Single Point Calculation *
                       ****************************

---------------------------------
CARTESIAN COORDINATES (ANGSTROEM)
---------------------------------
  C     -1.641794    5.307331    1.637861
  O     -2.575965    4.229584    1.491744
  H     -2.767324    3.875175    2.374490
  H     -1.946451    5.984514    2.464272
  H     -0.555480    5.066071    1.793109
  H     -1.550788    5.846078    0.708489
  C     -0.951433    5.290424    5.804685
  O     -2.165011    5.068943    5.047114
  H     -2.451916    5.919018    4.731868
  H     -1.152294    6.019029    6.526219
  H     -0.582023    4.346872    6.325513
  H     -0.158983    5.659910    5.179873

----------------------------
CARTESIAN COORDINATES (A.U.)
----------------------------
  NO LB      ZA    FRAG     MASS         X           Y           Z
   0 C     6.0000    0    12.011   -3.102541   10.029402    3.095109
   1 O     8.0000    0    15.999   -4.867868    7.992755    2.818988
   2 H     1.0000    0     1.008   -5.229484    7.323019    4.487136
   3 H     1.0000    0     1.008   -3.678259   11.309093    4.656799
   4 H     1.0000    0     1.008   -1.049705    9.573487    3.388485
   5 H     1.0000    0     1.008   -2.930565   11.047486    1.338850
   6 C     6.0000    0    12.011   -1.797948    9.997452   10.969265
   7 O     8.0000    0    15.999   -4.091278    9.578914    9.537663
   8 H     1.0000    0     1.008   -4.633450   11.185323    8.941935
   9 H     1.0000    0     1.008   -2.177520   11.374316   12.332767
  10 H     1.0000    0     1.008   -1.099864    8.214398   11.953487
  11 H     1.0000    0     1.008   -0.300434   10.695680    9.788541

--------------------------------
INTERNAL COORDINATES (ANGSTROEM)
--------------------------------
 C      0   0   0     0.000000000000     0.00000000     0.00000000
 O      1   0   0     1.433723903316     0.00000000     0.00000000
 H      2   1   0     0.970290939192   108.08050138     0.00000000
 H      1   2   3     1.111012080969   110.81302540   314.10580266
 H      1   2   3     1.123559716125   118.85787504    78.69239329
 H      1   2   3     1.078082898681   110.04733240   190.84586350
 C      4   1   2     3.553896559974   120.22105457    86.63286684
 O      7   4   1     1.447666817844    45.83744562   260.89937894
 H      8   7   4     0.950958477099   106.83589864   302.49404072
 H      7   4   1     1.044902722985   117.32534603   172.06120702
 H      7   4   1     1.139305020786   133.01679367   340.91235583
 H      7   4   1     1.074656662400    65.97259762    73.80125194

---------------------------
INTERNAL COORDINATES (A.U.)
---------------------------
 C      0   0   0     0.000000000000     0.00000000     0.00000000
 O      1   0   0     2.709345528923     0.00000000     0.00000000
 H      2   1   0     1.833584145298   108.08050138     0.00000000
 H      1   2   3     2.099508564509   110.81302540   314.10580266
 H      1   2   3     2.123220158583   118.85787504    78.69239329
 H      1   2   3     2.037281428172   110.04733240   190.84586350
 C      4   1   2     6.715891206635   120.22105457    86.63286684
 O      7   4   1     2.735693818890    45.83744562   260.89937894
 H      8   7   4     1.797051086447   106.83589864   302.49404072
 H      7   4   1     1.974579983031   117.32534603   172.06120702
 H      7   4   1     2.152974472287   133.01679367   340.91235583
 H      7   4   1     2.030806779929    65.97259762    73.80125194

---------------------
BASIS SET INFORMATION
---------------------
There are 3 groups of distinct atoms

 Group   1 Type C   : 11s6p2d1f contracted to 5s3p2d1f pattern {62111/411/11/1}
 Group   2 Type O   : 11s6p2d1f contracted to 5s3p2d1f pattern {62111/411/11/1}
 Group   3 Type H   : 5s1p contracted to 3s1p pattern {311/1}

Atom   0C    basis set group =>   1
Atom   1O    basis set group =>   2
Atom   2H    basis set group =>   3
Atom   3H    basis set group =>   3
Atom   4H    basis set group =>   3
Atom   5H    basis set group =>   3
Atom   6C    basis set group =>   1
Atom   7O    basis set group =>   2
Atom   8H    basis set group =>   3
Atom   9H    basis set group =>   3
Atom  10H    basis set group =>   3
Atom  11H    basis set group =>   3


           ************************************************************
           *        Program running with 8 parallel MPI-processes     *
           *              working on a common directory               *
           ************************************************************
------------------------------------------------------------------------------
                           ORCA GTO INTEGRAL CALCULATION
------------------------------------------------------------------------------

                         BASIS SET STATISTICS AND STARTUP INFO

 # of primitive gaussian shells          ...  128
 # of primitive gaussian functions       ...  248
 # of contracted shells                  ...   76
 # of contracted basis functions         ...  172
 Highest angular momentum                ...    3
 Maximum contraction depth               ...    6
 Integral package used                   ... LIBINT
 Integral threshhold            Thresh   ...  2.500e-11
 Primitive cut-off              TCut     ...  2.500e-12


------------------------------ INTEGRAL EVALUATION ----------------------------


 * One electron integrals 
 Pre-screening matrix                    ... done
 Shell pair data                         ... done (   0.001 sec)



           ************************************************************
           *        Program running with 8 parallel MPI-processes     *
           *              working on a common directory               *
           ************************************************************
-------------------------------------------------------------------------------
                                 ORCA SCF
-------------------------------------------------------------------------------

------------
SCF SETTINGS
------------
Hamiltonian:
 Density Functional     Method          .... DFT(GTOs)
 Exchange Functional    Exchange        .... WB97X-D3
 Correlation Functional Correlation     .... WB97X-D3
 Gradients option       PostSCFGGA      .... off
 Hybrid DFT is turned on
   Fraction HF Exchange ScalHFX         ....  0.195728
   Scaling of DF-GGA-X  ScalDFX         ....  0.000000
   Scaling of DF-GGA-C  ScalDFC         ....  1.000000
   Scaling of DF-LDA-C  ScalLDAC        ....  1.000000
   Perturbative correction              ....  0.000000
   Density functional embedding theory  .... OFF
 Long-range corrected/Screened/Range-Separated Hybrid DFT is turned on
   Amount of maximum screened exact exchange              ....  0.804272
   Range separation parameter mu (erf(mu*r12)/r12)        ....  0.250000


General Settings:
 Integral files         IntName         .... 20-37_DFT_AB
 Hartree-Fock type      HFTyp           .... RHF
 Total Charge           Charge          ....    0
 Multiplicity           Mult            ....    1
 Number of Electrons    NEL             ....   36
 Basis Dimension        Dim             ....  172
 Nuclear Repulsion      ENuc            ....    123.2644236872 Eh

Convergence Acceleration:
 DIIS                   CNVDIIS         .... on
   Start iteration      DIISMaxIt       ....    12
   Startup error        DIISStart       ....  0.200000
   # of expansion vecs  DIISMaxEq       ....     5
   Bias factor          DIISBfac        ....   1.050
   Max. coefficient     DIISMaxC        ....  10.000
 Newton-Raphson         CNVNR           .... off
 SOSCF                  CNVSOSCF        .... on
   Start iteration      SOSCFMaxIt      ....   150
   Startup grad/error   SOSCFStart      ....  0.003300
 Level Shifting         CNVShift        .... on
   Level shift para.    LevelShift      ....    0.2500
   Turn off err/grad.   ShiftErr        ....    0.0010
 Zerner damping         CNVZerner       .... off
 Static damping         CNVDamp         .... on
   Fraction old density DampFac         ....    0.7000
   Max. Damping (<1)    DampMax         ....    0.9800
   Min. Damping (>=0)   DampMin         ....    0.0000
   Turn off err/grad.   DampErr         ....    0.1000
 Fernandez-Rico         CNVRico         .... off

SCF Procedure:
 Maximum # iterations   MaxIter         ....  1000
 SCF integral mode      SCFMode         .... Direct
   Integral package                     .... LIBINT
 Reset frequency        DirectResetFreq ....    20
 Integral Threshold     Thresh          ....  2.500e-11 Eh
 Primitive CutOff       TCut            ....  2.500e-12 Eh

Convergence Tolerance:
 Convergence Check Mode ConvCheckMode   .... Total+1el-Energy
 Convergence forced     ConvForced      .... 0
 Energy Change          TolE            ....  1.000e-08 Eh
 1-El. energy change                    ....  1.000e-05 Eh
 Orbital Gradient       TolG            ....  1.000e-05
 Orbital Rotation angle TolX            ....  1.000e-05
 DIIS Error             TolErr          ....  5.000e-07


Diagonalization of the overlap matrix:
Smallest eigenvalue                        ... 1.415e-03
Time for diagonalization                   ...    0.003 sec
Threshold for overlap eigenvalues          ... 1.000e-08
Number of eigenvalues below threshold      ... 0
Time for construction of square roots      ...    0.004 sec
Total time needed                          ...    0.008 sec

-------------------
DFT GRID GENERATION
-------------------

General Integration Accuracy     IntAcc      ...  4.340
Radial Grid Type                 RadialGrid  ... Gauss-Chebyshev
Angular Grid (max. acc.)         AngularGrid ... Lebedev-110
Angular grid pruning method      GridPruning ... 3 (G Style)
Weight generation scheme         WeightScheme... Becke
Basis function cutoff            BFCut       ...    1.0000e-11
Integration weight cutoff        WCut        ...    1.0000e-14
Grids for H and He will be reduced by one unit

# of grid points (after initial pruning)     ...  13096 (   0.0 sec)
# of grid points (after weights+screening)   ...  12485 (   0.0 sec)
nearest neighbour list constructed           ...    0.0 sec
Grid point re-assignment to atoms done       ...    0.0 sec
Grid point division into batches done        ...    0.0 sec
Reduced shell lists constructed in    0.0 sec

Total number of grid points                  ...    12485
Total number of batches                      ...      201
Average number of points per batch           ...       62
Average number of grid points per atom       ...     1040
Average number of shells per batch           ...    48.93 (64.38%)
Average number of basis functions per batch  ...   107.30 (62.38%)
Average number of large shells per batch     ...    39.19 (80.09%)
Average number of large basis fcns per batch ...    86.52 (80.64%)
Maximum spatial batch extension              ...  19.49, 16.66, 17.43 au
Average spatial batch extension              ...   0.43,  0.42,  0.40 au

Time for grid setup =    0.039 sec

------------------------------
INITIAL GUESS: MODEL POTENTIAL
------------------------------
Loading Hartree-Fock densities                     ... done
Calculating cut-offs                               ... done
Setting up the integral package                    ... done
Initializing the effective Hamiltonian             ... done
Starting the Coulomb interaction                   ... done (   0.0 sec)
Reading the grid                                   ... done
Mapping shells                                     ... done
Starting the XC term evaluation                    ... done (   0.0 sec)
  promolecular density results
     # of electrons  =     35.998882132
     EX              =    -28.844092622
     EC              =     -1.150355799
     EX+EC           =    -29.994448420
Transforming the Hamiltonian                       ... done (   0.0 sec)
Diagonalizing the Hamiltonian                      ... done (   0.0 sec)
Back transforming the eigenvectors                 ... done (   0.0 sec)
Now organizing SCF variables                       ... done
                      ------------------
                      INITIAL GUESS DONE (   0.1 sec)
                      ------------------
--------------
SCF ITERATIONS
--------------
ITER       Energy         Delta-E        Max-DP      RMS-DP      [F,P]     Damp
               ***  Starting incremental Fock matrix formation  ***
  0   -231.3017091740   0.000000000000 0.03567610  0.00104684  0.2503386 0.7000
  1   -231.3720985345  -0.070389360536 0.02150389  0.00074821  0.1261019 0.7000
                               ***Turning on DIIS***
  2   -231.4045322016  -0.032433667062 0.03141771  0.00135263  0.0501132 0.0000
  3   -231.4574302034  -0.052898001886 0.01650991  0.00050283  0.0590740 0.0000
  4   -231.4659905331  -0.008560329624 0.00408237  0.00010495  0.0060757 0.0000
                      *** Initiating the SOSCF procedure ***
                           *** Shutting down DIIS ***
                      *** Re-Reading the Fockian *** 
                      *** Removing any level shift *** 
ITER      Energy       Delta-E        Grad      Rot      Max-DP    RMS-DP
  5   -231.46617282  -0.0001822830  0.000420  0.000420  0.001139  0.000039
               *** Restarting incremental Fock matrix formation ***
  6   -231.46618996  -0.0000171450  0.000140  0.000214  0.000806  0.000025
  7   -231.46619172  -0.0000017564  0.000044  0.000118  0.000351  0.000011
  8   -231.46619188  -0.0000001593  0.000016  0.000016  0.000031  0.000001
  9   -231.46619189  -0.0000000088  0.000010  0.000007  0.000016  0.000001
                  ***Gradient check signals convergence***
              ***Rediagonalizing the Fockian in SOSCF/NRSCF***

               *****************************************************
               *                     SUCCESS                       *
               *           SCF CONVERGED AFTER  10 CYCLES          *
               *****************************************************

Setting up the final grid:

General Integration Accuracy     IntAcc      ...  4.670
Radial Grid Type                 RadialGrid  ... Gauss-Chebyshev
Angular Grid (max. acc.)         AngularGrid ... Lebedev-302
Angular grid pruning method      GridPruning ... 3 (G Style)
Weight generation scheme         WeightScheme... Becke
Basis function cutoff            BFCut       ...    1.0000e-11
Integration weight cutoff        WCut        ...    1.0000e-14
Grids for H and He will be reduced by one unit

# of grid points (after initial pruning)     ...  52000 (   0.0 sec)
# of grid points (after weights+screening)   ...  49101 (   0.0 sec)
nearest neighbour list constructed           ...    0.0 sec
Grid point re-assignment to atoms done       ...    0.0 sec
Grid point division into batches done        ...    0.2 sec
Reduced shell lists constructed in    0.2 sec

Total number of grid points                  ...    49101
Total number of batches                      ...      771
Average number of points per batch           ...       63
Average number of grid points per atom       ...     4092
Average number of shells per batch           ...    47.16 (62.06%)
Average number of basis functions per batch  ...   103.57 (60.22%)
Average number of large shells per batch     ...    37.49 (79.49%)
Average number of large basis fcns per batch ...    82.76 (79.90%)
Maximum spatial batch extension              ...  15.56, 14.93, 15.11 au
Average spatial batch extension              ...   0.29,  0.28,  0.27 au

Final grid set up in    0.3 sec
Final integration                            ... done (   0.1 sec)
Change in XC energy                          ...    -0.000123873
Integrated number of electrons               ...    36.000089288
Previous integrated no of electrons          ...    36.003951708

----------------
TOTAL SCF ENERGY
----------------

Total Energy       :         -231.46631576 Eh           -6298.51866 eV

Components:
Nuclear Repulsion  :          123.26442369 Eh            3354.19549 eV
Electronic Energy  :         -354.73073945 Eh           -9652.71415 eV
One Electron Energy:         -559.30085826 Eh          -15219.35009 eV
Two Electron Energy:          204.57011881 Eh            5566.63594 eV

Virial components:
Potential Energy   :         -461.83900968 Eh          -12567.27836 eV
Kinetic Energy     :          230.37269392 Eh            6268.75970 eV
Virial Ratio       :            2.00474719


DFT components:
N(Alpha)           :       18.000044643859 electrons
N(Beta)            :       18.000044643859 electrons
N(Total)           :       36.000089287719 electrons
E(XC)              :      -21.282336016741 Eh       
DFET-embed. en.    :        0.000000000000 Eh       

---------------
SCF CONVERGENCE
---------------

  Last Energy change         ...   -3.4848e-09  Tolerance :   1.0000e-08
  Last MAX-Density change    ...    4.9055e-06  Tolerance :   1.0000e-07
  Last RMS-Density change    ...    1.3548e-07  Tolerance :   5.0000e-09
  Last Orbital Gradient      ...    2.3486e-06  Tolerance :   1.0000e-05
  Last Orbital Rotation      ...    2.5159e-06  Tolerance :   1.0000e-05

             **** THE GBW FILE WAS UPDATED (20-37_DFT_AB.gbw) ****
             **** DENSITY FILE WAS UPDATED (20-37_DFT_AB.scfp.tmp) ****
             **** ENERGY FILE WAS UPDATED (20-37_DFT_AB.en.tmp) ****
----------------
ORBITAL ENERGIES
----------------

  NO   OCC          E(Eh)            E(eV) 
   0   2.0000     -19.242265      -523.6086 
   1   2.0000     -19.227088      -523.1957 
   2   2.0000     -10.323009      -280.9034 
   3   2.0000     -10.314186      -280.6633 
   4   2.0000      -1.141537       -31.0628 
   5   2.0000      -1.121686       -30.5226 
   6   2.0000      -0.808945       -22.0125 
   7   2.0000      -0.790947       -21.5228 
   8   2.0000      -0.619146       -16.8478 
   9   2.0000      -0.600426       -16.3384 
  10   2.0000      -0.554966       -15.1014 
  11   2.0000      -0.536499       -14.5989 
  12   2.0000      -0.532174       -14.4812 
  13   2.0000      -0.511983       -13.9318 
  14   2.0000      -0.448584       -12.2066 
  15   2.0000      -0.430124       -11.7043 
  16   2.0000      -0.387801       -10.5526 
  17   2.0000      -0.367504       -10.0003 
  18   0.0000       0.093506         2.5444 
  19   0.0000       0.133348         3.6286 
  20   0.0000       0.153572         4.1789 
  21   0.0000       0.155233         4.2241 
  22   0.0000       0.191903         5.2220 
  23   0.0000       0.192277         5.2321 
  24   0.0000       0.197978         5.3872 
  25   0.0000       0.216980         5.9043 
  26   0.0000       0.234185         6.3725 
  27   0.0000       0.268461         7.3052 
  28   0.0000       0.290909         7.9160 
  29   0.0000       0.303804         8.2669 
  30   0.0000       0.319770         8.7014 
  31   0.0000       0.353434         9.6174 
  32   0.0000       0.388217        10.5639 
  33   0.0000       0.397618        10.8197 
  34   0.0000       0.441200        12.0057 
  35   0.0000       0.458170        12.4674 
  36   0.0000       0.481721        13.1083 
  37   0.0000       0.494664        13.4605 
  38   0.0000       0.530400        14.4329 
  39   0.0000       0.535338        14.5673 
  40   0.0000       0.551867        15.0171 
  41   0.0000       0.559624        15.2281 
  42   0.0000       0.574372        15.6295 
  43   0.0000       0.577965        15.7272 
  44   0.0000       0.593074        16.1384 
  45   0.0000       0.617833        16.8121 
  46   0.0000       0.630903        17.1677 
  47   0.0000       0.687062        18.6959 
  48   0.0000       0.690210        18.7816 
  49   0.0000       0.722546        19.6615 
  50   0.0000       0.757036        20.6000 
  51   0.0000       0.800861        21.7925 
  52   0.0000       0.813248        22.1296 
  53   0.0000       0.835789        22.7430 
  54   0.0000       0.862188        23.4613 
  55   0.0000       0.933249        25.3950 
  56   0.0000       0.990002        26.9393 
  57   0.0000       1.004112        27.3233 
  58   0.0000       1.012336        27.5471 
  59   0.0000       1.062180        28.9034 
  60   0.0000       1.090158        29.6647 
  61   0.0000       1.129808        30.7436 
  62   0.0000       1.377962        37.4963 
  63   0.0000       1.392925        37.9034 
  64   0.0000       1.488125        40.4939 
  65   0.0000       1.509992        41.0890 
  66   0.0000       1.542641        41.9774 
  67   0.0000       1.558183        42.4003 
  68   0.0000       1.581296        43.0293 
  69   0.0000       1.589809        43.2609 
  70   0.0000       1.615137        43.9501 
  71   0.0000       1.619344        44.0646 
  72   0.0000       1.645888        44.7869 
  73   0.0000       1.657494        45.1027 
  74   0.0000       1.682137        45.7733 
  75   0.0000       1.689718        45.9796 
  76   0.0000       1.694776        46.1172 
  77   0.0000       1.703753        46.3615 
  78   0.0000       1.806962        49.1699 
  79   0.0000       1.823319        49.6150 
  80   0.0000       1.950428        53.0739 
  81   0.0000       1.967830        53.5474 
  82   0.0000       2.000029        54.4236 
  83   0.0000       2.020681        54.9855 
  84   0.0000       2.030490        55.2524 
  85   0.0000       2.069876        56.3242 
  86   0.0000       2.093545        56.9683 
  87   0.0000       2.103276        57.2331 
  88   0.0000       2.110758        57.4366 
  89   0.0000       2.124676        57.8154 
  90   0.0000       2.256601        61.4052 
  91   0.0000       2.257048        61.4174 
  92   0.0000       2.276208        61.9388 
  93   0.0000       2.325520        63.2806 
  94   0.0000       2.347185        63.8701 
  95   0.0000       2.373237        64.5791 
  96   0.0000       2.390402        65.0461 
  97   0.0000       2.415866        65.7391 
  98   0.0000       2.443641        66.4948 
  99   0.0000       2.448495        66.6269 
 100   0.0000       2.508107        68.2491 
 101   0.0000       2.561382        69.6988 
 102   0.0000       2.576142        70.1004 
 103   0.0000       2.594696        70.6053 
 104   0.0000       2.657039        72.3017 
 105   0.0000       2.662603        72.4531 
 106   0.0000       2.702497        73.5387 
 107   0.0000       2.746718        74.7420 
 108   0.0000       2.808123        76.4129 
 109   0.0000       2.831224        77.0415 
 110   0.0000       2.878400        78.3252 
 111   0.0000       2.880262        78.3759 
 112   0.0000       2.907832        79.1261 
 113   0.0000       2.923690        79.5576 
 114   0.0000       2.968236        80.7698 
 115   0.0000       3.024070        82.2891 
 116   0.0000       3.073839        83.6434 
 117   0.0000       3.130873        85.1954 
 118   0.0000       3.138868        85.4129 
 119   0.0000       3.174484        86.3821 
 120   0.0000       3.248696        88.4015 
 121   0.0000       3.259312        88.6904 
 122   0.0000       3.354091        91.2695 
 123   0.0000       3.399660        92.5095 
 124   0.0000       3.448562        93.8401 
 125   0.0000       3.455296        94.0234 
 126   0.0000       3.468910        94.3939 
 127   0.0000       3.519012        95.7572 
 128   0.0000       3.562553        96.9420 
 129   0.0000       3.577035        97.3361 
 130   0.0000       3.626248        98.6752 
 131   0.0000       3.644337        99.1675 
 132   0.0000       3.662840        99.6709 
 133   0.0000       3.687165       100.3329 
 134   0.0000       3.984054       108.4116 
 135   0.0000       4.019508       109.3764 
 136   0.0000       4.190589       114.0317 
 137   0.0000       4.211488       114.6004 
 138   0.0000       4.297296       116.9354 
 139   0.0000       4.341326       118.1335 
 140   0.0000       4.400684       119.7487 
 141   0.0000       4.468629       121.5976 
 142   0.0000       4.568606       124.3181 
 143   0.0000       4.597423       125.1022 
 144   0.0000       5.331936       145.0894 
 145   0.0000       5.344546       145.4325 
 146   0.0000       5.410095       147.2162 
 147   0.0000       5.425527       147.6361 
 148   0.0000       5.540256       150.7580 
 149   0.0000       5.543535       150.8472 
 150   0.0000       5.760450       156.7498 
 151   0.0000       5.766958       156.9269 
 152   0.0000       5.789975       157.5532 
 153   0.0000       5.809608       158.0875 
 154   0.0000       5.942492       161.7034 
 155   0.0000       5.957004       162.0983 
 156   0.0000       6.332258       172.3095 
 157   0.0000       6.363049       173.1474 
 158   0.0000       6.521310       177.4539 
 159   0.0000       6.525515       177.5683 
 160   0.0000       6.743799       183.5081 
 161   0.0000       6.749880       183.6736 
 162   0.0000       6.783177       184.5796 
 163   0.0000       6.785309       184.6376 
 164   0.0000       7.026467       191.1999 
 165   0.0000       7.053324       191.9307 
 166   0.0000       7.190304       195.6581 
 167   0.0000       7.212933       196.2739 
 168   0.0000      22.320136       607.3618 
 169   0.0000      22.360516       608.4606 
 170   0.0000      43.632580      1187.3029 
 171   0.0000      43.688916      1188.8358 

                    ********************************
                    * MULLIKEN POPULATION ANALYSIS *
                    ********************************

-----------------------
MULLIKEN ATOMIC CHARGES
-----------------------
   0 C :   -0.143028
   1 O :   -0.478507
   2 H :    0.328066
   3 H :    0.054273
   4 H :    0.095988
   5 H :    0.126580
   6 C :   -0.174827
   7 O :   -0.484739
   8 H :    0.316961
   9 H :    0.121016
  10 H :    0.124805
  11 H :    0.113413
Sum of atomic charges:    0.0000000

--------------------------------
MULLIKEN REDUCED ORBITAL CHARGES
--------------------------------
  0 C s       :     3.212114  s :     3.212114
      pz      :     1.072760  p :     2.828637
      px      :     0.914601
      py      :     0.841277
      dz2     :     0.007803  d :     0.095105
      dxz     :     0.012157
      dyz     :     0.025715
      dx2y2   :     0.040533
      dxy     :     0.008896
      f0      :     0.000709  f :     0.007172
      f+1     :     0.000223
      f-1     :     0.001082
      f+2     :    -0.000064
      f-2     :     0.001316
      f+3     :     0.001622
      f-3     :     0.002284
  1 O s       :     3.797660  s :     3.797660
      pz      :     1.473149  p :     4.649946
      px      :     1.639587
      py      :     1.537211
      dz2     :     0.009552  d :     0.029324
      dxz     :     0.003698
      dyz     :     0.006383
      dx2y2   :     0.003616
      dxy     :     0.006076
      f0      :     0.000215  f :     0.001577
      f+1     :     0.000109
      f-1     :     0.000320
      f+2     :     0.000051
      f-2     :     0.000217
      f+3     :     0.000375
      f-3     :     0.000289
  2 H s       :     0.626053  s :     0.626053
      pz      :     0.017386  p :     0.045880
      px      :     0.014332
      py      :     0.014163
  3 H s       :     0.926526  s :     0.926526
      pz      :     0.008695  p :     0.019201
      px      :     0.003919
      py      :     0.006588
  4 H s       :     0.884688  s :     0.884688
      pz      :     0.004541  p :     0.019324
      px      :     0.011901
      py      :     0.002882
  5 H s       :     0.852877  s :     0.852877
      pz      :     0.010236  p :     0.020543
      px      :     0.004509
      py      :     0.005798
  6 C s       :     3.230358  s :     3.230358
      pz      :     0.964053  p :     2.845300
      px      :     0.803347
      py      :     1.077900
      dz2     :     0.018272  d :     0.092185
      dxz     :     0.017078
      dyz     :     0.017510
      dx2y2   :     0.016586
      dxy     :     0.022740
      f0      :     0.000359  f :     0.006984
      f+1     :     0.002032
      f-1     :     0.000058
      f+2     :     0.001634
      f-2     :     0.001435
      f+3     :     0.000671
      f-3     :     0.000796
  7 O s       :     3.799544  s :     3.799544
      pz      :     1.706455  p :     4.654605
      px      :     1.475851
      py      :     1.472298
      dz2     :     0.003873  d :     0.029002
      dxz     :     0.005001
      dyz     :     0.004980
      dx2y2   :     0.009208
      dxy     :     0.005939
      f0      :     0.000297  f :     0.001588
      f+1     :     0.000232
      f-1     :     0.000107
      f+2     :     0.000373
      f-2     :     0.000235
      f+3     :     0.000207
      f-3     :     0.000137
  8 H s       :     0.634185  s :     0.634185
      pz      :     0.016609  p :     0.048854
      px      :     0.014438
      py      :     0.017807
  9 H s       :     0.858338  s :     0.858338
      pz      :     0.008401  p :     0.020646
      px      :     0.003909
      py      :     0.008337
 10 H s       :     0.856638  s :     0.856638
      pz      :     0.005385  p :     0.018557
      px      :     0.003718
      py      :     0.009455
 11 H s       :     0.866814  s :     0.866814
      pz      :     0.006278  p :     0.019774
      px      :     0.008204
      py      :     0.005291


                     *******************************
                     * LOEWDIN POPULATION ANALYSIS *
                     *******************************

----------------------
LOEWDIN ATOMIC CHARGES
----------------------
   0 C :   -0.385719
   1 O :   -0.091055
   2 H :    0.175568
   3 H :    0.087772
   4 H :    0.098273
   5 H :    0.103369
   6 C :   -0.352803
   7 O :   -0.094134
   8 H :    0.157309
   9 H :    0.087743
  10 H :    0.121112
  11 H :    0.092565

-------------------------------
LOEWDIN REDUCED ORBITAL CHARGES
-------------------------------
  0 C s       :     2.868742  s :     2.868742
      pz      :     1.113700  p :     3.061039
      px      :     1.001926
      py      :     0.945412
      dz2     :     0.049044  d :     0.404126
      dxz     :     0.035117
      dyz     :     0.101989
      dx2y2   :     0.142068
      dxy     :     0.075908
      f0      :     0.005266  f :     0.051812
      f+1     :     0.005080
      f-1     :     0.005743
      f+2     :     0.001834
      f-2     :     0.008668
      f+3     :     0.010490
      f-3     :     0.014732
  1 O s       :     3.384572  s :     3.384572
      pz      :     1.483429  p :     4.636018
      px      :     1.616194
      py      :     1.536395
      dz2     :     0.015563  d :     0.066258
      dxz     :     0.008264
      dyz     :     0.015448
      dx2y2   :     0.012188
      dxy     :     0.014795
      f0      :     0.000832  f :     0.004207
      f+1     :     0.000340
      f-1     :     0.000817
      f+2     :     0.000072
      f-2     :     0.000545
      f+3     :     0.000849
      f-3     :     0.000752
  2 H s       :     0.670493  s :     0.670493
      pz      :     0.077077  p :     0.153939
      px      :     0.037852
      py      :     0.039010
  3 H s       :     0.854485  s :     0.854485
      pz      :     0.025613  p :     0.057743
      px      :     0.012256
      py      :     0.019874
  4 H s       :     0.844915  s :     0.844915
      pz      :     0.013276  p :     0.056812
      px      :     0.033944
      py      :     0.009593
  5 H s       :     0.833900  s :     0.833900
      pz      :     0.032057  p :     0.062731
      px      :     0.013098
      py      :     0.017575
  6 C s       :     2.864951  s :     2.864951
      pz      :     1.033200  p :     3.053526
      px      :     0.913787
      py      :     1.106539
      dz2     :     0.054866  d :     0.383258
      dxz     :     0.098442
      dyz     :     0.077684
      dx2y2   :     0.079800
      dxy     :     0.072467
      f0      :     0.006556  f :     0.051067
      f+1     :     0.013648
      f-1     :     0.001553
      f+2     :     0.007792
      f-2     :     0.006831
      f+3     :     0.007327
      f-3     :     0.007360
  7 O s       :     3.382695  s :     3.382695
      pz      :     1.649939  p :     4.641974
      px      :     1.496248
      py      :     1.495787
      dz2     :     0.009117  d :     0.065264
      dxz     :     0.013371
      dyz     :     0.010171
      dx2y2   :     0.017846
      dxy     :     0.014758
      f0      :     0.000567  f :     0.004201
      f+1     :     0.000723
      f-1     :     0.000150
      f+2     :     0.000804
      f-2     :     0.000518
      f+3     :     0.000724
      f-3     :     0.000717
  8 H s       :     0.678745  s :     0.678745
      pz      :     0.047464  p :     0.163946
      px      :     0.038254
      py      :     0.078228
  9 H s       :     0.843166  s :     0.843166
      pz      :     0.027719  p :     0.069091
      px      :     0.013405
      py      :     0.027967
 10 H s       :     0.825968  s :     0.825968
      pz      :     0.015117  p :     0.052920
      px      :     0.010332
      py      :     0.027471
 11 H s       :     0.843598  s :     0.843598
      pz      :     0.020583  p :     0.063837
      px      :     0.025714
      py      :     0.017540


                      *****************************
                      * MAYER POPULATION ANALYSIS *
                      *****************************

  NA   - Mulliken gross atomic population
  ZA   - Total nuclear charge
  QA   - Mulliken gross atomic charge
  VA   - Mayer's total valence
  BVA  - Mayer's bonded valence
  FA   - Mayer's free valence

  ATOM       NA         ZA         QA         VA         BVA        FA
  0 C      6.1430     6.0000    -0.1430     3.9462     3.9462     0.0000
  1 O      8.4785     8.0000    -0.4785     1.8960     1.8960     0.0000
  2 H      0.6719     1.0000     0.3281     0.9093     0.9093     0.0000
  3 H      0.9457     1.0000     0.0543     0.9826     0.9826    -0.0000
  4 H      0.9040     1.0000     0.0960     0.9509     0.9509     0.0000
  5 H      0.8734     1.0000     0.1266     0.9564     0.9564     0.0000
  6 C      6.1748     6.0000    -0.1748     3.9120     3.9120     0.0000
  7 O      8.4847     8.0000    -0.4847     1.8964     1.8964     0.0000
  8 H      0.6830     1.0000     0.3170     0.9107     0.9107    -0.0000
  9 H      0.8790     1.0000     0.1210     0.9614     0.9614    -0.0000
 10 H      0.8752     1.0000     0.1248     0.9640     0.9640     0.0000
 11 H      0.8866     1.0000     0.1134     0.9538     0.9538     0.0000

  Mayer bond orders larger than 0.1
B(  0-C ,  1-O ) :   1.0145 B(  0-C ,  3-H ) :   0.9781 B(  0-C ,  4-H ) :   0.9678 
B(  0-C ,  5-H ) :   0.9750 B(  1-O ,  2-H ) :   0.8873 B(  6-C ,  7-O ) :   0.9761 
B(  6-C ,  9-H ) :   0.9831 B(  6-C , 10-H ) :   0.9712 B(  6-C , 11-H ) :   0.9718 
B(  7-O ,  8-H ) :   0.8978 

-------
TIMINGS
-------

Total SCF time: 0 days 0 hours 0 min 17 sec 

Total time                  ....      17.185 sec
Sum of individual times     ....      16.780 sec  ( 97.6%)

Fock matrix formation       ....      16.027 sec  ( 93.3%)
  XC integration            ....       6.985 sec  ( 43.6% of F)
    Basis function eval.    ....       0.063 sec  (  0.9% of XC)
    Density eval.           ....       0.096 sec  (  1.4% of XC)
    XC-Functional eval.     ....       0.107 sec  (  1.5% of XC)
    XC-Potential eval.      ....       0.074 sec  (  1.1% of XC)
Diagonalization             ....       0.239 sec  (  1.4%)
Density matrix formation    ....       0.007 sec  (  0.0%)
Population analysis         ....       0.018 sec  (  0.1%)
Initial guess               ....       0.096 sec  (  0.6%)
Orbital Transformation      ....       0.000 sec  (  0.0%)
Orbital Orthonormalization  ....       0.000 sec  (  0.0%)
DIIS solution               ....       0.056 sec  (  0.3%)
SOSCF solution              ....       0.027 sec  (  0.2%)
Grid generation             ....       0.309 sec  (  1.8%)


-------------------------------------------------------------------------------
                          DFT DISPERSION CORRECTION                            
                                                                               
                              DFTD3 V3.1  Rev 1                                
                              USING zero damping                               
-------------------------------------------------------------------------------
The omegaB97X-D3 functional is recognized. Fit by Chai et al.
Active option DFTDOPT                   ...         3   

molecular C6(AA) [au] = 835.126286 


            DFT-D V3
 parameters
 s6 scaling factor         :     1.0000 
 rs6 scaling factor        :     1.2810 
 s8 scaling factor         :     1.0000 
 rs8 scaling factor        :     1.0940 
 Damping factor alpha6     :    14.0000 
 Damping factor alpha8     :    16.0000 
 ad hoc parameters k1-k3   :    16.0000     1.3333    -4.0000 

 Edisp/kcal,au: -1.185696323438  -0.001889527164 
 E6   /kcal   :  -0.554600859 
 E8   /kcal   :  -0.631095464 
 % E8         :  53.225724980 

-------------------------   ----------------
Dispersion correction           -0.001889527
-------------------------   ----------------


-------------------------   --------------------
FINAL SINGLE POINT ENERGY      -231.468205289732
-------------------------   --------------------


                            ***************************************
                            *     ORCA property calculations      *
                            ***************************************

                                    ---------------------
                                    Active property flags
                                    ---------------------
   (+) Dipole Moment


------------------------------------------------------------------------------
                       ORCA ELECTRIC PROPERTIES CALCULATION
------------------------------------------------------------------------------

Dipole Moment Calculation                       ... on
Quadrupole Moment Calculation                   ... off
Polarizability Calculation                      ... off
GBWName                                         ... 20-37_DFT_AB.gbw
Electron density file                           ... 20-37_DFT_AB.scfp.tmp
The origin for moment calculation is the CENTER OF MASS  = (-3.487067,  9.410153  6.615760)

-------------
DIPOLE MOMENT
-------------
                                X             Y             Z
Electronic contribution:     -2.76159      -1.87060      -1.14546
Nuclear contribution   :      3.35904       2.69176       1.96009
                        -----------------------------------------
Total Dipole Moment    :      0.59745       0.82117       0.81463
                        -----------------------------------------
Magnitude (a.u.)       :      1.30188
Magnitude (Debye)      :      3.30911



--------------------
Rotational spectrum 
--------------------
 
Rotational constants in cm-1:     0.498527     0.064213     0.059962 
Rotational constants in MHz : 14945.470135  1925.052271  1797.624216 

 Dipole components along the rotational axes: 
x,y,z [a.u.] :     1.011527     0.747197     0.336740 
x,y,z [Debye]:     2.571098     1.899224     0.855926 

 
------------------------------------------------------------------------------
                      ORCA CHELPG CHARGES GENERATION
------------------------------------------------------------------------------

GBW file                           ... 20-37_DFT_AB.gbw

Reading the GBW file               ... done

Grid spacing                       ...     0.300000
Point Cut-Off                      ...     2.800000
Van-der-Waals Radii                ...        COSMO
Total charge                       ...            0


Number of points X direction       ...           27
Number of points Y direction       ...           25
Number of points Z direction       ...           38
Maximum number of possible points  ...        25650
Final number of points             ...         9837


CHELPG Charges            
--------------------------------
  0   C   :       0.090875
  1   O   :      -0.597728
  2   H   :       0.394389
  3   H   :      -0.016467
  4   H   :       0.029878
  5   H   :       0.077107
  6   C   :       0.048893
  7   O   :      -0.593756
  8   H   :       0.419951
  9   H   :       0.029798
 10   H   :       0.089503
 11   H   :       0.027557
--------------------------------
Total charge:    -0.000000
--------------------------------

CHELPG charges calculated...

Timings for individual parts in CHELPG calculation:
Grid generation                 ...        0.001 sec (=   0.000 min)
Potential calculation           ...        2.088 sec (=   0.035 min)
Fit to the potential            ...        0.038 sec (=   0.001 min)
------------------------------------------------------------------------------


Timings for individual modules:

Sum of individual times         ...       26.309 sec (=   0.438 min)
GTO integral calculation        ...        4.512 sec (=   0.075 min)  17.2 %
SCF iterations                  ...       18.999 sec (=   0.317 min)  72.2 %
CHELPG charge generation        ...        2.798 sec (=   0.047 min)  10.6 %


                 $$$$$$$$$$$$$$$$  JOB NUMBER  2 $$$$$$$$$$$$$$


                       ****************************
                       * Single Point Calculation *
                       ****************************

---------------------------------
CARTESIAN COORDINATES (ANGSTROEM)
---------------------------------
  C     -1.641794    5.307331    1.637861
  O     -2.575965    4.229584    1.491744
  H     -2.767324    3.875175    2.374490
  H     -1.946451    5.984514    2.464272
  H     -0.555480    5.066071    1.793109
  H     -1.550788    5.846078    0.708489
  C     -0.951433    5.290424    5.804685
  O     -2.165011    5.068943    5.047114
  H     -2.451916    5.919018    4.731868
  H     -1.152294    6.019029    6.526219
  H     -0.582023    4.346872    6.325513
  H     -0.158983    5.659910    5.179873

----------------------------
CARTESIAN COORDINATES (A.U.)
----------------------------
  NO LB      ZA    FRAG     MASS         X           Y           Z
   0 C     6.0000    0    12.011   -3.102541   10.029402    3.095109
   1 O     8.0000    0    15.999   -4.867868    7.992755    2.818988
   2 H     1.0000    0     1.008   -5.229484    7.323019    4.487136
   3 H     1.0000    0     1.008   -3.678259   11.309093    4.656799
   4 H     1.0000    0     1.008   -1.049705    9.573487    3.388485
   5 H     1.0000    0     1.008   -2.930565   11.047486    1.338850
   6 C     0.0000    0     0.000   -1.797948    9.997452   10.969265
   7 O     0.0000    0     0.000   -4.091278    9.578914    9.537663
   8 H     0.0000    0     0.000   -4.633450   11.185323    8.941935
   9 H     0.0000    0     0.000   -2.177520   11.374316   12.332767
  10 H     0.0000    0     0.000   -1.099864    8.214398   11.953487
  11 H     0.0000    0     0.000   -0.300434   10.695680    9.788541

--------------------------------
INTERNAL COORDINATES (ANGSTROEM)
--------------------------------
 C      0   0   0     0.000000000000     0.00000000     0.00000000
 O      1   0   0     1.433723903316     0.00000000     0.00000000
 H      2   1   0     0.970290939192   108.08050138     0.00000000
 H      1   2   3     1.111012080969   110.81302540   314.10580266
 H      1   2   3     1.123559716125   118.85787504    78.69239329
 H      1   2   3     1.078082898681   110.04733240   190.84586350
 C      4   1   2     3.553896559974   120.22105457    86.63286684
 O      7   4   1     1.447666817844    45.83744562   260.89937894
 H      8   7   4     0.950958477099   106.83589864   302.49404072
 H      7   4   1     1.044902722985   117.32534603   172.06120702
 H      7   4   1     1.139305020786   133.01679367   340.91235583
 H      7   4   1     1.074656662400    65.97259762    73.80125194

---------------------------
INTERNAL COORDINATES (A.U.)
---------------------------
 C      0   0   0     0.000000000000     0.00000000     0.00000000
 O      1   0   0     2.709345528923     0.00000000     0.00000000
 H      2   1   0     1.833584145298   108.08050138     0.00000000
 H      1   2   3     2.099508564509   110.81302540   314.10580266
 H      1   2   3     2.123220158583   118.85787504    78.69239329
 H      1   2   3     2.037281428172   110.04733240   190.84586350
 C      4   1   2     6.715891206635   120.22105457    86.63286684
 O      7   4   1     2.735693818890    45.83744562   260.89937894
 H      8   7   4     1.797051086447   106.83589864   302.49404072
 H      7   4   1     1.974579983031   117.32534603   172.06120702
 H      7   4   1     2.152974472287   133.01679367   340.91235583
 H      7   4   1     2.030806779929    65.97259762    73.80125194

---------------------
BASIS SET INFORMATION
---------------------
There are 3 groups of distinct atoms

 Group   1 Type C   : 11s6p2d1f contracted to 5s3p2d1f pattern {62111/411/11/1}
 Group   2 Type O   : 11s6p2d1f contracted to 5s3p2d1f pattern {62111/411/11/1}
 Group   3 Type H   : 5s1p contracted to 3s1p pattern {311/1}

Atom   0C    basis set group =>   1
Atom   1O    basis set group =>   2
Atom   2H    basis set group =>   3
Atom   3H    basis set group =>   3
Atom   4H    basis set group =>   3
Atom   5H    basis set group =>   3
Atom   6C    basis set group =>   1
Atom   7O    basis set group =>   2
Atom   8H    basis set group =>   3
Atom   9H    basis set group =>   3
Atom  10H    basis set group =>   3
Atom  11H    basis set group =>   3


           ************************************************************
           *        Program running with 8 parallel MPI-processes     *
           *              working on a common directory               *
           ************************************************************
------------------------------------------------------------------------------
                           ORCA GTO INTEGRAL CALCULATION
------------------------------------------------------------------------------

                         BASIS SET STATISTICS AND STARTUP INFO

 # of primitive gaussian shells          ...  128
 # of primitive gaussian functions       ...  248
 # of contracted shells                  ...   76
 # of contracted basis functions         ...  172
 Highest angular momentum                ...    3
 Maximum contraction depth               ...    6
 Integral package used                   ... LIBINT
 Integral threshhold            Thresh   ...  2.500e-11
 Primitive cut-off              TCut     ...  2.500e-12


------------------------------ INTEGRAL EVALUATION ----------------------------


 * One electron integrals 
 Pre-screening matrix                    ... done
 Shell pair data                         ... done (   0.001 sec)



           ************************************************************
           *        Program running with 8 parallel MPI-processes     *
           *              working on a common directory               *
           ************************************************************
-------------------------------------------------------------------------------
                                 ORCA SCF
-------------------------------------------------------------------------------

------------
SCF SETTINGS
------------
Hamiltonian:
 Density Functional     Method          .... DFT(GTOs)
 Exchange Functional    Exchange        .... WB97X-D3
 Correlation Functional Correlation     .... WB97X-D3
 Gradients option       PostSCFGGA      .... off
 Hybrid DFT is turned on
   Fraction HF Exchange ScalHFX         ....  0.195728
   Scaling of DF-GGA-X  ScalDFX         ....  0.000000
   Scaling of DF-GGA-C  ScalDFC         ....  1.000000
   Scaling of DF-LDA-C  ScalLDAC        ....  1.000000
   Perturbative correction              ....  0.000000
   Density functional embedding theory  .... OFF
 Long-range corrected/Screened/Range-Separated Hybrid DFT is turned on
   Amount of maximum screened exact exchange              ....  0.804272
   Range separation parameter mu (erf(mu*r12)/r12)        ....  0.250000


General Settings:
 Integral files         IntName         .... 20-37_DFT_A
 Hartree-Fock type      HFTyp           .... RHF
 Total Charge           Charge          ....    0
 Multiplicity           Mult            ....    1
 Number of Electrons    NEL             ....   18
 Basis Dimension        Dim             ....  172
 Nuclear Repulsion      ENuc            ....     39.8317366597 Eh

Convergence Acceleration:
 DIIS                   CNVDIIS         .... on
   Start iteration      DIISMaxIt       ....    12
   Startup error        DIISStart       ....  0.200000
   # of expansion vecs  DIISMaxEq       ....     5
   Bias factor          DIISBfac        ....   1.050
   Max. coefficient     DIISMaxC        ....  10.000
 Newton-Raphson         CNVNR           .... off
 SOSCF                  CNVSOSCF        .... on
   Start iteration      SOSCFMaxIt      ....   150
   Startup grad/error   SOSCFStart      ....  0.003300
 Level Shifting         CNVShift        .... on
   Level shift para.    LevelShift      ....    0.2500
   Turn off err/grad.   ShiftErr        ....    0.0010
 Zerner damping         CNVZerner       .... off
 Static damping         CNVDamp         .... on
   Fraction old density DampFac         ....    0.7000
   Max. Damping (<1)    DampMax         ....    0.9800
   Min. Damping (>=0)   DampMin         ....    0.0000
   Turn off err/grad.   DampErr         ....    0.1000
 Fernandez-Rico         CNVRico         .... off

SCF Procedure:
 Maximum # iterations   MaxIter         ....  1000
 SCF integral mode      SCFMode         .... Direct
   Integral package                     .... LIBINT
 Reset frequency        DirectResetFreq ....    20
 Integral Threshold     Thresh          ....  2.500e-11 Eh
 Primitive CutOff       TCut            ....  2.500e-12 Eh

Convergence Tolerance:
 Convergence Check Mode ConvCheckMode   .... Total+1el-Energy
 Convergence forced     ConvForced      .... 0
 Energy Change          TolE            ....  1.000e-08 Eh
 1-El. energy change                    ....  1.000e-05 Eh
 Orbital Gradient       TolG            ....  1.000e-05
 Orbital Rotation angle TolX            ....  1.000e-05
 DIIS Error             TolErr          ....  5.000e-07


Diagonalization of the overlap matrix:
Smallest eigenvalue                        ... 1.415e-03
Time for diagonalization                   ...    0.004 sec
Threshold for overlap eigenvalues          ... 1.000e-08
Number of eigenvalues below threshold      ... 0
Time for construction of square roots      ...    0.005 sec
Total time needed                          ...    0.009 sec

-------------------
DFT GRID GENERATION
-------------------

General Integration Accuracy     IntAcc      ...  4.340
Radial Grid Type                 RadialGrid  ... Gauss-Chebyshev
Angular Grid (max. acc.)         AngularGrid ... Lebedev-110
Angular grid pruning method      GridPruning ... 3 (G Style)
Weight generation scheme         WeightScheme... Becke
Basis function cutoff            BFCut       ...    1.0000e-11
Integration weight cutoff        WCut        ...    1.0000e-14
Grids for H and He will be reduced by one unit

# of grid points (after initial pruning)     ...  13096 (   0.0 sec)
# of grid points (after weights+screening)   ...  12485 (   0.0 sec)
nearest neighbour list constructed           ...    0.0 sec
Grid point re-assignment to atoms done       ...    0.0 sec
Grid point division into batches done        ...    0.0 sec
Reduced shell lists constructed in    0.0 sec

Total number of grid points                  ...    12485
Total number of batches                      ...      201
Average number of points per batch           ...       62
Average number of grid points per atom       ...     1040
Average number of shells per batch           ...    48.93 (64.38%)
Average number of basis functions per batch  ...   107.30 (62.38%)
Average number of large shells per batch     ...    39.19 (80.09%)
Average number of large basis fcns per batch ...    86.52 (80.64%)
Maximum spatial batch extension              ...  19.49, 16.66, 17.43 au
Average spatial batch extension              ...   0.43,  0.42,  0.40 au

Time for grid setup =    0.043 sec

------------------------------
INITIAL GUESS: MODEL POTENTIAL
------------------------------
Loading Hartree-Fock densities                     ... done
Calculating cut-offs                               ... done
Setting up the integral package                    ... done
Initializing the effective Hamiltonian             ... done
Starting the Coulomb interaction                   ... done (   0.0 sec)
Reading the grid                                   ... done
Mapping shells                                     ... done
Starting the XC term evaluation                    ... done (   0.0 sec)
  promolecular density results
     # of electrons  =     17.999685952
     EX              =    -14.416273075
     EC              =     -0.573239486
     EX+EC           =    -14.989512560
Transforming the Hamiltonian                       ... done (   0.0 sec)
Diagonalizing the Hamiltonian                      ... done (   0.0 sec)
Back transforming the eigenvectors                 ... done (   0.0 sec)
Now organizing SCF variables                       ... done
                      ------------------
                      INITIAL GUESS DONE (   0.2 sec)
                      ------------------
--------------
SCF ITERATIONS
--------------
ITER       Energy         Delta-E        Max-DP      RMS-DP      [F,P]     Damp
               ***  Starting incremental Fock matrix formation  ***
  0   -115.6499971344   0.000000000000 0.03586810  0.00072546  0.2511688 0.7000
  1   -115.6852721422  -0.035275007785 0.02165371  0.00051422  0.1257287 0.7000
                               ***Turning on DIIS***
  2   -115.7014365042  -0.016164361945 0.03158289  0.00092788  0.0492197 0.0000
  3   -115.7277599007  -0.026323396529 0.01659149  0.00034303  0.0591757 0.0000
  4   -115.7320777369  -0.004317836228 0.00396131  0.00006763  0.0060112 0.0000
                      *** Initiating the SOSCF procedure ***
                           *** Shutting down DIIS ***
                      *** Re-Reading the Fockian *** 
                      *** Removing any level shift *** 
ITER      Energy       Delta-E        Grad      Rot      Max-DP    RMS-DP
  5   -115.73216721  -0.0000894707  0.000428  0.000428  0.000666  0.000023
               *** Restarting incremental Fock matrix formation ***
  6   -115.73217540  -0.0000081950  0.000121  0.000142  0.000454  0.000014
  7   -115.73217622  -0.0000008153  0.000040  0.000086  0.000210  0.000006
  8   -115.73217628  -0.0000000660  0.000022  0.000017  0.000043  0.000001
  9   -115.73217630  -0.0000000136  0.000011  0.000009  0.000023  0.000001
                  ***Gradient check signals convergence***
              ***Rediagonalizing the Fockian in SOSCF/NRSCF***

               *****************************************************
               *                     SUCCESS                       *
               *           SCF CONVERGED AFTER  10 CYCLES          *
               *****************************************************

Setting up the final grid:

General Integration Accuracy     IntAcc      ...  4.670
Radial Grid Type                 RadialGrid  ... Gauss-Chebyshev
Angular Grid (max. acc.)         AngularGrid ... Lebedev-302
Angular grid pruning method      GridPruning ... 3 (G Style)
Weight generation scheme         WeightScheme... Becke
Basis function cutoff            BFCut       ...    1.0000e-11
Integration weight cutoff        WCut        ...    1.0000e-14
Grids for H and He will be reduced by one unit

# of grid points (after initial pruning)     ...  52000 (   0.0 sec)
# of grid points (after weights+screening)   ...  49101 (   0.0 sec)
nearest neighbour list constructed           ...    0.0 sec
Grid point re-assignment to atoms done       ...    0.0 sec
Grid point division into batches done        ...    0.2 sec
Reduced shell lists constructed in    0.2 sec

Total number of grid points                  ...    49101
Total number of batches                      ...      771
Average number of points per batch           ...       63
Average number of grid points per atom       ...     4092
Average number of shells per batch           ...    47.16 (62.06%)
Average number of basis functions per batch  ...   103.57 (60.22%)
Average number of large shells per batch     ...    37.49 (79.49%)
Average number of large basis fcns per batch ...    82.76 (79.90%)
Maximum spatial batch extension              ...  15.56, 14.93, 15.11 au
Average spatial batch extension              ...   0.29,  0.28,  0.27 au

Final grid set up in    0.3 sec
Final integration                            ... done (   0.1 sec)
Change in XC energy                          ...     0.000066019
Integrated number of electrons               ...    18.000026867
Previous integrated no of electrons          ...    18.002085323

----------------
TOTAL SCF ENERGY
----------------

Total Energy       :         -115.73211028 Eh           -3149.23082 eV

Components:
Nuclear Repulsion  :           39.83173666 Eh            1083.87666 eV
Electronic Energy  :         -155.56384694 Eh           -4233.10748 eV
One Electron Energy:         -236.09730837 Eh           -6424.53438 eV
Two Electron Energy:           80.53346143 Eh            2191.42690 eV

Virial components:
Potential Energy   :         -230.86959936 Eh           -6282.28118 eV
Kinetic Energy     :          115.13748907 Eh            3133.05036 eV
Virial Ratio       :            2.00516444


DFT components:
N(Alpha)           :        9.000013433273 electrons
N(Beta)            :        9.000013433273 electrons
N(Total)           :       18.000026866546 electrons
E(XC)              :      -10.631000842517 Eh       
DFET-embed. en.    :        0.000000000000 Eh       

---------------
SCF CONVERGENCE
---------------

  Last Energy change         ...   -2.5474e-09  Tolerance :   1.0000e-08
  Last MAX-Density change    ...    4.3528e-06  Tolerance :   1.0000e-07
  Last RMS-Density change    ...    1.2075e-07  Tolerance :   5.0000e-09
  Last Orbital Gradient      ...    1.9423e-06  Tolerance :   1.0000e-05
  Last Orbital Rotation      ...    3.1679e-06  Tolerance :   1.0000e-05

             **** THE GBW FILE WAS UPDATED (20-37_DFT_A.gbw) ****
             **** DENSITY FILE WAS UPDATED (20-37_DFT_A.scfp.tmp) ****
             **** ENERGY FILE WAS UPDATED (20-37_DFT_A.en.tmp) ****
----------------
ORBITAL ENERGIES
----------------

  NO   OCC          E(Eh)            E(eV) 
   0   2.0000     -19.235528      -523.4253 
   1   2.0000     -10.318165      -280.7715 
   2   2.0000      -1.130147       -30.7529 
   3   2.0000      -0.795985       -21.6599 
   4   2.0000      -0.607518       -16.5314 
   5   2.0000      -0.541564       -14.7367 
   6   2.0000      -0.517761       -14.0890 
   7   2.0000      -0.436655       -11.8820 
   8   2.0000      -0.374491       -10.1904 
   9   0.0000       0.074641         2.0311 
  10   0.0000       0.120412         3.2766 
  11   0.0000       0.146750         3.9933 
  12   0.0000       0.163834         4.4581 
  13   0.0000       0.196707         5.3527 
  14   0.0000       0.200205         5.4479 
  15   0.0000       0.213302         5.8042 
  16   0.0000       0.220980         6.0132 
  17   0.0000       0.232632         6.3302 
  18   0.0000       0.295083         8.0296 
  19   0.0000       0.310196         8.4409 
  20   0.0000       0.319262         8.6876 
  21   0.0000       0.332300         9.0423 
  22   0.0000       0.352628         9.5955 
  23   0.0000       0.376113        10.2346 
  24   0.0000       0.396331        10.7847 
  25   0.0000       0.445793        12.1306 
  26   0.0000       0.460025        12.5179 
  27   0.0000       0.488901        13.3037 
  28   0.0000       0.522332        14.2134 
  29   0.0000       0.535885        14.5822 
  30   0.0000       0.559015        15.2116 
  31   0.0000       0.565624        15.3914 
  32   0.0000       0.581643        15.8273 
  33   0.0000       0.600701        16.3459 
  34   0.0000       0.633833        17.2475 
  35   0.0000       0.654038        17.7973 
  36   0.0000       0.689831        18.7713 
  37   0.0000       0.701983        19.1019 
  38   0.0000       0.765936        20.8422 
  39   0.0000       0.798127        21.7181 
  40   0.0000       0.810186        22.0463 
  41   0.0000       0.830582        22.6013 
  42   0.0000       0.874333        23.7918 
  43   0.0000       0.938932        25.5496 
  44   0.0000       1.008196        27.4344 
  45   0.0000       1.037699        28.2372 
  46   0.0000       1.047531        28.5048 
  47   0.0000       1.100523        29.9468 
  48   0.0000       1.153295        31.3828 
  49   0.0000       1.169043        31.8113 
  50   0.0000       1.189365        32.3643 
  51   0.0000       1.216806        33.1110 
  52   0.0000       1.226329        33.3701 
  53   0.0000       1.342223        36.5237 
  54   0.0000       1.379168        37.5291 
  55   0.0000       1.399850        38.0919 
  56   0.0000       1.447822        39.3972 
  57   0.0000       1.513000        41.1708 
  58   0.0000       1.524324        41.4790 
  59   0.0000       1.559363        42.4324 
  60   0.0000       1.605430        43.6860 
  61   0.0000       1.637447        44.5572 
  62   0.0000       1.655275        45.0423 
  63   0.0000       1.680505        45.7289 
  64   0.0000       1.685895        45.8755 
  65   0.0000       1.803286        49.0699 
  66   0.0000       1.857331        50.5405 
  67   0.0000       1.902162        51.7605 
  68   0.0000       1.930669        52.5362 
  69   0.0000       1.959948        53.3329 
  70   0.0000       2.000086        54.4251 
  71   0.0000       2.061887        56.1068 
  72   0.0000       2.092691        56.9450 
  73   0.0000       2.107345        57.3438 
  74   0.0000       2.111369        57.4533 
  75   0.0000       2.165119        58.9159 
  76   0.0000       2.197247        59.7901 
  77   0.0000       2.216449        60.3127 
  78   0.0000       2.251712        61.2722 
  79   0.0000       2.297531        62.5190 
  80   0.0000       2.335682        63.5571 
  81   0.0000       2.360702        64.2380 
  82   0.0000       2.398317        65.2615 
  83   0.0000       2.442646        66.4678 
  84   0.0000       2.517377        68.5013 
  85   0.0000       2.535822        69.0032 
  86   0.0000       2.565196        69.8025 
  87   0.0000       2.590815        70.4997 
  88   0.0000       2.609910        71.0193 
  89   0.0000       2.628079        71.5137 
  90   0.0000       2.659286        72.3629 
  91   0.0000       2.726682        74.1968 
  92   0.0000       2.822663        76.8086 
  93   0.0000       2.850921        77.5775 
  94   0.0000       2.870335        78.1058 
  95   0.0000       2.881068        78.3978 
  96   0.0000       2.912435        79.2514 
  97   0.0000       2.990782        81.3833 
  98   0.0000       3.069386        83.5222 
  99   0.0000       3.081921        83.8633 
 100   0.0000       3.131163        85.2033 
 101   0.0000       3.144708        85.5718 
 102   0.0000       3.170001        86.2601 
 103   0.0000       3.225836        87.7795 
 104   0.0000       3.253760        88.5393 
 105   0.0000       3.263391        88.8014 
 106   0.0000       3.322282        90.4039 
 107   0.0000       3.349931        91.1562 
 108   0.0000       3.449535        93.8666 
 109   0.0000       3.453276        93.9684 
 110   0.0000       3.511975        95.5657 
 111   0.0000       3.557085        96.7932 
 112   0.0000       3.609062        98.2076 
 113   0.0000       3.638440        99.0070 
 114   0.0000       3.671805        99.9149 
 115   0.0000       3.684990       100.2737 
 116   0.0000       3.718145       101.1759 
 117   0.0000       3.974710       108.1574 
 118   0.0000       4.058541       110.4385 
 119   0.0000       4.167956       113.4158 
 120   0.0000       4.185756       113.9002 
 121   0.0000       4.238966       115.3481 
 122   0.0000       4.269401       116.1763 
 123   0.0000       4.298770       116.9755 
 124   0.0000       4.337398       118.0266 
 125   0.0000       4.395557       119.6092 
 126   0.0000       4.520775       123.0165 
 127   0.0000       4.533558       123.3644 
 128   0.0000       4.555024       123.9485 
 129   0.0000       4.581044       124.6566 
 130   0.0000       4.602335       125.2359 
 131   0.0000       5.017749       136.5399 
 132   0.0000       5.082708       138.3075 
 133   0.0000       5.104580       138.9027 
 134   0.0000       5.332724       145.1108 
 135   0.0000       5.337257       145.2341 
 136   0.0000       5.416832       147.3995 
 137   0.0000       5.509562       149.9228 
 138   0.0000       5.535266       150.6222 
 139   0.0000       5.720824       155.6715 
 140   0.0000       5.782517       157.3503 
 141   0.0000       5.802034       157.8814 
 142   0.0000       5.948922       161.8784 
 143   0.0000       5.995892       163.1565 
 144   0.0000       6.168127       167.8433 
 145   0.0000       6.322955       172.0564 
 146   0.0000       6.516929       177.3346 
 147   0.0000       6.584446       179.1719 
 148   0.0000       6.680324       181.7809 
 149   0.0000       6.742533       183.4737 
 150   0.0000       6.776281       184.3920 
 151   0.0000       6.838363       186.0813 
 152   0.0000       7.022500       191.0919 
 153   0.0000       7.038369       191.5238 
 154   0.0000       7.179551       195.3655 
 155   0.0000       7.188399       195.6063 
 156   0.0000       7.364049       200.3860 
 157   0.0000       8.108446       220.6420 
 158   0.0000       8.916230       242.6230 
 159   0.0000       9.339031       254.1280 
 160   0.0000       9.542099       259.6537 
 161   0.0000       9.554900       260.0020 
 162   0.0000       9.767415       265.7849 
 163   0.0000       9.893894       269.2266 
 164   0.0000       9.901129       269.4234 
 165   0.0000      10.046541       273.3803 
 166   0.0000      11.096121       301.9408 
[...]
  82   0.0000       2.406804        65.4925 
  83   0.0000       2.453427        66.7611 
  84   0.0000       2.476534        67.3899 
  85   0.0000       2.525964        68.7350 
  86   0.0000       2.576364        70.1064 
  87   0.0000       2.605003        70.8857 
  88   0.0000       2.648047        72.0570 
  89   0.0000       2.661056        72.4110 
  90   0.0000       2.673380        72.7464 
  91   0.0000       2.723715        74.1160 
  92   0.0000       2.817809        76.6765 
  93   0.0000       2.846961        77.4697 
  94   0.0000       2.887140        78.5631 
  95   0.0000       2.899134        78.8894 
  96   0.0000       2.918320        79.4115 
  97   0.0000       2.983927        81.1968 
  98   0.0000       3.011188        81.9386 
  99   0.0000       3.101871        84.4062 
 100   0.0000       3.136118        85.3381 
 101   0.0000       3.147596        85.6505 
 102   0.0000       3.208265        87.3013 
 103   0.0000       3.230490        87.9061 
 104   0.0000       3.256867        88.6238 
 105   0.0000       3.354967        91.2933 
 106   0.0000       3.385206        92.1161 
 107   0.0000       3.408127        92.7398 
 108   0.0000       3.429080        93.3100 
 109   0.0000       3.478243        94.6478 
 110   0.0000       3.484529        94.8188 
 111   0.0000       3.573845        97.2493 
 112   0.0000       3.584424        97.5371 
 113   0.0000       3.637239        98.9743 
 114   0.0000       3.670881        99.8897 
 115   0.0000       3.672984        99.9470 
 116   0.0000       3.798417       103.3602 
 117   0.0000       4.030519       109.6760 
 118   0.0000       4.058844       110.4468 
 119   0.0000       4.108557       111.7995 
 120   0.0000       4.219113       114.8079 
 121   0.0000       4.272253       116.2539 
 122   0.0000       4.303533       117.1051 
 123   0.0000       4.307157       117.2037 
 124   0.0000       4.335986       117.9882 
 125   0.0000       4.477635       121.8426 
 126   0.0000       4.534168       123.3810 
 127   0.0000       4.564823       124.2152 
 128   0.0000       4.579798       124.6227 
 129   0.0000       4.604329       125.2902 
 130   0.0000       4.612074       125.5009 
 131   0.0000       5.004919       136.1908 
 132   0.0000       5.049708       137.4095 
 133   0.0000       5.139088       139.8417 
 134   0.0000       5.311748       144.5400 
 135   0.0000       5.345333       145.4539 
 136   0.0000       5.423366       147.5773 
 137   0.0000       5.456797       148.4870 
 138   0.0000       5.552933       151.1030 
 139   0.0000       5.733149       156.0069 
 140   0.0000       5.773032       157.0922 
 141   0.0000       5.779667       157.2727 
 142   0.0000       5.865868       159.6184 
 143   0.0000       5.954564       162.0319 
 144   0.0000       6.056814       164.8143 
 145   0.0000       6.376056       173.5013 
 146   0.0000       6.535121       177.8297 
 147   0.0000       6.596612       179.5029 
 148   0.0000       6.695410       182.1914 
 149   0.0000       6.758828       183.9170 
 150   0.0000       6.793615       184.8637 
 151   0.0000       6.839254       186.1056 
 152   0.0000       7.047971       191.7850 
 153   0.0000       7.087915       192.8720 
 154   0.0000       7.185669       195.5320 
 155   0.0000       7.223112       196.5509 
 156   0.0000       7.371391       200.5857 
 157   0.0000       8.040368       218.7895 
 158   0.0000       8.884468       241.7587 
 159   0.0000       9.334827       254.0136 
 160   0.0000       9.556315       260.0405 
 161   0.0000       9.565630       260.2940 
 162   0.0000       9.774143       265.9680 
 163   0.0000       9.876037       268.7406 
 164   0.0000       9.933722       270.3103 
 165   0.0000      10.069277       273.9990 
 166   0.0000      11.124387       302.7100 
 167   0.0000      19.118740       520.2474 
 168   0.0000      22.366473       608.6227 
 169   0.0000      43.654005      1187.8859 
 170   0.0000      65.833788      1791.4284 
 171   0.0000     126.440335      3440.6164 

                    ********************************
                    * MULLIKEN POPULATION ANALYSIS *
                    ********************************

-----------------------
MULLIKEN ATOMIC CHARGES
-----------------------
   0 C :    0.007714
   1 O :    0.000903
   2 H :   -0.003753
   3 H :   -0.016791
   4 H :   -0.000978
   5 H :   -0.000969
   6 C :   -0.175885
   7 O :   -0.471797
   8 H :    0.314261
   9 H :    0.115878
  10 H :    0.120410
  11 H :    0.111007
Sum of atomic charges:    0.0000000

--------------------------------
MULLIKEN REDUCED ORBITAL CHARGES
--------------------------------
  0 C s       :    -0.010271  s :    -0.010271
      pz      :     0.001886  p :     0.002646
      px      :    -0.000110
      py      :     0.000871
      dz2     :    -0.000089  d :    -0.000089
      dxz     :    -0.000009
      dyz     :     0.000011
      dx2y2   :    -0.000004
      dxy     :     0.000002
      f0      :    -0.000000  f :     0.000000
      f+1     :     0.000000
      f-1     :     0.000000
      f+2     :     0.000000
      f-2     :     0.000000
      f+3     :    -0.000000
      f-3     :     0.000000
  1 O s       :    -0.000314  s :    -0.000314
      pz      :    -0.000656  p :    -0.000589
      px      :    -0.000012
      py      :     0.000078
      dz2     :     0.000000  d :    -0.000000
      dxz     :    -0.000000
      dyz     :    -0.000000
      dx2y2   :    -0.000000
      dxy     :    -0.000000
      f0      :     0.000000  f :     0.000000
      f+1     :     0.000000
      f-1     :     0.000000
      f+2     :    -0.000000
      f-2     :     0.000000
      f+3     :    -0.000000
      f-3     :    -0.000000
  2 H s       :     0.003743  s :     0.003743
      pz      :     0.000011  p :     0.000010
      px      :     0.000001
      py      :    -0.000002
  3 H s       :     0.016779  s :     0.016779
      pz      :     0.000004  p :     0.000012
      px      :    -0.000000
      py      :     0.000008
  4 H s       :     0.000982  s :     0.000982
      pz      :    -0.000000  p :    -0.000004
      px      :    -0.000004
      py      :    -0.000000
  5 H s       :     0.000969  s :     0.000969
      pz      :     0.000000  p :     0.000000
      px      :     0.000000
      py      :    -0.000000
  6 C s       :     3.228925  s :     3.228925
      pz      :     0.964174  p :     2.845791
      px      :     0.807393
      py      :     1.074224
      dz2     :     0.019287  d :     0.094188
      dxz     :     0.017376
      dyz     :     0.017515
      dx2y2   :     0.016540
      dxy     :     0.023470
      f0      :     0.000349  f :     0.006981
      f+1     :     0.002042
      f-1     :     0.000055
      f+2     :     0.001641
      f-2     :     0.001435
      f+3     :     0.000668
      f-3     :     0.000792
  7 O s       :     3.801339  s :     3.801339
      pz      :     1.701376  p :     4.639653
      px      :     1.468058
      py      :     1.470219
      dz2     :     0.003840  d :     0.029210
      dxz     :     0.005068
      dyz     :     0.005011
      dx2y2   :     0.009292
      dxy     :     0.006000
      f0      :     0.000300  f :     0.001594
      f+1     :     0.000232
      f-1     :     0.000109
      f+2     :     0.000374
      f-2     :     0.000234
      f+3     :     0.000208
      f-3     :     0.000137
  8 H s       :     0.636772  s :     0.636772
      pz      :     0.016662  p :     0.048967
      px      :     0.014527
      py      :     0.017778
  9 H s       :     0.863555  s :     0.863555
      pz      :     0.008335  p :     0.020567
      px      :     0.003920
      py      :     0.008312
 10 H s       :     0.861082  s :     0.861082
      pz      :     0.005347  p :     0.018508
      px      :     0.003705
      py      :     0.009455
 11 H s       :     0.869214  s :     0.869214
      pz      :     0.006298  p :     0.019779
      px      :     0.008204
      py      :     0.005277


                     *******************************
                     * LOEWDIN POPULATION ANALYSIS *
                     *******************************

----------------------
LOEWDIN ATOMIC CHARGES
----------------------
   0 C :   -0.007570
   1 O :   -0.000349
   2 H :   -0.004616
   3 H :   -0.007367
   4 H :   -0.000343
   5 H :   -0.000144
   6 C :   -0.354884
   7 O :   -0.083558
   8 H :    0.161422
   9 H :    0.086114
  10 H :    0.119480
  11 H :    0.091816

-------------------------------
LOEWDIN REDUCED ORBITAL CHARGES
-------------------------------
  0 C s       :     0.000679  s :     0.000679
      pz      :     0.005802  p :     0.006533
      px      :     0.000264
      py      :     0.000468
      dz2     :     0.000312  d :     0.000354
      dxz     :     0.000022
      dyz     :     0.000019
      dx2y2   :     0.000001
      dxy     :     0.000000
      f0      :     0.000002  f :     0.000004
      f+1     :     0.000000
      f-1     :     0.000000
      f+2     :     0.000000
      f-2     :     0.000000
      f+3     :     0.000000
      f-3     :     0.000000
  1 O s       :     0.000011  s :     0.000011
      pz      :     0.000273  p :     0.000333
      px      :     0.000025
      py      :     0.000035
      dz2     :     0.000004  d :     0.000005
      dxz     :     0.000000
      dyz     :     0.000000
      dx2y2   :     0.000000
      dxy     :     0.000000
      f0      :     0.000000  f :     0.000000
      f+1     :     0.000000
      f-1     :     0.000000
      f+2     :     0.000000
      f-2     :     0.000000
      f+3     :     0.000000
      f-3     :     0.000000
  2 H s       :     0.004558  s :     0.004558
      pz      :     0.000049  p :     0.000058
      px      :     0.000002
      py      :     0.000006
  3 H s       :     0.007217  s :     0.007217
      pz      :     0.000141  p :     0.000150
      px      :     0.000003
      py      :     0.000006
  4 H s       :     0.000341  s :     0.000341
      pz      :     0.000001  p :     0.000002
      px      :     0.000000
      py      :     0.000000
  5 H s       :     0.000141  s :     0.000141
      pz      :     0.000002  p :     0.000003
      px      :     0.000000
      py      :     0.000001
  6 C s       :     2.864713  s :     2.864713
      pz      :     1.032512  p :     3.053573
      px      :     0.916240
      py      :     1.104821
      dz2     :     0.055201  d :     0.385519
      dxz     :     0.098588
      dyz     :     0.078492
      dx2y2   :     0.080131
      dxy     :     0.073107
      f0      :     0.006545  f :     0.051079
      f+1     :     0.013672
      f-1     :     0.001554
      f+2     :     0.007757
      f-2     :     0.006853
      f+3     :     0.007319
      f-3     :     0.007379
  7 O s       :     3.382951  s :     3.382951
      pz      :     1.644204  p :     4.631066
      px      :     1.492551
      py      :     1.494311
      dz2     :     0.008992  d :     0.065334
      dxz     :     0.013595
      dyz     :     0.010034
      dx2y2   :     0.018000
      dxy     :     0.014712
      f0      :     0.000573  f :     0.004207
      f+1     :     0.000718
      f-1     :     0.000150
      f+2     :     0.000810
      f-2     :     0.000517
      f+3     :     0.000725
      f-3     :     0.000713
  8 H s       :     0.674951  s :     0.674951
      pz      :     0.047414  p :     0.163627
      px      :     0.038187
      py      :     0.078025
  9 H s       :     0.844892  s :     0.844892
      pz      :     0.027631  p :     0.068994
      px      :     0.013512
      py      :     0.027850
 10 H s       :     0.827780  s :     0.827780
      pz      :     0.015042  p :     0.052741
      px      :     0.010320
      py      :     0.027379
 11 H s       :     0.844470  s :     0.844470
      pz      :     0.020591  p :     0.063713
      px      :     0.025639
      py      :     0.017484


                      *****************************
                      * MAYER POPULATION ANALYSIS *
                      *****************************

  NA   - Mulliken gross atomic population
  ZA   - Total nuclear charge
  QA   - Mulliken gross atomic charge
  VA   - Mayer's total valence
  BVA  - Mayer's bonded valence
  FA   - Mayer's free valence

  ATOM       NA         ZA         QA         VA         BVA        FA
  0 C     -0.0077     0.0000     0.0077    -0.0155    -0.0155    -0.0000
  1 O     -0.0009     0.0000     0.0009    -0.0018    -0.0018     0.0000
  2 H      0.0038     0.0000    -0.0038     0.0075     0.0075    -0.0000
  3 H      0.0168     0.0000    -0.0168     0.0333     0.0333     0.0000
  4 H      0.0010     0.0000    -0.0010     0.0020     0.0020     0.0000
  5 H      0.0010     0.0000    -0.0010     0.0019     0.0019    -0.0000
  6 C      6.1759     6.0000    -0.1759     3.9276     3.9276     0.0000
  7 O      8.4718     8.0000    -0.4718     1.9054     1.9054    -0.0000
  8 H      0.6857     1.0000     0.3143     0.9130     0.9130    -0.0000
  9 H      0.8841     1.0000     0.1159     0.9607     0.9607    -0.0000
 10 H      0.8796     1.0000     0.1204     0.9637     0.9637     0.0000
 11 H      0.8890     1.0000     0.1110     0.9511     0.9511    -0.0000

  Mayer bond orders larger than 0.1
B(  6-C ,  7-O ) :   0.9895 B(  6-C ,  9-H ) :   0.9827 B(  6-C , 10-H ) :   0.9715 
B(  6-C , 11-H ) :   0.9721 B(  7-O ,  8-H ) :   0.8998 

-------
TIMINGS
-------

Total SCF time: 0 days 0 hours 0 min 12 sec 

Total time                  ....      12.343 sec
Sum of individual times     ....      11.931 sec  ( 96.7%)

Fock matrix formation       ....      11.344 sec  ( 91.9%)
  XC integration            ....       3.495 sec  ( 30.8% of F)
    Basis function eval.    ....       0.063 sec  (  1.8% of XC)
    Density eval.           ....       0.069 sec  (  2.0% of XC)
    XC-Functional eval.     ....       0.091 sec  (  2.6% of XC)
    XC-Potential eval.      ....       0.073 sec  (  2.1% of XC)
Diagonalization             ....       0.089 sec  (  0.7%)
Density matrix formation    ....       0.011 sec  (  0.1%)
Population analysis         ....       0.017 sec  (  0.1%)
Initial guess               ....       0.106 sec  (  0.9%)
Orbital Transformation      ....       0.000 sec  (  0.0%)
Orbital Orthonormalization  ....       0.000 sec  (  0.0%)
DIIS solution               ....       0.049 sec  (  0.4%)
SOSCF solution              ....       0.032 sec  (  0.3%)
Grid generation             ....       0.284 sec  (  2.3%)


-------------------------------------------------------------------------------
                          DFT DISPERSION CORRECTION                            
                                                                               
                              DFTD3 V3.1  Rev 1                                
                              USING zero damping                               
-------------------------------------------------------------------------------
The omegaB97X-D3 functional is recognized. Fit by Chai et al.
Active option DFTDOPT                   ...         3   

molecular C6(AA) [au] = 208.766499 


            DFT-D V3
 parameters
 s6 scaling factor         :     1.0000 
 rs6 scaling factor        :     1.2810 
 s8 scaling factor         :     1.0000 
 rs8 scaling factor        :     1.0940 
 Damping factor alpha6     :    14.0000 
 Damping factor alpha8     :    16.0000 
 ad hoc parameters k1-k3   :    16.0000     1.3333    -4.0000 

 Edisp/kcal,au: -0.149113697720  -0.000237627778 
 E6   /kcal   :  -0.031787547 
 E8   /kcal   :  -0.117326150 
 % E8         :  78.682342442 

-------------------------   ----------------
Dispersion correction           -0.000237628
-------------------------   ----------------


-------------------------   --------------------
FINAL SINGLE POINT ENERGY      -115.732573312037
-------------------------   --------------------


                            ***************************************
                            *     ORCA property calculations      *
                            ***************************************

                                    ---------------------
                                    Active property flags
                                    ---------------------
   (+) Dipole Moment


------------------------------------------------------------------------------
                       ORCA ELECTRIC PROPERTIES CALCULATION
------------------------------------------------------------------------------

Dipole Moment Calculation                       ... on
Quadrupole Moment Calculation                   ... off
Polarizability Calculation                      ... off
GBWName                                         ... 20-37_DFT_B.gbw
Electron density file                           ... 20-37_DFT_B.scfp.tmp
The origin for moment calculation is the CENTER OF MASS  = (-2.975110,  9.835027 10.227382)

-------------
DIPOLE MOMENT
-------------
                                X             Y             Z
Electronic contribution:     -1.48706      -0.40717      -0.88852
Nuclear contribution   :      1.82280       1.05527       1.04075
                        -----------------------------------------
Total Dipole Moment    :      0.33574       0.64810       0.15222
                        -----------------------------------------
Magnitude (a.u.)       :      0.74560
Magnitude (Debye)      :      1.89517



--------------------
Rotational spectrum 
--------------------
 
Rotational constants in cm-1:     4.357247     0.805425     0.771694 
Rotational constants in MHz : 130626.970432 24146.031375 23134.798248 

 Dipole components along the rotational axes: 
x,y,z [a.u.] :    -0.424350    -0.610793     0.052733 
x,y,z [Debye]:    -1.078612    -1.552513     0.134036 

 
------------------------------------------------------------------------------
                      ORCA CHELPG CHARGES GENERATION
------------------------------------------------------------------------------

GBW file                           ... 20-37_DFT_B.gbw

Reading the GBW file               ... done

Grid spacing                       ...     0.300000
Point Cut-Off                      ...     2.800000
Van-der-Waals Radii                ...        COSMO
Total charge                       ...            0


Number of points X direction       ...           27
Number of points Y direction       ...           25
Number of points Z direction       ...           38
Maximum number of possible points  ...        25650
Final number of points             ...         5923


CHELPG Charges            
--------------------------------
  0   C   :      -0.003670
  1   O   :      -0.020826
  2   H   :      -0.003272
  3   H   :      -0.001377
  4   H   :       0.004201
  5   H   :       0.008668
  6   C   :       0.058511
  7   O   :      -0.587475
  8   H   :       0.402839
  9   H   :       0.026518
 10   H   :       0.085400
 11   H   :       0.030482
--------------------------------
Total charge:    -0.000000
--------------------------------

CHELPG charges calculated...

Timings for individual parts in CHELPG calculation:
Grid generation                 ...        0.001 sec (=   0.000 min)
Potential calculation           ...        1.182 sec (=   0.020 min)
Fit to the potential            ...        0.002 sec (=   0.000 min)
------------------------------------------------------------------------------


Timings for individual modules:

Sum of individual times         ...       15.177 sec (=   0.253 min)
GTO integral calculation        ...        1.055 sec (=   0.018 min)   6.9 %
SCF iterations                  ...       12.910 sec (=   0.215 min)  85.1 %
CHELPG charge generation        ...        1.212 sec (=   0.020 min)   8.0 %



                             ****ORCA TERMINATED NORMALLY****
TOTAL RUN TIME: 0 days 0 hours 1 minutes 8 seconds 551 msec
