LAMMPS data file via vdw_self_gen.py, on 2021-08-05 13:23:59.798249

2500 atoms
5 atom types
2000 bonds
4 bond types
2000 angles
4 angle types
1000 dihedrals
2 dihedral types

-28.1487586381585579  28.1487586381585544 xlo xhi
-28.1487586381585579  28.1487586381585544 ylo yhi
-28.1487586381585579  28.1487586381585544 zlo zhi

Masses

1  1.007940
2  1.007940
3  12.011000
4  15.999400
5  15.999400

Atoms

1         0    4   -0.4565530000000000  -8.5487616804461677   2.8704120415599732  -3.5490951822091072  0 0 0
2         0    3    0.3681800000000000  -9.6891623706602701   3.4382932159738537  -3.1132553321431531  0 0 0
3         0    5   -0.3717970000000000  -10.1118530966037170  4.5123293136866263  -3.4986573717217229  0 0 0
4         0    2    0.4025730000000000  -8.3778728337702333   2.0137200702962224  -3.1135926107425336  0 0 0
5         0    1    0.0575970000000000  -10.1869477487838811  2.8034446019047357  -2.3635987466049126  0 0 0
6         1    4   -0.4565530000000000   8.9499582440300696  -15.7609377343013239  21.0349395640137899 0 0 0
7         1    3    0.3681800000000000   9.3161537961599876  -15.5175418283697404  22.3075818499590639 0 0 0
8         1    5   -0.3717970000000000   8.5614474387100294  -15.1175331389332523  23.1742808077869356 0 0 0
9         1    2    0.4025730000000000   9.7005674756925444  -16.0671948721845546  20.4912678173332772 0 0 0
10        1    1    0.0575970000000000   10.3864707756716186 -15.7277886433182363  22.4593246648568829 0 0 0
11        2    4   -0.4565530000000000   3.9072768694802456  -22.1400137683167344 -9.9034930589103141  0 0 0
12        2    3    0.3681800000000000   2.8606012367367772  -22.0261050156673406 -9.0641754472215545  0 0 0
13        2    5   -0.3717970000000000   2.5382900770414887  -22.8715593639013974 -8.2504935791133818  0 0 0
14        2    2    0.4025730000000000   3.9956603835292190  -21.3608042421024287 -10.4847051458469434 0 0 0
15        2    1    0.0575970000000000   2.3363706766336803  -21.0689123139620520 -9.2117304991720754  0 0 0
16        3    4   -0.4565530000000000  -16.2813513703340114 -8.7114980934163544  -9.1087687440199083  0 0 0
17        3    3    0.3681800000000000  -15.3126438914394765 -9.6371505315594508  -9.2419322581427181  0 0 0
18        3    5   -0.3717970000000000  -14.5886374778774393 -10.0078715905489659 -8.3368707515904106  0 0 0
19        3    2    0.4025730000000000  -16.7456836455486702 -8.5451963857525914  -9.9511023486695702  0 0 0
20        3    1    0.0575970000000000  -15.2626798319075085 -10.0128811289869066 -10.2759236278416584 0 0 0
21        4    4   -0.4565530000000000  -22.0034774404811664 -21.1238050361304204  8.8040305254109086  0 0 0
22        4    3    0.3681800000000000  -22.0844900091147061 -22.1273459908332448  9.6980672435369275  0 0 0
23        4    5   -0.3717970000000000  -23.0272631032802266 -22.3050879209573445  10.4466274751104038 0 0 0
24        4    2    0.4025730000000000  -21.1655971388696926 -21.1472218763994171  8.3038356903083503  0 0 0
25        4    1    0.0575970000000000  -21.1865670122041614 -22.7639338796295227  9.6620367958976647  0 0 0
26        5    4   -0.4565530000000000  -2.3267569222962945   9.2324359871801853   22.4184087688596385 0 0 0
27        5    3    0.3681800000000000  -3.3508702595037176   9.2458877028060744   21.5443549597033588 0 0 0
28        5    5   -0.3717970000000000  -3.4496222645567904   8.4956527516548679   20.5913852431492863 0 0 0
29        5    2    0.4025730000000000  -2.4259348495678186   9.9165697112259021   23.1075469318323883 0 0 0
30        5    1    0.0575970000000000  -4.0850149474968074   10.0240515773972181  21.8056988004052741 0 0 0
31        6    4   -0.4565530000000000   16.2426833767860685 -16.2816554098116946 -9.7831359651472347  0 0 0
32        6    3    0.3681800000000000   15.2178277499672401 -15.5522400665624794 -9.3029450254051085  0 0 0
33        6    5   -0.3717970000000000   14.0467238716496752 -15.8692414946351388 -9.3966548001858659  0 0 0
34        6    2    0.4025730000000000   17.1044391389292940 -15.8547147089555835 -9.6161471461639358  0 0 0
35        6    1    0.0575970000000000   15.5793220797748102 -14.6331445371422166 -8.8157147933621243  0 0 0
36        7    4   -0.4565530000000000  -15.4595725635196164 -22.6147875073426299 -10.0053474926563482 0 0 0
37        7    3    0.3681800000000000  -15.6055834715244153 -21.7729443649707761 -8.9647034248862436  0 0 0
38        7    5   -0.3717970000000000  -15.2802620160824620 -22.0324672578143996 -7.8212133550477629  0 0 0
39        7    2    0.4025730000000000  -15.7880942437729139 -22.2260725229608731 -10.8382705310102150 0 0 0
40        7    1    0.0575970000000000  -16.0574839222076982 -20.8211230508612708 -9.2850629266636950  0 0 0
41        8    4   -0.4565530000000000  -22.6694785547305528 -15.2069769745098018  22.2826858801253813 0 0 0
42        8    3    0.3681800000000000  -21.4720289368104531 -15.7307771923723703  21.9591014526413737 0 0 0
43        8    5   -0.3717970000000000  -20.4794998812871789 -15.6583960516014535  22.6593890831924085 0 0 0
44        8    2    0.4025730000000000  -23.3362439059047517 -15.3630757879337096  21.5870971020235558 0 0 0
45        8    1    0.0575970000000000  -21.5101434252170129 -16.2317702106897777  20.9791211859672337 0 0 0
46        9    4   -0.4565530000000000   3.6955901563420857   2.8773761779670717   3.8722274062076170  0 0 0
47        9    3    0.3681800000000000   3.0582126750593095   3.0656538844769097   2.7012190420252602  0 0 0
48        9    5   -0.3717970000000000   3.3761071444004984   2.5342471747175725   1.6536954211531365  0 0 0
49        9    2    0.4025730000000000   3.2947697202453838   3.3982279861372957   4.5939219352384617  0 0 0
50        9    1    0.0575970000000000   2.2135195473741320   3.7626940201225567   2.8171354387969352  0 0 0
51        10   4   -0.4565530000000000   3.5087009151750270   14.7631706790290700  15.8076913163051156 0 0 0
52        10   3    0.3681800000000000   3.2087558130962051   16.0667653107444544  15.6539606775183771 0 0 0
53        10   5   -0.3717970000000000   3.9683550116251385   16.9810569749176103  15.9144132288932525 0 0 0
54        10   2    0.4025730000000000   2.7649512416793010   14.1848473178845893  15.5524166907945744 0 0 0
55        10   1    0.0575970000000000   2.1874362618457424   16.1951559345313711  15.2625143035957684 0 0 0
56        11   4   -0.4565530000000000   15.8799469617777813  14.7040239219148283 -21.9855908131277218 0 0 0
57        11   3    0.3681800000000000   15.5927330894642555  16.0134359271165536 -22.1117158684668240 0 0 0
58        11   5   -0.3717970000000000   15.6658339467683767  16.6345770873916479 -23.1555528503627066 0 0 0
59        11   2    0.4025730000000000   15.7685061380526399  14.3926247011984128 -21.0672237354051646 0 0 0
60        11   1    0.0575970000000000   15.2839760810440346  16.4463345794856508 -21.1473114365875361 0 0 0
61        12   4   -0.4565530000000000  -15.7149871975581448  22.1912339050603755  22.8127480412278594 0 0 0
62        12   3    0.3681800000000000  -15.7777506454460408  21.9671583079346071  21.4865466938518352 0 0 0
63        12   5   -0.3717970000000000  -16.4731518390529104  22.6017379451260574  20.7155203745266761 0 0 0
64        12   2    0.4025730000000000  -15.1069735444441573  21.5717972302927556  23.2592950430986747 0 0 0
65        12   1    0.0575970000000000  -15.1181329906058561  21.1354673155361574  21.1932845512449006 0 0 0
66        13   4   -0.4565530000000000   15.8614636436482321 -10.3253598356592597 -21.9330945410753095 0 0 0
67        13   3    0.3681800000000000   15.7789899229727997 -8.9930297897352158  -21.7568734540113198 0 0 0
68        13   5   -0.3717970000000000   16.6259977770931933 -8.3209173086319090  -21.1986636109383824 0 0 0
69        13   2    0.4025730000000000   15.0789056275416726 -10.6816510970421721 -22.3950968243916790 0 0 0
70        13   1    0.0575970000000000   14.8456392458511974 -8.5936396991957071  -22.1836662735332588 0 0 0
71        14   4   -0.4565530000000000  -3.8022327971906540   8.6877568634979916  -15.6740222287329178 0 0 0
72        14   3    0.3681800000000000  -2.9804438641287834   9.7415577559731172  -15.8387212448674646 0 0 0
73        14   5   -0.3717970000000000  -3.0642458997638826   10.5409310990435223 -16.7523596844658940 0 0 0
74        14   2    0.4025730000000000  -3.5668707014052492   8.1607698904466286  -14.8868271859375092 0 0 0
75        14   1    0.0575970000000000  -2.2244059809328598   9.7835821213029988  -15.0390658731033255 0 0 0
76        15   4   -0.4565530000000000  -3.0094012515761732  -15.1225770707393092  21.0812206709887562 0 0 0
77        15   3    0.3681800000000000  -3.3599232666893881  -15.9594433500202797  22.0760816084686731 0 0 0
78        15   5   -0.3717970000000000  -4.2460825963347837  -16.7893937350387112  21.9944744887414494 0 0 0
79        15   2    0.4025730000000000  -2.2828547258649534  -14.5263239524995935  21.3446575443880064 0 0 0
80        15   1    0.0575970000000000  -2.7399374029561323  -15.7932581088092210  22.9709603913630644 0 0 0
81        16   4   -0.4565530000000000   22.7747573353729535 -3.5001471572752245  -9.5384727008123082  0 0 0
82        16   3    0.3681800000000000   21.6664277158432377 -2.8538761107896486  -9.1299407848650045  0 0 0
83        16   5   -0.3717970000000000   21.6309674822607469 -2.0761613032662476  -8.1947092781817101  0 0 0
84        16   2    0.4025730000000000   22.5965156285411233 -4.0858984602923449  -10.2986778877581902 0 0 0
85        16   1    0.0575970000000000   20.7987265419318845 -3.1221162117979588  -9.7527970786470544  0 0 0
86        17   4   -0.4565530000000000   9.5614847285828262   2.6584830534067718  -2.2984134232123390  0 0 0
87        17   3    0.3681800000000000   9.5607060003913737   3.3849144072990986  -3.4321047476320796  0 0 0
88        17   5   -0.3717970000000000   10.5215721988258579  4.0020909302323240  -3.8523249391342342  0 0 0
89        17   2    0.4025730000000000   8.6932218026365380   2.2461648491310235  -2.1284139786543772  0 0 0
90        17   1    0.0575970000000000   8.5776129998276573   3.3465460033521945  -3.9269421547884034  0 0 0
91        18   4   -0.4565530000000000  -9.5206336923437682   20.9757879766101389  9.1027620977456056  0 0 0
92        18   3    0.3681800000000000  -9.3728744412271787   22.3067573223103253  9.2429296471851945  0 0 0
93        18   5   -0.3717970000000000  -9.4683652343591991   23.1075460774756749  8.3316807244819966  0 0 0
94        18   2    0.4025730000000000  -9.3982130391685814   20.5038116733362656  9.9483613965414897  0 0 0
95        18   1    0.0575970000000000  -9.1545113231655417   22.5734916542175519  10.2888638643099632 0 0 0
96        19   4   -0.4565530000000000   8.4613784256232041   9.2450945305344732  -15.3710357801210691 0 0 0
97        19   3    0.3681800000000000   9.7230824453185445   9.6541056975442743  -15.6029236179779094 0 0 0
98        19   5   -0.3717970000000000   10.2005076248861499  10.6861152346836832 -15.1695909117715431 0 0 0
99        19   2    0.4025730000000000   8.2657457648926851   8.3966190580327265  -15.8121750505543819 0 0 0
100       19   1    0.0575970000000000   10.2638834695436731  8.9326632094690979  -16.2352708566822059 0 0 0
101       20   4   -0.4565530000000000   8.5779883899786391   21.6247266252010313 -21.4250046997536074 0 0 0
102       20   3    0.3681800000000000   9.5360761620124777   22.1486323698317058 -22.2127544882158041 0 0 0
103       20   5   -0.3717970000000000   9.3301634562486324   22.9577182995993745 -23.0980429366646618 0 0 0
104       20   2    0.4025730000000000   8.9424222644330982   20.9877929479162795 -20.7813510171022671 0 0 0
105       20   1    0.0575970000000000   10.5279474575914076  21.7485244614015620 -21.9502415622136162 0 0 0
106       21   4   -0.4565530000000000   22.6189320102381899 -3.6293181967011869   15.2361460543689891 0 0 0
107       21   3    0.3681800000000000   21.4639735618569993 -3.0525280246524473   15.6186943746383733 0 0 0
108       21   5   -0.3717970000000000   20.3860535593350889 -3.2609298803210902   15.0938964556095208 0 0 0
109       21   2    0.4025730000000000   23.3742927004691943 -3.3265454587625198   15.7751687979660105 0 0 0
110       21   1    0.0575970000000000   21.6241428720504700 -2.3688776829841811   16.4670905345241962 0 0 0
111       22   4   -0.4565530000000000   3.6374180067308197   8.9666661657068154  -22.6051456047536661 0 0 0
112       22   3    0.3681800000000000   3.0473852224562124   9.3716329448468159  -21.4646096085333973 0 0 0
113       22   5   -0.3717970000000000   3.2422395554449870   8.8671249621340849  -20.3745365809822090 0 0 0
114       22   2    0.4025730000000000   3.3443704152825822   9.4916059669001172  -23.3741371102786104 0 0 0
115       22   1    0.0575970000000000   2.3667860435068064   10.2175676906764181 -21.6489657994020561 0 0 0
116       23   4   -0.4565530000000000  -15.7684234895841353  10.2766498211811061 -21.5414875649034023 0 0 0
117       23   3    0.3681800000000000  -15.8252222591235210  8.9910414063590789  -21.9376491997415535 0 0 0
118       23   5   -0.3717970000000000  -16.7728724225818304  8.2535161205370517  -21.7407448027094894 0 0 0
119       23   2    0.4025730000000000  -14.9219047985511377  10.6968565097620552 -21.7856577225877750 0 0 0
120       23   1    0.0575970000000000  -14.9025732472664902  8.6965338724249488  -22.4618554140077329 0 0 0
121       24   4   -0.4565530000000000   15.9812939040842892  15.8319596164764000  14.7525621510826710 0 0 0
122       24   3    0.3681800000000000   15.3019989927562410  15.4641467473648042  15.8553909021404866 0 0 0
123       24   5   -0.3717970000000000   14.2100530648589203  14.9272863252629531  15.8415815274599989 0 0 0
124       24   2    0.4025730000000000   16.8333513841036684  16.2543348791578168  14.9725253514545305 0 0 0
125       24   1    0.0575970000000000   15.8642988713039657  15.7132686488451121  16.7689362849694135 0 0 0
126       25   4   -0.4565530000000000   8.7595813869446424  -14.9825521306468978 -15.2900807426518881 0 0 0
127       25   3    0.3681800000000000   9.6734820715708079  -15.7146038131086758 -15.9547949746679727 0 0 0
128       25   5   -0.3717970000000000   10.2535957320539577 -15.3420855643407403 -16.9575182746643840 0 0 0
129       25   2    0.4025730000000000   8.4023947109548889  -15.4591667111661000 -14.5167484457497764 0 0 0
130       25   1    0.0575970000000000   9.8255438287399635  -16.6925879978446972 -15.4718537793730935 0 0 0
131       26   4   -0.4565530000000000  -16.3587439543795767  2.6141857824302064   22.2894465266166470 0 0 0
132       26   3    0.3681800000000000  -15.5293394090681538  3.5214384585287664   21.7399560177552296 0 0 0
133       26   5   -0.3717970000000000  -15.8379599993214271  4.6722434954864083   21.4926569694662710 0 0 0
134       26   2    0.4025730000000000  -15.9275046003518490  1.7456243901424444   22.4008931446222803 0 0 0
135       26   1    0.0575970000000000  -14.5374482539860974  3.0847071168335951   21.5444420454895180 0 0 0
136       27   4   -0.4565530000000000   21.5092597010349138  9.6436137133546733   14.7873031189709376 0 0 0
137       27   3    0.3681800000000000   22.0547094933079535  9.0455159299125789   15.8632783523991883 0 0 0
138       27   5   -0.3717970000000000   22.3302188232486856  7.8618284122460453   15.9243863775352583 0 0 0
139       27   2    0.4025730000000000   21.3555444284689386  10.5957490204028044  14.9376247519860463 0 0 0
140       27   1    0.0575970000000000   22.2176622578894651  9.7678906543481414   16.6784036162156681 0 0 0
141       28   4   -0.4565530000000000  -15.7047735666419150 -9.9478142214742267  -3.9125423603609413  0 0 0
142       28   3    0.3681800000000000  -15.4031933901930049 -9.3059144330209218  -2.7680017555082030  0 0 0
143       28   5   -0.3717970000000000  -14.4616067647873638 -9.5879513881254095  -2.0506277220273486  0 0 0
144       28   2    0.4025730000000000  -16.5013720079774124 -9.5787166664300454  -4.3391388200535443  0 0 0
145       28   1    0.0575970000000000  -16.1200504875074060 -8.4942010212136605  -2.5678885854713829  0 0 0
146       29   4   -0.4565530000000000   8.4417508056094093   15.7762689957941262 -15.8246080231498851 0 0 0
147       29   3    0.3681800000000000   9.7489309625983616   15.8368025968596964 -15.5074726297980874 0 0 0
148       29   5   -0.3717970000000000   10.3224484846372508  16.8491442841017012 -15.1511052894225067 0 0 0
149       29   2    0.4025730000000000   8.1727692564890049   14.8775793310988398 -16.0944087535096472 0 0 0
150       29   1    0.0575970000000000   10.2286982209302337  14.8512010092527333 -15.6134015212269759 0 0 0
151       30   4   -0.4565530000000000  -2.3824960878314343  -15.6679702400687422  16.2574605381013804 0 0 0
152       30   3    0.3681800000000000  -3.5356618126010906  -15.4927168636312711  15.5848133775009909 0 0 0
153       30   5   -0.3717970000000000  -4.5042126764747010  -14.9023539814820385  16.0254227425513918 0 0 0
154       30   2    0.4025730000000000  -1.7298596470765217  -16.1743813181404477  15.7374604251158008 0 0 0
155       30   1    0.0575970000000000  -3.4859690194376913  -15.9535738137846028  14.5858391338375277 0 0 0
156       31   4   -0.4565530000000000   14.9489455704778766 -21.9343280064401256  10.0632656460911747 0 0 0
157       31   3    0.3681800000000000   16.0258669056003420 -22.0550274690114492  9.2641215945628730  0 0 0
158       31   5   -0.3717970000000000   16.9675055256206662 -22.7924883179124542  9.4882285483247095  0 0 0
159       31   2    0.4025730000000000   14.3071463484078922 -21.2862369155497468  9.7156188170262698  0 0 0
160       31   1    0.0575970000000000   15.9415318670003252 -21.3993139950361844  8.3833631242592244  0 0 0
161       32   4   -0.4565530000000000  -21.5659926354614235 -22.3568216971138547 -2.3417159989046410  0 0 0
162       32   3    0.3681800000000000  -22.1667159345984288 -21.9246091141124566 -3.4665639612396579  0 0 0
163       32   5   -0.3717970000000000  -22.9909748437182202 -22.5637181839866585 -4.0933753911299977  0 0 0
164       32   2    0.4025730000000000  -20.9299634650835173 -21.7034620595523542 -1.9933272796069379  0 0 0
165       32   1    0.0575970000000000  -21.8137478250883738 -20.9187836491846326 -3.7432166125402020  0 0 0
166       33   4   -0.4565530000000000  -2.9713621445523204   20.9447278591448587 -15.7609133499309966 0 0 0
167       33   3    0.3681800000000000  -3.4380532517993654   22.1946033697014116 -15.5793375918366106 0 0 0
168       33   5   -0.3717970000000000  -4.6161478877024589   22.4775485743404033 -15.4662413446480063 0 0 0
169       33   2    0.4025730000000000  -1.9984386449338933   20.9258218683271124 -15.8373924235487458 0 0 0
170       33   1    0.0575970000000000  -2.6141973144334072   22.9246930324361742 -15.5471115071427466 0 0 0
171       34   4   -0.4565530000000000  -15.9528365295306500  16.5313088179400474  22.1007679992590340 0 0 0
172       34   3    0.3681800000000000  -15.4592005055245760  15.3914739682763333  21.5810958634891783 0 0 0
173       34   5   -0.3717970000000000  -15.0315273980208630  15.2830980356478889  20.4470296875342576 0 0 0
174       34   2    0.4025730000000000  -16.2533547010397506  16.4124965839501762  23.0218321137196718 0 0 0
175       34   1    0.0575970000000000  -15.4940770829912626  14.5726188112926405  22.3166690399477972 0 0 0
176       35   4   -0.4565530000000000   21.1014499310784345  2.6138956927355763  -15.4182740796226962 0 0 0
177       35   3    0.3681800000000000   22.3298609439675637  3.1194042235675110  -15.6383346305373898 0 0 0
178       35   5   -0.3717970000000000   23.3673899952744506  2.5330026094109583  -15.3925250788336232 0 0 0
179       35   2    0.4025730000000000   20.3977626346282541  3.2405928680606042  -15.6729532121684585 0 0 0
180       35   1    0.0575970000000000   22.2709311990012608  4.1313038496467582  -16.0689092159449416 0 0 0
181       36   4   -0.4565530000000000   21.8246682320682410 -22.8243774721290080  2.8662912340254625  0 0 0
182       36   3    0.3681800000000000   22.0878258091367492 -21.5144011786427960  3.0326322618436019  0 0 0
183       36   5   -0.3717970000000000   22.8636419569281593 -20.8775487484918401  2.3446758619628350  0 0 0
184       36   2    0.4025730000000000   21.1818351459400809 -23.1538556741913126  3.5227943635265575  0 0 0
185       36   1    0.0575970000000000   21.5094235598767263 -21.0972116304949822  3.8718055220629495  0 0 0
186       37   4   -0.4565530000000000   2.4684768349389534   21.1848484773299184  9.4372985423156983  0 0 0
187       37   3    0.3681800000000000   3.2172154999994409   22.2776314385075018  9.1961037069575866  0 0 0
188       37   5   -0.3717970000000000   2.8986150112101940   23.1739782277371908  8.4372810115399623  0 0 0
189       37   2    0.4025730000000000   2.9001944787992842   20.5786138591501846  10.0688728332745310 0 0 0
190       37   1    0.0575970000000000   4.1536974184735387   22.2523227012251610  9.7750416361764660  0 0 0
191       38   4   -0.4565530000000000   10.0327430766926220 -9.6987694836333400  -21.2472759667754154 0 0 0
192       38   3    0.3681800000000000   8.9555964738864056  -9.3495791776532098  -21.9758227831657997 0 0 0
193       38   5   -0.3717970000000000   7.8041247807943233  -9.5546135356428366  -21.6399216471876308 0 0 0
194       38   2    0.4025730000000000   10.8677409861247689 -9.4562626609276208  -21.6908473291119819 0 0 0
195       38   1    0.0575970000000000   9.2543924127661228  -8.8553728724072638  -22.9135269777091217 0 0 0
196       39   4   -0.4565530000000000  -22.7405632446034964  15.2027552175954561  9.2027896754780834  0 0 0
197       39   3    0.3681800000000000  -21.5403089912857268  15.6292306682970707  9.6392155623609472  0 0 0
198       39   5   -0.3717970000000000  -20.9275343468522443  15.1264143090808822  10.5624916127077455 0 0 0
199       39   2    0.4025730000000000  -23.0709492391804751  15.7413261759869005  8.4587647843187241  0 0 0
200       39   1    0.0575970000000000  -21.1880388820280032  16.4912698461467819  9.0513360953987601  0 0 0
201       40   4   -0.4565530000000000   15.8537809515928814  21.6630846618855095  4.0441839507426467  0 0 0
202       40   3    0.3681800000000000   15.4060634173573128  21.7709611783909160  2.7789287179438582  0 0 0
203       40   5   -0.3717970000000000   14.6396926567044119  20.9856562272099687  2.2528795643783699  0 0 0
204       40   2    0.4025730000000000   16.4668171648438069  22.3859813990927279  4.2774081559146584  0 0 0
205       40   1    0.0575970000000000   15.8246420266086751  22.6617112373708203  2.2847988544418723  0 0 0
206       41   4   -0.4565530000000000  -2.4241725925903470   3.7566333588099972   21.6718687616658983 0 0 0
207       41   3    0.3681800000000000  -3.2127844575079307   2.7530572831236300   22.1006875161778673 0 0 0
208       41   5   -0.3717970000000000  -2.8209283137216712   1.8026477459240229   22.7517836652042398 0 0 0
209       41   2    0.4025730000000000  -2.9237791715929857   4.4196950182754939   21.1585178843274697 0 0 0
210       41   1    0.0575970000000000  -4.2565347080084912   2.9061658372882584   21.7845368765744780 0 0 0
211       42   4   -0.4565530000000000  -2.1718580888807719   9.3718790498134581  -22.0546292517971416 0 0 0
212       42   3    0.3681800000000000  -3.4394618847796421   9.2563652176689502  -21.6155434872748771 0 0 0
213       42   5   -0.3717970000000000  -3.7609933573881573   8.6872396627957773  -20.5891569440990203 0 0 0
214       42   2    0.4025730000000000  -2.1213316631327701   9.8552811474746154  -22.9011256272045713 0 0 0
215       42   1    0.0575970000000000  -4.1445542492400911   9.7438326525114434  -22.3069393935743356 0 0 0
216       43   4   -0.4565530000000000  -3.3151111376290503  -15.7997590024811316  10.3201297934050498 0 0 0
217       43   3    0.3681800000000000  -3.2363472916862643  -15.7551482119491730  8.9767142689523780  0 0 0
218       43   5   -0.3717970000000000  -3.9031783090426058  -16.4436032789561359  8.2269664872924864  0 0 0
219       43   2    0.4025730000000000  -2.6933844192254948  -15.1774335052674658  10.7431587338345444 0 0 0
220       43   1    0.0575970000000000  -2.4901780858380138  -15.0150522184532100  8.6476284467797875  0 0 0
221       44   4   -0.4565530000000000   2.5545514936695013   21.9820442844325576  14.8614521771765951 0 0 0
222       44   3    0.3681800000000000   3.2006793768517059   22.0445892135410766  16.0410987462036587 0 0 0
223       44   5   -0.3717970000000000   2.9048992710705632   22.8022447809015638  16.9462108339429278 0 0 0
224       44   2    0.4025730000000000   2.9478859743958825   21.3173858137434138  14.2645403537781377 0 0 0
225       44   1    0.0575970000000000   4.0301831274337605   21.3211306113313483  16.0776941060057759 0 0 0
226       45   4   -0.4565530000000000  -3.3043301401369103  -10.2710657065945199 -22.2392925120816578 0 0 0
227       45   3    0.3681800000000000  -2.8515681538134570  -9.0454792476975037  -21.9138642513101871 0 0 0
228       45   5   -0.3717970000000000  -1.8398712178346175  -8.5446720440011141  -22.3681958213741829 0 0 0
229       45   2    0.4025730000000000  -4.1258787056231210  -10.4953204707094923 -21.7622659125934526 0 0 0
230       45   1    0.0575970000000000  -3.5165510260133113  -8.5580602612616392  -21.1837762065904691 0 0 0
231       46   4   -0.4565530000000000  -10.0057566939151741  8.6454043066420478   15.7262631210760500 0 0 0
232       46   3    0.3681800000000000  -9.2073336966901760   9.7226875361490670   15.8484952703871436 0 0 0
233       46   5   -0.3717970000000000  -9.1253993135595586   10.4057805321876149  16.8522016202345846 0 0 0
234       46   2    0.4025730000000000  -9.9359934823865093   8.2377104887798893   14.8421220313770270 0 0 0
235       46   1    0.0575970000000000  -8.6401145437128566   9.9030148665056430   14.9219141740322936 0 0 0
236       47   4   -0.4565530000000000   21.4203610387530645 -15.1889924035139874 -22.6104048459019253 0 0 0
237       47   3    0.3681800000000000   22.2673335085099104 -15.6452155086644016 -21.6683553508110691 0 0 0
238       47   5   -0.3717970000000000   23.3816046387805798 -15.1971740874628320 -21.4723592941339376 0 0 0
239       47   2    0.4025730000000000   20.5791511671628946 -15.6840931809180812 -22.6156767955510638 0 0 0
240       47   1    0.0575970000000000   21.8189443507435108 -16.4755210365478071 -21.1005984175519572 0 0 0
241       48   4   -0.4565530000000000   9.9777213997343281  -22.6184628795401181 -2.8822439826240709  0 0 0
242       48   3    0.3681800000000000   9.0201452111127871  -21.6806816410921819 -3.0109814255073815  0 0 0
243       48   5   -0.3717970000000000   8.0836495920874558  -21.5465879382607532 -2.2456380022604696  0 0 0
244       48   2    0.4025730000000000   10.6365469729072100 -22.5685514353047907 -3.6007454322870198  0 0 0
245       48   1    0.0575970000000000   9.1965345544224597  -21.0531108097521127 -3.8985904007424841  0 0 0
246       49   4   -0.4565530000000000   16.4368623528333764 -9.7141517473237968  -15.1999840517933347 0 0 0
247       49   3    0.3681800000000000   15.2695330583659938 -9.5047789091725470  -15.8375297131563517 0 0 0
248       49   5   -0.3717970000000000   14.5375493585924414 -10.3907540116352841 -16.2375343408570174 0 0 0
249       49   2    0.4025730000000000   16.8810508056868755 -8.8767113983713060  -14.9672247306095443 0 0 0
250       49   1    0.0575970000000000   15.0660006416284080 -8.4282016637613442  -15.9487233806908701 0 0 0
251       50   4   -0.4565530000000000  -3.5628934710043194   22.7496755826599788 -21.7627437795828520 0 0 0
252       50   3    0.3681800000000000  -3.1876258710810168   21.4864679103456950 -22.0392211610341526 0 0 0
253       50   5   -0.3717970000000000  -3.9202832189682075   20.6428278971827446 -22.5211344933640518 0 0 0
254       50   2    0.4025730000000000  -2.8348282028039291   23.2697015189982785 -21.3725122943388222 0 0 0
255       50   1    0.0575970000000000  -2.1325684795639668   21.3187217947632490 -21.7717829756300638 0 0 0
256       51   4   -0.4565530000000000  -15.3899369721248060  8.6018652307919936   3.6452594859963257  0 0 0
257       51   3    0.3681800000000000  -15.7091947371666816  9.8129351701460852   3.1509486335427539  0 0 0
258       51   5   -0.3717970000000000  -15.7585540781390581  10.8329610102361595  3.8126635737604393  0 0 0
259       51   2    0.4025730000000000  -15.4139838879913516  7.9091194469636230   2.9580101526933986  0 0 0
260       51   1    0.0575970000000000  -15.9193265416852210  9.7577168721263927   2.0713173974285040  0 0 0
261       52   4   -0.4565530000000000   4.0276943678598451   21.6335240142538510  2.8787716378793506  0 0 0
262       52   3    0.3681800000000000   2.7051920659555848   21.8015805582978892  3.0677261214512965  0 0 0
263       52   5   -0.3717970000000000   1.8444568217184001   21.1287761313731579  2.5317925774941887  0 0 0
264       52   2    0.4025730000000000   4.5542306899749887   22.2768485765496109  3.3903179508759531  0 0 0
265       52   1    0.0575970000000000   2.5066252979125894   22.6266654234754405  3.7695909557206084  0 0 0
266       53   4   -0.4565530000000000  -2.9631197519919690  -15.4793613244626869 -4.0696131715301185  0 0 0
267       53   3    0.3681800000000000  -3.4098116830385914  -15.5667467762504472 -2.8024157761122925  0 0 0
268       53   5   -0.3717970000000000  -4.4511444062342367  -15.0771677045704653 -2.4065695770969477  0 0 0
269       53   2    0.4025730000000000  -2.1047803229665867  -15.9293556030060657 -4.1859969984073793  0 0 0
270       53   1    0.0575970000000000  -2.7093430791900488  -16.1383648088174319 -2.1736037202746901  0 0 0
271       54   4   -0.4565530000000000  -9.1564353493557498   22.8349465641876606 -21.8492781443218576 0 0 0