LAMMPS data file via vdw_self_gen.py, on 2021-08-05 13:23:37.193676

4000 atoms
5 atom types
3500 bonds
4 bond types
6000 angles
6 angle types
4500 dihedrals
2 dihedral types

-33.5506110035642067  33.5506110035641996 xlo xhi
-33.5506110035642067  33.5506110035641996 ylo yhi
-33.5506110035642067  33.5506110035641996 zlo zhi

Masses

1  35.452700
2  1.007940
3  1.007940
4  12.011000
5  12.011000

Atoms

1         0    4   -0.0761660000000000   11.1890123629443110 -25.9384151088251791  10.3822747992028859 0 0 0
2         0    5    0.4189270000000000   11.2673169912267372 -26.1268017509171031  11.8864351652446452 0 0 0
3         0    1   -0.2033700000000000   9.6652554921482707  -25.8910066776231282  12.6222159549372996 0 0 0
4         0    1   -0.2033700000000000   11.8789934165638442 -27.7513757109153261  12.2739739062532145 0 0 0
5         0    3    0.0285690000000000   10.8331650514676738 -24.9327330304512245  10.1332261096815550 0 0 0
6         0    3    0.0285690000000000   10.5088531227351165 -26.6607025670056643  9.9171222776433154  0 0 0
7         0    3    0.0285690000000000   12.1755522619582539 -26.0608325309720676  9.9220568679915182  0 0 0
8         0    2   -0.0217280000000000   11.9501473104603342 -25.3974899788009232  12.3309909285501078 0 0 0
9         1    4   -0.0761660000000000   19.1515888277267230 -11.7516101673788071 -25.8097453769834466 0 0 0
10        1    5    0.4189270000000000   18.2513720838606623 -10.6104203766944813 -26.2472556330930047 0 0 0
11        1    1   -0.2033700000000000   18.5582980168848124 -10.2003637952366102 -27.9505535534640543 0 0 0
12        1    1   -0.2033700000000000   16.5427190134331603 -11.0536612456089856 -26.0290422200254881 0 0 0
13        1    3    0.0285690000000000   20.2070924087274975 -11.4801565682305267 -25.9205340749809885 0 0 0
14        1    3    0.0285690000000000   18.9737894803721652 -12.6582580302541050 -26.3988630879919910 0 0 0
15        1    3    0.0285690000000000   18.9848732551952502 -11.9975816005851676 -24.7553490977212718 0 0 0
16        1    2   -0.0217280000000000   18.4440935963072761 -9.7162442255158741  -25.6480143112503711 0 0 0
17        2    4   -0.0761660000000000   18.3166083268571782  3.9454972673284359  -19.3569252660960807 0 0 0
18        2    5    0.4189270000000000   18.7899211108787760  3.5111213693999122  -17.9816390645072950 0 0 0
19        2    1   -0.2033700000000000   19.9127530276519451  2.1386831746480870  -18.1203316099517195 0 0 0
20        2    1   -0.2033700000000000   19.5873078100900422  4.8645460435193266  -17.1473783258855441 0 0 0
21        2    3    0.0285690000000000   17.8050626220901336  3.1242530187894992  -19.8706643806047083 0 0 0
22        2    3    0.0285690000000000   19.1500635970141317  4.2708122546680469  -19.9895429265038693 0 0 0
23        2    3    0.0285690000000000   17.6077105148450386  4.7771807917799833  -19.2806760098357159 0 0 0
24        2    2   -0.0217280000000000   17.9443996730803086  3.1906714163682168  -17.3666690991226460 0 0 0
25        3    4   -0.0761660000000000   25.6539594151229657 -19.2297811742402764 -10.8323302644096771 0 0 0
26        3    5    0.4189270000000000   26.3744069578715710 -18.1210631222261114 -11.5778630723969655 0 0 0
27        3    1   -0.2033700000000000   26.6120101757914576 -16.7153324677201631 -10.5143595360998852 0 0 0
28        3    1   -0.2033700000000000   27.9457865526857390 -18.7000868972275107 -12.1770896685897423 0 0 0
29        3    3    0.0285690000000000   24.6752198914765799 -18.8890039175545574 -10.4773812430302566 0 0 0
30        3    3    0.0285690000000000   26.2260037228363032 -19.5734570363373663 -9.9632302446049472  0 0 0
31        3    3    0.0285690000000000   25.4840002394478731 -20.0925338702307599 -11.4856442822946434 0 0 0
32        3    2   -0.0217280000000000   25.7879704002781267 -17.7925681969708300 -12.4403976980784385 0 0 0
33        4    4   -0.0761660000000000   11.3916180144433490  25.3850063268499717 -11.5288920523258032 0 0 0
34        4    5    0.4189270000000000   11.0634285623365400  26.7667764182720553 -10.9930537871027649 0 0 0
35        4    1   -0.2033700000000000   9.3026825006208718   26.9679260261770857 -10.8417730041446383 0 0 0
36        4    1   -0.2033700000000000   11.8399006200595256  27.0162591824573859 -9.4124132933313724  0 0 0
37        4    3    0.0285690000000000   10.9349728083419571  25.2295717311197016 -12.5124388197928074 0 0 0
38        4    3    0.0285690000000000   11.0308380889637672  24.5941736221754610 -10.8617308190484643 0 0 0
39        4    3    0.0285690000000000   12.4735130078163845  25.2588830426795248 -11.6456982264110049 0 0 0
40        4    2   -0.0217280000000000   11.4313424069221448  27.5407610057794336 -11.6722960073477040 0 0 0
41        5    4   -0.0761660000000000   17.8556399776827348 -11.2130136301948582  10.9562372265788994 0 0 0
42        5    5    0.4189270000000000   19.2850150621367007 -11.2601532712698091  11.4649456604401241 0 0 0
43        5    1   -0.2033700000000000   20.4020024194426703 -11.6372207059373913  10.1331299347363615 0 0 0
44        5    1   -0.2033700000000000   19.7281439028570418 -9.7049569618154941   12.2056049250021186 0 0 0
45        5    3    0.0285690000000000   17.5661603581023442 -12.1739024458077267  10.5169841839284253 0 0 0
46        5    3    0.0285690000000000   17.7217097235248957 -10.4396277129741097  10.1916330527308663 0 0 0
47        5    3    0.0285690000000000   17.1575393611057834 -11.0022068115342257  11.7737111137098971 0 0 0
48        5    2   -0.0217280000000000   19.3976158776553795 -12.0372144699709462  12.2260499123778494 0 0 0
49        6    4   -0.0761660000000000  -18.4645626971739638 -10.4058145239852919  25.9183285124793770 0 0 0
50        6    5    0.4189270000000000  -18.7662662244015195 -11.8208801750876340  26.3773314898430904 0 0 0
51        6    1   -0.2033700000000000  -20.4373630947551135 -12.2626675442962672  25.9580071473561027 0 0 0
52        6    1   -0.2033700000000000  -17.6305359094775298 -12.9675673143384049  25.6298021372156946 0 0 0
53        6    3    0.0285690000000000  -19.1457690516840522 -9.6892504541609323   26.3900729750985263 0 0 0
54        6    3    0.0285690000000000  -18.5651611757457431 -10.3007297734213950  24.8322715278289543 0 0 0
55        6    3    0.0285690000000000  -17.4437430149760999 -10.1166910578996827  26.1910597714067208 0 0 0
56        6    2   -0.0217280000000000  -18.6604255142935607 -11.9046951663149461  27.4624837942821536 0 0 0
57        7    4   -0.0761660000000000  -3.0129118590958770  -11.5764784664667211  3.7596486307628019  0 0 0
58        7    5    0.4189270000000000  -4.3971432827315446  -10.9622746368628388  3.6558383710603359  0 0 0
59        7    1   -0.2033700000000000  -4.9431908053608655  -10.3978445326917477  5.2517157142279736  0 0 0
60        7    1   -0.2033700000000000  -4.3860152474735523  -9.6064226430147350   2.5047013617476246  0 0 0
61        7    3    0.0285690000000000  -3.0142439534739482  -12.4264035212731052  4.4507887238965598  0 0 0
62        7    3    0.0285690000000000  -2.2728796786630041  -10.8523538602089236  4.1183665688921325  0 0 0
63        7    3    0.0285690000000000  -2.6763820302255739  -11.9465009393068105  2.7850314825072271  0 0 0
64        7    2   -0.0217280000000000  -5.1199984794771680  -11.7000174096796794  3.2966744834068522  0 0 0
65        8    4   -0.0761660000000000   18.9400845123606878 -11.4188107759796207 -19.3608075652232507 0 0 0
66        8    5    0.4189270000000000   18.3916639539767530 -11.1111697323543250 -17.9792463367867441 0 0 0
67        8    1   -0.2033700000000000   19.4406263432176303 -9.9417653263486656  -17.1451330500728716 0 0 0
68        8    1   -0.2033700000000000   16.7394526219278674 -10.4639276404472650 -18.1011080014438797 0 0 0
69        8    3    0.0285690000000000   19.9500070229797721 -11.8380665441776696 -19.2950038800869201 0 0 0
70        8    3    0.0285690000000000   18.9885478478710752 -10.5215194924783919 -19.9878660076860939 0 0 0
71        8    3    0.0285690000000000   18.3120497434340344 -12.1547055584578203 -19.8746934863580940 0 0 0
72        8    2   -0.0217280000000000   18.3513946367397338 -12.0183309392608013 -17.3699683548497248 0 0 0
73        9    4   -0.0761660000000000  -3.3031388172905456  -4.3419785902870824  -3.3976796212950244  0 0 0
74        9    5    0.4189270000000000  -4.1929700536526910  -3.2896848151545237  -4.0340739409675690  0 0 0
75        9    1   -0.2033700000000000  -4.5460455376164326  -1.9931864272912863  -2.8687399258492450  0 0 0
76        9    1   -0.2033700000000000  -3.4085402145129096  -2.6094105649502208  -5.4781901580969574  0 0 0
77        9    3    0.0285690000000000  -3.7870032865718661  -4.7822557127766405  -2.5189986596374765  0 0 0
78        9    3    0.0285690000000000  -2.3426062847924136  -3.9226122625909872  -3.0780051465438847  0 0 0
79        9    3    0.0285690000000000  -3.0972389448294164  -5.1559308553175089  -4.1013375599074777  0 0 0
80        9    2   -0.0217280000000000  -5.1452221972352596  -3.7277061081332863  -4.3457403242038950  0 0 0
81        10   4   -0.0761660000000000   4.4289257533366388   10.8776300688146961  11.4689357306270665 0 0 0
82        10   5    0.4189270000000000   3.0958084326659909   11.4817540061066659  11.0665030949987457 0 0 0
83        10   1   -0.2033700000000000   3.3450008917825929   12.8192014732618986  9.9207670325395636  0 0 0
84        10   1   -0.2033700000000000   2.0525908593541162   10.2418782345318711  10.3330318669365440 0 0 0
85        10   3    0.0285690000000000   5.0709374073165137   11.6291601503770998  11.9412413247722622 0 0 0
86        10   3    0.0285690000000000   4.9672337714739081   10.4696711589606561  10.6061051342294714 0 0 0
87        10   3    0.0285690000000000   4.2872349989933873   10.0663051862332509  12.1912398264467186 0 0 0
88        10   2   -0.0217280000000000   2.5750332215783582   11.8826957312184049  11.9404719989541732 0 0 0
89        11   4   -0.0761660000000000   10.6223785198238616 -25.9799748493059894  26.6766701490493041 0 0 0
90        11   5    0.4189270000000000   11.7501773141450396 -26.1175091607885150  25.6700551575094771 0 0 0
91        11   1   -0.2033700000000000   12.1987985849020095 -27.8276298590906634  25.4756332282860001 0 0 0
92        11   1   -0.2033700000000000   11.2632316668318300 -25.4365504543683834  24.1007387288331820 0 0 0
93        11   3    0.0285690000000000   10.9203860858356165 -26.3776619383625359  27.6529311138519986 0 0 0
94        11   3    0.0285690000000000   9.7229112532658881  -26.5168310024727276  26.3550698695131445 0 0 0
95        11   3    0.0285690000000000   10.3530738553914610 -24.9277376225213452  26.8192161349047957 0 0 0
96        11   2   -0.0217280000000000   12.6373387293088371 -25.5754624686004526  26.0090429735627175 0 0 0
97        12   4   -0.0761660000000000  -19.1856640763976714 -4.1443334033571650   3.2868346470287069  0 0 0
98        12   5    0.4189270000000000  -18.1425774255315346 -3.4865287824324032   4.1719238334810642  0 0 0
99        12   1   -0.2033700000000000  -16.8263380308706161 -2.8162478310119701   3.1810600507109097  0 0 0
100       12   1   -0.2033700000000000  -18.8846237940440922 -2.1968477445494168   5.1464313419705423  0 0 0
101       12   3    0.0285690000000000  -18.7423535823164578 -4.9546475847712941   2.6978391166240803  0 0 0
102       12   3    0.0285690000000000  -19.6363104726302353 -3.4292405421539458   2.5895236274550939  0 0 0
103       12   3    0.0285690000000000  -19.9904712105154054 -4.5790568882286653   3.8896186136157249  0 0 0
104       12   2   -0.0217280000000000  -17.7054880902015697 -4.2158625599966761   4.8595341056153849  0 0 0
105       13   4   -0.0761660000000000  -18.7204562262913647 -26.5371050199058374  25.4134367870646471 0 0 0
106       13   5    0.4189270000000000  -18.6614124622430033 -25.7975897462289403  26.7377292556778272 0 0 0
107       13   1   -0.2033700000000000  -17.0165951652205472 -25.8676486801307064  27.4109614140721582 0 0 0
108       13   1   -0.2033700000000000  -19.1557609716604489 -24.1028477272993982  26.5208331581764050 0 0 0
109       13   3    0.0285690000000000  -18.4379043869842505 -27.5878378644557678  25.5406136288566579 0 0 0
110       13   3    0.0285690000000000  -18.0468043643815506 -26.0951210832923799  24.6707888211204143 0 0 0
111       13   3    0.0285690000000000  -19.7350721964830491 -26.5176888046937478  25.0008534798177067 0 0 0
112       13   2   -0.0217280000000000  -19.3398209092433682 -26.2535184295038420  27.4641408107247997 0 0 0
113       14   4   -0.0761660000000000   11.9109919033600402 -3.3573772972912534  -3.7174858546014677  0 0 0
114       14   5    0.4189270000000000   10.5778152410664497 -4.0669534821703861  -3.8700019962655552  0 0 0
115       14   1   -0.2033700000000000   10.5321486568949432 -5.5213251527301974  -2.8471181607968479  0 0 0
116       14   1   -0.2033700000000000   9.2438754587108569  -2.9753327892698631  -3.4312038690128572  0 0 0
117       14   3    0.0285690000000000   12.7381141972242933 -4.0152142120309930  -4.0058750121619600  0 0 0
118       14   3    0.0285690000000000   12.0831299712499440 -3.0333971755745361  -2.6849704799384329  0 0 0
119       14   3    0.0285690000000000   11.9569226755569797 -2.4713571726627110  -4.3600636667912553  0 0 0
120       14   2   -0.0217280000000000   10.4252979054410382 -4.3818080547715930  -4.9060462969331615  0 0 0
121       15   4   -0.0761660000000000  -11.9207912664431710 -18.3827755756495641  11.4227709950796346 0 0 0
122       15   5    0.4189270000000000  -10.4980472812144470 -18.7858508179547208  11.0800620076921916 0 0 0
123       15   1   -0.2033700000000000  -10.3080739576430958 -20.5495817581197855  11.2094337238271820 0 0 0
124       15   1   -0.2033700000000000  -10.0842225338295677 -18.2508122187399557  9.4350520829798441  0 0 0
125       15   3    0.0285690000000000  -12.1781098314058376 -18.6894796497336415  12.4424615210068872 0 0 0
126       15   3    0.0285690000000000  -12.6476431454086864 -18.8382793779573596  10.7409460434040351 0 0 0
127       15   3    0.0285690000000000  -12.0423669242516382 -17.2955309419518493  11.3665037068567241 0 0 0
128       15   2   -0.0217280000000000  -9.7890410693081105  -18.3215163424006988  11.7710659286580501 0 0 0
129       16   4   -0.0761660000000000   25.3983919511561744 -25.7161868971376357 -18.8340497875675155 0 0 0
130       16   5    0.4189270000000000   26.7564818499527348 -26.3011432878139466 -18.4912125137863725 0 0 0
131       16   1   -0.2033700000000000   26.7562535978088185 -26.9276265176990108 -16.8265526552946341 0 0 0
132       16   1   -0.2033700000000000   27.1725145703908169 -27.6035812263638434 -19.6288183630816242 0 0 0
133       16   3    0.0285690000000000   25.1424426880459819 -24.8984656126916981 -18.1515024432188206 0 0 0
134       16   3    0.0285690000000000   24.6041615467375649 -26.4684185646022669 -18.7705815611827660 0 0 0
135       16   3    0.0285690000000000   25.3948608838890308 -25.3083502115495698 -19.8507622893360818 0 0 0
136       16   2   -0.0217280000000000   27.5342502675294973 -25.5355850376526377 -18.5603470690397714 0 0 0
137       17   4   -0.0761660000000000  -18.2930540150493783  3.0169361360051199   3.9311084330838848  0 0 0
138       17   5    0.4189270000000000  -19.0241487738199417  4.3183763085368909   3.6556570226342675  0 0 0
139       17   1   -0.2033700000000000  -17.9156712923452659  5.6981874674782169   3.8316472855028438  0 0 0
140       17   1   -0.2033700000000000  -19.7166620799392405  4.3024893784663565   2.0174422006708470  0 0 0
141       17   3    0.0285690000000000  -17.8807817257370587  3.0085095687373795   4.9460022965145800  0 0 0
142       17   3    0.0285690000000000  -17.4653765929366571  2.8596229076318593   3.2304763857840104  0 0 0
143       17   3    0.0285690000000000  -18.9728840531048384  2.1621744670723650   3.8458960485332567  0 0 0
144       17   2   -0.0217280000000000  -19.8452481495752053  4.4564691025733119   4.3645356637778177  0 0 0
145       18   4   -0.0761660000000000  -19.3155269754082468 -10.8505474747674207  10.8700359675223925 0 0 0
146       18   5    0.4189270000000000  -18.1371875043854658 -11.5243836049343944  11.5494331335536859 0 0 0
147       18   1   -0.2033700000000000  -17.3534332478341646 -12.6677880539618428  10.4350143320333810 0 0 0
148       18   1   -0.2033700000000000  -16.9606969316551428 -10.3071637216262388  12.0951625212138580 0 0 0
149       18   3    0.0285690000000000  -20.0562147832605078 -11.5910537119773558  10.5489735350389058 0 0 0
150       18   3    0.0285690000000000  -19.0043432132717705 -10.2812884846829853  9.9869779280988062  0 0 0
151       18   3    0.0285690000000000  -19.8180684616403227 -10.1596031703066245  11.5556711216304979 0 0 0
152       18   2   -0.0217280000000000  -18.4683555650519580 -12.0864677872476918  12.4270274704130230 0 0 0
153       19   4   -0.0761660000000000  -4.4556717834625932  -3.6190754487200931   18.9927576230638522 0 0 0
154       19   5    0.4189270000000000  -3.0564273326556299  -3.8623002730802747   18.4569626994215312 0 0 0
155       19   1   -0.2033700000000000  -3.0920868755768085  -5.0942346471680260   17.1745275826067747 0 0 0
156       19   1   -0.2033700000000000  -2.3658382048775457  -2.3497971468229122   17.8253015353023478 0 0 0
157       19   3    0.0285690000000000  -4.8816322034537825  -4.5409307019423046   19.4035977553629735 0 0 0
158       19   3    0.0285690000000000  -5.1323033168144701  -3.2547935229799054   18.2116359428802177 0 0 0
159       19   3    0.0285690000000000  -4.4412421791665855  -2.8767400898495934   19.7982249056337061 0 0 0
160       19   2   -0.0217280000000000  -2.3975634404941113  -4.2248935059384207   19.2508186382361508 0 0 0
161       20   4   -0.0761660000000000  -3.1159130557398651   10.6445784631611140 -11.2236237433461081 0 0 0
162       20   5    0.4189270000000000  -4.2449978368565295   11.6371088478372773 -11.0134558555865354 0 0 0
163       20   1   -0.2033700000000000  -3.8199594329786346   13.2138083297391269 -11.7183919043876834 0 0 0
164       20   1   -0.2033700000000000  -5.7460101104652193   11.0292553054117839 -11.7490176150852488 0 0 0
165       20   3    0.0285690000000000  -2.1916637340260188   11.0004751947534096 -10.7554894577469504 0 0 0
166       20   3    0.0285690000000000  -2.9123219753918832   10.4799897018944979 -12.2876462263169604 0 0 0
167       20   3    0.0285690000000000  -3.3595960926146815   9.6757889232808267  -10.7740540082014853 0 0 0
168       20   2   -0.0217280000000000  -4.4323030984287062   11.7872912434265054 -9.9466171988335805  0 0 0
169       21   4   -0.0761660000000000  -19.3762017384137302 -18.4012472349795111  26.3533378816762927 0 0 0
170       21   5    0.4189270000000000  -18.0363043146286657 -18.9678770206987011  25.9200653021492968 0 0 0
171       21   1   -0.2033700000000000  -17.8456688490764819 -18.8228334648713407  24.1576254535057586 0 0 0
172       21   1   -0.2033700000000000  -16.7103204419795190 -18.1166295731007487  26.7451225298810087 0 0 0
173       21   3    0.0285690000000000  -20.2005505170026076 -18.9335215531375098  25.8663243879530924 0 0 0
174       21   3    0.0285690000000000  -19.4678709196210882 -17.3383081093127700  26.1034582927867902 0 0 0
175       21   3    0.0285690000000000  -19.5120912047170094 -18.5052942235794688  27.4353525853245799 0 0 0
176       21   2   -0.0217280000000000  -17.9648186970684698 -20.0281155028275286  26.1780709222338004 0 0 0
177       22   4   -0.0761660000000000   18.4772040244770643 -11.6816439685657016 -10.5572923643589593 0 0 0
178       22   5    0.4189270000000000   18.8223237752142403 -10.6646993349090558 -11.6300623854856031 0 0 0
179       22   1   -0.2033700000000000   20.0519980307279369 -11.3242453198715971 -12.7330012110541961 0 0 0
180       22   1   -0.2033700000000000   17.3653923070762275 -10.2151723781881323 -12.5459505276353092 0 0 0
181       22   3    0.0285690000000000   19.3647526743824834 -11.9491285438723249 -9.9735472165212080  0 0 0
182       22   3    0.0285690000000000   18.0671627033917979 -12.6024289048921698 -10.9870642208559861 0 0 0
183       22   3    0.0285690000000000   17.7356306449880563 -11.2765964329876986 -9.8601173801868054  0 0 0
184       22   2   -0.0217280000000000   19.2293625222497333 -9.7543811262178703  -11.1812607034064939 0 0 0
185       23   4   -0.0761660000000000   3.3317509391302629  -17.9638672295622506  18.4078388006494258 0 0 0
186       23   5    0.4189270000000000   4.1772850467941023  -19.1407955083092176  18.8595372044132858 0 0 0
187       23   1   -0.2033700000000000   3.4603917464499712  -19.8990426687552286  20.2999187418877369 0 0 0
188       23   1   -0.2033700000000000   4.3182660704348317  -20.3376094788059518  17.5513569616343901 0 0 0
189       23   3    0.0285690000000000   3.2565492437570009  -17.2109309208860140  19.1999755449619229 0 0 0
190       23   3    0.0285690000000000   2.3152041571935627  -18.2729047331233438  18.1398628798526929 0 0 0
191       23   3    0.0285690000000000   3.7767585748611561  -17.4768682964621931  17.5332830362177887 0 0 0
192       23   2   -0.0217280000000000   5.1865595578806190  -18.8118078466033900  19.1220535128902966 0 0 0
193       24   4   -0.0761660000000000  -3.7167756879178828   25.9109662212380130 -11.9788880921322729 0 0 0
194       24   5    0.4189270000000000  -3.6277633351228524   26.1732049248154333 -10.4864313216039182 0 0 0
195       24   1   -0.2033700000000000  -3.3799638309139248   27.9073183466112198 -10.1781785357908294 0 0 0
196       24   1   -0.2033700000000000  -5.1090814670685782   25.6187061232502131 -9.6729188462038440  0 0 0
197       24   3    0.0285690000000000  -2.7997716153626215   26.2299412387405653 -12.4862414903926204 0 0 0
198       24   3    0.0285690000000000  -4.5573067440792263   26.4451072694647671 -12.4359258551535703 0 0 0
199       24   3    0.0285690000000000  -3.8482816332354997   24.8421515386557346 -12.1798579964529647 0 0 0
200       24   2   -0.0217280000000000  -2.7838210228009599   25.6319616927346665 -10.0498538717745269 0 0 0
201       25   4   -0.0761660000000000   3.4903719257899071  -4.4683748371837577  -11.4320677715467589 0 0 0
202       25   5    0.4189270000000000   3.8852850359551780  -3.0435120608733808  -11.0886594830552383 0 0 0
203       25   1   -0.2033700000000000   3.0258395132043172  -2.4994545398543480  -9.6295746530518080  0 0 0
204       25   1   -0.2033700000000000   5.6421108272755705  -2.9344833034847597  -10.8332172281055801 0 0 0
205       25   3    0.0285690000000000   2.4122892705565482  -4.5416067997037839  -11.6121340642016246 0 0 0
206       25   3    0.0285690000000000   3.7450211032622454  -5.1660482977799225  -10.6264076872727369 0 0 0
207       25   3    0.0285690000000000   3.9987611059296362  -4.8054007804226977  -12.3420136473551842 0 0 0
208       25   2   -0.0217280000000000   3.6230865545281175  -2.3638847171988795  -11.9042214749156212 0 0 0
209       26   4   -0.0761660000000000   19.1337355275053724  18.2581535733192233  3.2017378491670847  0 0 0
210       26   5    0.4189270000000000   18.3107539958601784  18.9482707996787454  4.2743790570985940  0 0 0
211       26   1   -0.2033700000000000   17.9785486090888789  20.6325747651192835  3.8092624406447970  0 0 0
212       26   1   -0.2033700000000000   16.7812450607367225  18.0783383823586838  4.5339843021788520  0 0 0
213       26   3    0.0285690000000000   20.0876837486742090  18.7747217360670682  3.0494580863483209  0 0 0
214       26   3    0.0285690000000000   18.6083097771625603  18.2317177164238444  2.2405346661995660  0 0 0
215       26   3    0.0285690000000000   19.3616586933417594  17.2258637411883662  3.4889246781728289  0 0 0
216       26   2   -0.0217280000000000   18.8518912701378554  18.9641859683523286  5.2244842566914649  0 0 0
217       27   4   -0.0761660000000000   26.1996654014793400 -11.9860964192969242  3.6207406464826732  0 0 0
218       27   5    0.4189270000000000   25.8802073831857307 -10.5226721050989909  3.8666174442132224  0 0 0
219       27   1   -0.2033700000000000   27.0200140677076170 -9.8315261881382980   5.0442132056219515  0 0 0
220       27   1   -0.2033700000000000   25.9561285344937858 -9.6097569386678661   2.3420202009112137  0 0 0
221       27   3    0.0285690000000000   26.1347068785883856 -12.5610462313890228  4.5509353064754601  0 0 0
222       27   3    0.0285690000000000   27.2079581864238484 -12.1189746050933653  3.2128537992219623  0 0 0
223       27   3    0.0285690000000000   25.4895740650674121 -12.4265698312214408  2.9123615042570532  0 0 0
224       27   2   -0.0217280000000000   24.8711028385644966 -10.4116536905986390  4.2730232293179551  0 0 0
225       28   4   -0.0761660000000000   11.1555197316147616 -11.7378018176152086 -4.3266363811573720  0 0 0
226       28   5    0.4189270000000000   11.3343672684932724 -10.7502450857539227 -3.1878366584633655  0 0 0
227       28   1   -0.2033700000000000   11.1760439072635887 -9.0828026511149957  -3.7862873033409210  0 0 0
228       28   1   -0.2033700000000000   10.1313783758718898 -11.0534498443047244 -1.9132938089593861  0 0 0
229       28   3    0.0285690000000000   11.9058442420417183 -11.5726056235465027 -5.1075155959644842  0 0 0
230       28   3    0.0285690000000000   10.1653309978882724 -11.6512556245926149 -4.7878507138427482  0 0 0
231       28   3    0.0285690000000000   11.2723782192759714 -12.7675836886170284 -3.9717548039833321  0 0 0
232       28   2   -0.0217280000000000   12.3274332670550564 -10.8525516739595584 -2.7415900707899112  0 0 0
233       29   4   -0.0761660000000000  -26.5765927635528776 -18.2979569366383572 -19.2032049627212800 0 0 0
234       29   5    0.4189270000000000  -25.6120238883960241 -18.9898324853838396 -18.2571422488239534 0 0 0
235       29   1   -0.2033700000000000  -24.7266847655541895 -17.7877012209785619 -17.2903802333283956 0 0 0
236       29   1   -0.2033700000000000  -26.4916220473967456 -20.1021020083460655 -17.1834856633312150 0 0 0
237       29   3    0.0285690000000000  -26.0414601850277094 -17.6261625204446517 -19.8831861296457539 0 0 0
238       29   3    0.0285690000000000  -27.3217897887619117 -17.7046666585217096 -18.6615679328646920 0 0 0
239       29   3    0.0285690000000000  -27.1116929300561225 -19.0295887998231130 -19.8183717452941188 0 0 0
240       29   2   -0.0217280000000000  -24.8774909867650393 -19.5758160523712910 -18.8164877664981560 0 0 0
241       30   4   -0.0761660000000000  -18.3015854813000729 -10.5110627483774692 -10.8668029552601038 0 0 0
242       30   5    0.4189270000000000  -18.9464911433617402 -11.6909799022376983 -11.5710839684694466 0 0 0
243       30   1   -0.2033700000000000  -17.8126815689855000 -13.0592865004194394 -11.6471539121074805 0 0 0
244       30   1   -0.2033700000000000  -20.4308504526885173 -12.1804124544741619 -10.7221386850581766 0 0 0
245       30   3    0.0285690000000000  -17.3974368308590321 -10.1885463162329266 -11.3945788267267716 0 0 0
246       30   3    0.0285690000000000  -18.0201863767443200 -10.7569137623406323 -9.8367279795964429  0 0 0
247       30   3    0.0285690000000000  -18.9850623504537559 -9.6556044545398336  -10.8336665910011725 0 0 0
248       30   2   -0.0217280000000000  -19.2195324781146510 -11.4254898708824051 -12.5961430912849579 0 0 0
249       31   4   -0.0761660000000000  -3.2094139675064750  -19.2633010419408883  3.8189862351283086  0 0 0
250       31   5    0.4189270000000000  -4.2604712224805885  -18.1915605355540286  3.5936631732018474  0 0 0
251       31   1   -0.2033700000000000  -4.7548518610864399  -17.4760572329436386  5.1451838923755595  0 0 0
252       31   1   -0.2033700000000000  -3.6294067302437139  -16.9250930990827975  2.5159838537399732  0 0 0
253       31   3    0.0285690000000000  -3.5961486802186697  -20.0590804561891431  4.4649122273612596  0 0 0
254       31   3    0.0285690000000000  -2.3080070939855677  -18.8557782452434424  4.2902329339402385  0 0 0
255       31   3    0.0285690000000000  -2.9136968253755540  -19.7249872025472150  2.8705955968602321  0 0 0
256       31   2   -0.0217280000000000  -5.1507689556045237  -18.6179688690064147  3.1232074238940806  0 0 0
257       32   4   -0.0761660000000000  -4.0263844600039480   4.3505037458719711   26.5304839923718276 0 0 0
258       32   5    0.4189270000000000  -3.5467151234019307   3.2376352588572033   25.6163939494147677 0 0 0
259       32   1   -0.2033700000000000  -1.7829001592744147   3.3287665765079604   25.4060951401858439 0 0 0
260       32   1   -0.2033700000000000  -3.9960844800243160   1.6522351705023848   26.2858329815702874 0 0 0
261       32   3    0.0285690000000000  -3.7727747435322554   5.3322561928985728   26.1158838885748921 0 0 0
262       32   3    0.0285690000000000  -3.5767105468354901   4.2799097086469118   27.5272249247730301 0 0 0
263       32   3    0.0285690000000000  -5.1148257423546095   4.3156309367556815   26.6493410656119352 0 0 0
264       32   2   -0.0217280000000000  -4.0063700810745679   3.3258277464608077   24.6281014130080358 0 0 0
265       33   4   -0.0761660000000000  -26.9005815084141453 -18.7290083996797492  18.5423092212509353 0 0 0
266       33   5    0.4189270000000000  -25.3884519494953409 -18.6860351823140789  18.6677566131459507 0 0 0
267       33   1   -0.2033700000000000  -24.7290835342162296 -17.3305180604518512  17.7236271944905077 0 0 0
268       33   1   -0.2033700000000000  -24.9151162166288422 -18.5227137850586381  20.3744652238321073 0 0 0
269       33   3    0.0285690000000000  -27.2017826959255942 -18.8508393934954803  17.4961333014422422 0 0 0
270       33   3    0.0285690000000000  -27.3660511258458996 -17.8125052388227125  18.9218386983498625 0 0 0
271       33   3    0.0285690000000000  -27.3145902207585749 -19.5737779407306043  19.1035656247027354 0 0 0