
                                 *****************
                                 * O   R   C   A *
                                 *****************

           --- An Ab Initio, DFT and Semiempirical electronic structure package ---

                  #######################################################
                  #                        -***-                        #
                  #          Department of theory and spectroscopy      #
                  #               Directorship: Frank Neese             #
                  #        Max Planck Institute fuer Kohlenforschung    #
                  #                Kaiser Wilhelm Platz 1               #
                  #                 D-45470 Muelheim/Ruhr               #
                  #                      Germany                        #
                  #                                                     #
                  #                  All rights reserved                #
                  #                        -***-                        #
                  #######################################################


                         Program Version 4.1.2  - RELEASE  -


 With contributions from (in alphabetic order):
   Daniel Aravena         : Magnetic Properties
   Michael Atanasov       : Ab Initio Ligand Field Theory
   Alexander A. Auer      : GIAO ZORA
   Ute Becker             : Parallelization
   Giovanni Bistoni       : ED, Open-shell LED
   Martin Brehm           : Molecular dynamics
   Dmytro Bykov           : SCF Hessian
   Vijay G. Chilkuri      : MRCI spin determinant printing
   Dipayan Datta          : RHF DLPNO-CCSD density
   Achintya Kumar Dutta   : EOM-CC, STEOM-CC
   Dmitry Ganyushin       : Spin-Orbit,Spin-Spin,Magnetic field MRCI
   Miquel Garcia          : C-PCM Hessian
   Yang Guo               : DLPNO-NEVPT2, CIM, IAO-localization
   Andreas Hansen         : Spin unrestricted coupled pair/coupled cluster methods
   Benjamin Helmich-Paris : CASSCF linear response (MC-RPA)
   Lee Huntington         : MR-EOM, pCC
   Robert Izsak           : Overlap fitted RIJCOSX, COSX-SCS-MP3, EOM
   Christian Kollmar      : KDIIS, OOCD, Brueckner-CCSD(T), CCSD density
   Simone Kossmann        : Meta GGA functionals, TD-DFT gradient, OOMP2, MP2 Hessian
   Martin Krupicka        : AUTO-CI
   Lucas Lang             : DCDCAS
   Dagmar Lenk            : GEPOL surface, SMD
   Dimitrios Liakos       : Extrapolation schemes; parallel MDCI
   Dimitrios Manganas     : ROCIS; embedding schemes
   Dimitrios Pantazis     : SARC Basis sets
   Taras Petrenko         : DFT Hessian,TD-DFT gradient, ASA, ECA, R-Raman, ABS, FL, XAS/XES, NRVS
   Peter Pinski           : DLPNO-MP2, DLPNO-MP2 Gradient
   Christoph Reimann      : Effective Core Potentials
   Marius Retegan         : Local ZFS, SOC
   Christoph Riplinger    : Optimizer, TS searches, QM/MM, DLPNO-CCSD(T), (RO)-DLPNO pert. Triples
   Tobias Risthaus        : Range-separated hybrids, TD-DFT gradient, RPA, STAB
   Michael Roemelt        : Restricted open shell CIS
   Masaaki Saitow         : Open-shell DLPNO
   Barbara Sandhoefer     : DKH picture change effects
   Avijit Sen             : IP-ROCIS
   Kantharuban Sivalingam : CASSCF convergence, NEVPT2, FIC-MRCI
   Bernardo de Souza      : ESD, SOC TD-DFT
   Georgi Stoychev        : AutoAux, RI-MP2 NMR
   Willem Van den Heuvel  : Paramagnetic NMR
   Boris Wezisla          : Elementary symmetry handling
   Frank Wennmohs         : Technical directorship


 We gratefully acknowledge several colleagues who have allowed us to
 interface, adapt or use parts of their codes:
   Stefan Grimme, W. Hujo, H. Kruse,             : VdW corrections, initial TS optimization,
                  C. Bannwarth                     DFT functionals, gCP, sTDA/sTD-DF
   Ed Valeev                                     : LibInt (2-el integral package), F12 methods
   Garnet Chan, S. Sharma, J. Yang, R. Olivares  : DMRG
   Ulf Ekstrom                                   : XCFun DFT Library
   Mihaly Kallay                                 : mrcc  (arbitrary order and MRCC methods)
   Andreas Klamt, Michael Diedenhofen            : otool_cosmo (COSMO solvation model)
   Jiri Pittner, Ondrej Demel                    : Mk-CCSD
   Frank Weinhold                                : gennbo (NPA and NBO analysis)
   Christopher J. Cramer and Donald G. Truhlar   : smd solvation model
   Lars Goerigk                                  : TD-DFT with DH, B97 family of functionals
   V. Asgeirsson, H. Jonsson                     : NEB implementation
   FAccTs GmbH                                   : IRC, NEB, NEB-TS, Multilevel


 Your calculation uses the libint2 library for the computation of 2-el integrals
 For citations please refer to: http://libint.valeyev.net

 This ORCA versions uses:
   CBLAS   interface :  Fast vector & matrix operations
   LAPACKE interface :  Fast linear algebra routines
   SCALAPACK package :  Parallel linear algebra routines


Your calculation utilizes the atom-pairwise dispersion correction
with the zero-damping scheme (D30)
Cite in your paper:
S.Grimme, J.Antony, S.Ehrlich and H.Krieg, J.Chem.Phys., 132, (2010), 154104 
   

XCFun DFT library Copyright 2009-2010 Ulf Ekstrom and contributors.
See http://admol.org/xcfun for more information. This is free soft-
ware; see the source code for copying conditions. There is ABSOLUTELY
NO WARRANTY; not even for MERCHANTABILITY or FITNESS FOR A PARTICULAR
PURPOSE. For details see the documentation. Scientific users of this 
library should cite U. Ekstrom, L. Visscher, R. Bast, A. J. Thorvald-
sen and K. Ruud; J.Chem.Theor.Comp. 2010, DOI: 10.1021/ct100117s
XCFun Version 0.99 
----- Orbital basis set information -----
Your calculation utilizes the basis: def2-TZVP
   F. Weigend and R. Ahlrichs, Phys. Chem. Chem. Phys. 7, 3297 (2005).

================================================================================
                                        WARNINGS
                       Please study these warnings very carefully!
================================================================================


INFO   : the flag for use of LIBINT has been found!

Your calculation utilizes the atom-pairwise dispersion correction
with the zero-damping scheme (D30)
Cite in your paper:
S.Grimme, J.Antony, S.Ehrlich and H.Krieg, J.Chem.Phys., 132, (2010), 154104 
   

XCFun DFT library Copyright 2009-2010 Ulf Ekstrom and contributors.
See http://admol.org/xcfun for more information. This is free soft-
ware; see the source code for copying conditions. There is ABSOLUTELY
NO WARRANTY; not even for MERCHANTABILITY or FITNESS FOR A PARTICULAR
PURPOSE. For details see the documentation. Scientific users of this 
library should cite U. Ekstrom, L. Visscher, R. Bast, A. J. Thorvald-
sen and K. Ruud; J.Chem.Theor.Comp. 2010, DOI: 10.1021/ct100117s
XCFun Version 0.99 
----- Orbital basis set information -----
Your calculation utilizes the basis: def2-TZVP
   F. Weigend and R. Ahlrichs, Phys. Chem. Chem. Phys. 7, 3297 (2005).

================================================================================
                                        WARNINGS
                       Please study these warnings very carefully!
================================================================================


WARNING: MOInp is set but Guess=PModel. MOInp will be ignored!
         To read the initial guess from a file you must also specify
         'MORead' in the simple input or 'Guess MORead' in the %scf block


INFO   : the flag for use of LIBINT has been found!

Your calculation utilizes the atom-pairwise dispersion correction
with the zero-damping scheme (D30)
Cite in your paper:
S.Grimme, J.Antony, S.Ehrlich and H.Krieg, J.Chem.Phys., 132, (2010), 154104 
   

XCFun DFT library Copyright 2009-2010 Ulf Ekstrom and contributors.
See http://admol.org/xcfun for more information. This is free soft-
ware; see the source code for copying conditions. There is ABSOLUTELY
NO WARRANTY; not even for MERCHANTABILITY or FITNESS FOR A PARTICULAR
PURPOSE. For details see the documentation. Scientific users of this 
library should cite U. Ekstrom, L. Visscher, R. Bast, A. J. Thorvald-
sen and K. Ruud; J.Chem.Theor.Comp. 2010, DOI: 10.1021/ct100117s
XCFun Version 0.99 
----- Orbital basis set information -----
Your calculation utilizes the basis: def2-TZVP
   F. Weigend and R. Ahlrichs, Phys. Chem. Chem. Phys. 7, 3297 (2005).

================================================================================
                                        WARNINGS
                       Please study these warnings very carefully!
================================================================================


WARNING: MOInp is set but Guess=PModel. MOInp will be ignored!
         To read the initial guess from a file you must also specify
         'MORead' in the simple input or 'Guess MORead' in the %scf block


INFO   : the flag for use of LIBINT has been found!

================================================================================
                                       INPUT FILE
================================================================================
NAME = 21-150.in
|  1> #Run DFT-D3 single point of the dimer
|  2> ! wB97X-D3 def2-TZVP TIGHTSCF CHELPG PMODEL PAL8
|  3> 
|  4> %base "21-150_DFT_AB"
|  5> 
|  6> %scf
|  7> MaxIter 1000
|  8> end
|  9> 
| 10> * xyz 0 1
| 11>   C                      -4.797981            5.631424             -2.623240           
| 12>   O                      -5.237484            5.394242             -4.010165           
| 13>   H                      -5.022059            6.181057             -4.583868           
| 14>   H                      -3.706506            5.559531             -2.455493           
| 15>   H                      -5.119891            6.579351             -2.201764           
| 16>   H                      -5.126361            4.857216             -1.992728           
| 17>   C                      -6.318035            2.005671             -5.095048           
| 18>   O                      -4.973212            2.520542             -5.011633           
| 19>   H                      -5.038629            3.425141             -4.704228           
| 20>   H                      -6.272980            0.946138             -5.394079           
| 21>   H                      -6.893007            2.105959             -4.134858           
| 22>   H                      -6.809048            2.450537             -5.941331           
| 23> *
| 24> 
| 25> #Run DFT-D3 single point of the molecule with dimer basis set
| 26> $new_job
| 27> %base "21-150_DFT_A"
| 28> ! wB97X-D3 def2-TZVP TIGHTSCF CHELPG PMODEL
| 29> 
| 30> %scf
| 31> MaxIter 1000
| 32> end
| 33> 
| 34> * xyz 0 1
| 35>   C                      -4.797981            5.631424             -2.623240           
| 36>   O                      -5.237484            5.394242             -4.010165           
| 37>   H                      -5.022059            6.181057             -4.583868           
| 38>   H                      -3.706506            5.559531             -2.455493           
| 39>   H                      -5.119891            6.579351             -2.201764           
| 40>   H                      -5.126361            4.857216             -1.992728           
| 41>   C                    : -6.318035            2.005671             -5.095048           
| 42>   O                    : -4.973212            2.520542             -5.011633           
| 43>   H                    : -5.038629            3.425141             -4.704228           
| 44>   H                    : -6.272980            0.946138             -5.394079           
| 45>   H                    : -6.893007            2.105959             -4.134858           
| 46>   H                    : -6.809048            2.450537             -5.941331           
| 47> *
| 48> 
| 49> #Run DFT-D3 single point of the particle with dimer basis set
| 50> $new_job
| 51> %base "21-150_DFT_B"
| 52> ! wB97X-D3 def2-TZVP TIGHTSCF CHELPG PMODEL
| 53> 
| 54> %scf
| 55> MaxIter 1000
| 56> end
| 57> 
| 58> * xyz 0 1
| 59>   C                    : -4.797981            5.631424             -2.623240           
| 60>   O                    : -5.237484            5.394242             -4.010165           
| 61>   H                    : -5.022059            6.181057             -4.583868           
| 62>   H                    : -3.706506            5.559531             -2.455493           
| 63>   H                    : -5.119891            6.579351             -2.201764           
| 64>   H                    : -5.126361            4.857216             -1.992728           
| 65>   C                      -6.318035            2.005671             -5.095048           
| 66>   O                      -4.973212            2.520542             -5.011633           
| 67>   H                      -5.038629            3.425141             -4.704228           
| 68>   H                      -6.272980            0.946138             -5.394079           
| 69>   H                      -6.893007            2.105959             -4.134858           
| 70>   H                      -6.809048            2.450537             -5.941331           
| 71> *
| 72> 
| 73>                          ****END OF INPUT****
================================================================================


                 $$$$$$$$$$$$$$$$$$$$$$$$$$$$$$$$$$$$$$$$$$$$$$ 
                 $ THERE ARE  3 JOBS TO BE PROCESSED THIS RUN $
                 $$$$$$$$$$$$$$$$$$$$$$$$$$$$$$$$$$$$$$$$$$$$$$ 




                 $$$$$$$$$$$$$$$$  JOB NUMBER  1 $$$$$$$$$$$$$$


                       ****************************
                       * Single Point Calculation *
                       ****************************

---------------------------------
CARTESIAN COORDINATES (ANGSTROEM)
---------------------------------
  C     -4.797981    5.631424   -2.623240
  O     -5.237484    5.394242   -4.010165
  H     -5.022059    6.181057   -4.583868
  H     -3.706506    5.559531   -2.455493
  H     -5.119891    6.579351   -2.201764
  H     -5.126361    4.857216   -1.992728
  C     -6.318035    2.005671   -5.095048
  O     -4.973212    2.520542   -5.011633
  H     -5.038629    3.425141   -4.704228
  H     -6.272980    0.946138   -5.394079
  H     -6.893007    2.105959   -4.134858
  H     -6.809048    2.450537   -5.941331

----------------------------
CARTESIAN COORDINATES (A.U.)
----------------------------
  NO LB      ZA    FRAG     MASS         X           Y           Z
   0 C     6.0000    0    12.011   -9.066870   10.641849   -4.957205
   1 O     8.0000    0    15.999   -9.897410   10.193640   -7.578114
   2 H     1.0000    0     1.008   -9.490316   11.680505   -8.662255
   3 H     1.0000    0     1.008   -7.004281   10.505991   -4.640209
   4 H     1.0000    0     1.008   -9.675192   12.433172   -4.160731
   5 H     1.0000    0     1.008   -9.687418    9.178808   -3.765710
   6 C     6.0000    0    12.011  -11.939356    3.790169   -9.628245
   7 O     8.0000    0    15.999   -9.398009    4.763134   -9.470614
   8 H     1.0000    0     1.008   -9.521629    6.472578   -8.889703
   9 H     1.0000    0     1.008  -11.854214    1.787942  -10.193332
  10 H     1.0000    0     1.008  -13.025895    3.979686   -7.813749
  11 H     1.0000    0     1.008  -12.867236    4.630844  -11.227488

--------------------------------
INTERNAL COORDINATES (ANGSTROEM)
--------------------------------
 C      0   0   0     0.000000000000     0.00000000     0.00000000
 O      1   0   0     1.474102826725     0.00000000     0.00000000
 H      2   1   0     0.997306826939   110.48058611     0.00000000
 H      1   2   3     1.106627911759   115.22875388   285.30811812
 H      1   2   3     1.086201484074   114.65388885    50.00341245
 H      1   2   3     1.051083647389   110.65434185   173.11734980
 C      2   1   3     3.718464065892   120.51510285   168.75421390
 O      7   2   1     1.442428199321    52.18751611   276.62457546
 H      8   7   2     0.957641148194   106.98084256   359.60918287
 H      7   2   1     1.101843759376   160.66291308   286.54841183
 H      7   2   1     1.123661568190    79.51664535    47.39980855
 H      7   2   1     1.074799720978    89.15733003   161.71299125

---------------------------
INTERNAL COORDINATES (A.U.)
---------------------------
 C      0   0   0     0.000000000000     0.00000000     0.00000000
 O      1   0   0     2.785650635749     0.00000000     0.00000000
 H      2   1   0     1.884636774405   110.48058611     0.00000000
 H      1   2   3     2.091223685377   115.22875388   285.30811812
 H      1   2   3     2.052623331159   114.65388885    50.00341245
 H      1   2   3     1.986260237408   110.65434185   173.11734980
 C      2   1   3     7.026878723363   120.51510285   168.75421390
 O      7   2   1     2.725794264561    52.18751611   276.62457546
 H      8   7   2     1.809679504661   106.98084256   359.60918287
 H      7   2   1     2.082182947590   160.66291308   286.54841183
 H      7   2   1     2.123412631092    79.51664535    47.39980855
 H      7   2   1     2.031077121463    89.15733003   161.71299125

---------------------
BASIS SET INFORMATION
---------------------
There are 3 groups of distinct atoms

 Group   1 Type C   : 11s6p2d1f contracted to 5s3p2d1f pattern {62111/411/11/1}
 Group   2 Type O   : 11s6p2d1f contracted to 5s3p2d1f pattern {62111/411/11/1}
 Group   3 Type H   : 5s1p contracted to 3s1p pattern {311/1}

Atom   0C    basis set group =>   1
Atom   1O    basis set group =>   2
Atom   2H    basis set group =>   3
Atom   3H    basis set group =>   3
Atom   4H    basis set group =>   3
Atom   5H    basis set group =>   3
Atom   6C    basis set group =>   1
Atom   7O    basis set group =>   2
Atom   8H    basis set group =>   3
Atom   9H    basis set group =>   3
Atom  10H    basis set group =>   3
Atom  11H    basis set group =>   3


           ************************************************************
           *        Program running with 8 parallel MPI-processes     *
           *              working on a common directory               *
           ************************************************************
------------------------------------------------------------------------------
                           ORCA GTO INTEGRAL CALCULATION
------------------------------------------------------------------------------

                         BASIS SET STATISTICS AND STARTUP INFO

 # of primitive gaussian shells          ...  128
 # of primitive gaussian functions       ...  248
 # of contracted shells                  ...   76
 # of contracted basis functions         ...  172
 Highest angular momentum                ...    3
 Maximum contraction depth               ...    6
 Integral package used                   ... LIBINT
 Integral threshhold            Thresh   ...  2.500e-11
 Primitive cut-off              TCut     ...  2.500e-12


------------------------------ INTEGRAL EVALUATION ----------------------------


 * One electron integrals 
 Pre-screening matrix                    ... done
 Shell pair data                         ... done (   0.001 sec)



           ************************************************************
           *        Program running with 8 parallel MPI-processes     *
           *              working on a common directory               *
           ************************************************************
-------------------------------------------------------------------------------
                                 ORCA SCF
-------------------------------------------------------------------------------

------------
SCF SETTINGS
------------
Hamiltonian:
 Density Functional     Method          .... DFT(GTOs)
 Exchange Functional    Exchange        .... WB97X-D3
 Correlation Functional Correlation     .... WB97X-D3
 Gradients option       PostSCFGGA      .... off
 Hybrid DFT is turned on
   Fraction HF Exchange ScalHFX         ....  0.195728
   Scaling of DF-GGA-X  ScalDFX         ....  0.000000
   Scaling of DF-GGA-C  ScalDFC         ....  1.000000
   Scaling of DF-LDA-C  ScalLDAC        ....  1.000000
   Perturbative correction              ....  0.000000
   Density functional embedding theory  .... OFF
 Long-range corrected/Screened/Range-Separated Hybrid DFT is turned on
   Amount of maximum screened exact exchange              ....  0.804272
   Range separation parameter mu (erf(mu*r12)/r12)        ....  0.250000


General Settings:
 Integral files         IntName         .... 21-150_DFT_AB
 Hartree-Fock type      HFTyp           .... RHF
 Total Charge           Charge          ....    0
 Multiplicity           Mult            ....    1
 Number of Electrons    NEL             ....   36
 Basis Dimension        Dim             ....  172
 Nuclear Repulsion      ENuc            ....    124.4614667797 Eh

Convergence Acceleration:
 DIIS                   CNVDIIS         .... on
   Start iteration      DIISMaxIt       ....    12
   Startup error        DIISStart       ....  0.200000
   # of expansion vecs  DIISMaxEq       ....     5
   Bias factor          DIISBfac        ....   1.050
   Max. coefficient     DIISMaxC        ....  10.000
 Newton-Raphson         CNVNR           .... off
 SOSCF                  CNVSOSCF        .... on
   Start iteration      SOSCFMaxIt      ....   150
   Startup grad/error   SOSCFStart      ....  0.003300
 Level Shifting         CNVShift        .... on
   Level shift para.    LevelShift      ....    0.2500
   Turn off err/grad.   ShiftErr        ....    0.0010
 Zerner damping         CNVZerner       .... off
 Static damping         CNVDamp         .... on
   Fraction old density DampFac         ....    0.7000
   Max. Damping (<1)    DampMax         ....    0.9800
   Min. Damping (>=0)   DampMin         ....    0.0000
   Turn off err/grad.   DampErr         ....    0.1000
 Fernandez-Rico         CNVRico         .... off

SCF Procedure:
 Maximum # iterations   MaxIter         ....  1000
 SCF integral mode      SCFMode         .... Direct
   Integral package                     .... LIBINT
 Reset frequency        DirectResetFreq ....    20
 Integral Threshold     Thresh          ....  2.500e-11 Eh
 Primitive CutOff       TCut            ....  2.500e-12 Eh

Convergence Tolerance:
 Convergence Check Mode ConvCheckMode   .... Total+1el-Energy
 Convergence forced     ConvForced      .... 0
 Energy Change          TolE            ....  1.000e-08 Eh
 1-El. energy change                    ....  1.000e-05 Eh
 Orbital Gradient       TolG            ....  1.000e-05
 Orbital Rotation angle TolX            ....  1.000e-05
 DIIS Error             TolErr          ....  5.000e-07


Diagonalization of the overlap matrix:
Smallest eigenvalue                        ... 1.545e-03
Time for diagonalization                   ...    0.004 sec
Threshold for overlap eigenvalues          ... 1.000e-08
Number of eigenvalues below threshold      ... 0
Time for construction of square roots      ...    0.005 sec
Total time needed                          ...    0.009 sec

-------------------
DFT GRID GENERATION
-------------------

General Integration Accuracy     IntAcc      ...  4.340
Radial Grid Type                 RadialGrid  ... Gauss-Chebyshev
Angular Grid (max. acc.)         AngularGrid ... Lebedev-110
Angular grid pruning method      GridPruning ... 3 (G Style)
Weight generation scheme         WeightScheme... Becke
Basis function cutoff            BFCut       ...    1.0000e-11
Integration weight cutoff        WCut        ...    1.0000e-14
Grids for H and He will be reduced by one unit

# of grid points (after initial pruning)     ...  13096 (   0.0 sec)
# of grid points (after weights+screening)   ...  12533 (   0.0 sec)
nearest neighbour list constructed           ...    0.0 sec
Grid point re-assignment to atoms done       ...    0.0 sec
Grid point division into batches done        ...    0.0 sec
Reduced shell lists constructed in    0.0 sec

Total number of grid points                  ...    12533
Total number of batches                      ...      203
Average number of points per batch           ...       61
Average number of grid points per atom       ...     1044
Average number of shells per batch           ...    56.63 (74.51%)
Average number of basis functions per batch  ...   127.22 (73.97%)
Average number of large shells per batch     ...    46.74 (82.54%)
Average number of large basis fcns per batch ...   103.93 (81.69%)
Maximum spatial batch extension              ...  11.59,  6.28,  4.51 au
Average spatial batch extension              ...   0.28,  0.23,  0.22 au

Time for grid setup =    0.038 sec

------------------------------
INITIAL GUESS: MODEL POTENTIAL
------------------------------
Loading Hartree-Fock densities                     ... done
Calculating cut-offs                               ... done
Setting up the integral package                    ... done
Initializing the effective Hamiltonian             ... done
Starting the Coulomb interaction                   ... done (   0.0 sec)
Reading the grid                                   ... done
Mapping shells                                     ... done
Starting the XC term evaluation                    ... done (   0.0 sec)
  promolecular density results
     # of electrons  =     35.995072800
     EX              =    -28.832354388
     EC              =     -1.148895319
     EX+EC           =    -29.981249707
Transforming the Hamiltonian                       ... done (   0.0 sec)
Diagonalizing the Hamiltonian                      ... done (   0.0 sec)
Back transforming the eigenvectors                 ... done (   0.0 sec)
Now organizing SCF variables                       ... done
                      ------------------
                      INITIAL GUESS DONE (   0.1 sec)
                      ------------------
--------------
SCF ITERATIONS
--------------
ITER       Energy         Delta-E        Max-DP      RMS-DP      [F,P]     Damp
               ***  Starting incremental Fock matrix formation  ***
  0   -231.3131309911   0.000000000000 0.03768666  0.00100307  0.2488153 0.7000
  1   -231.3802125284  -0.067081537279 0.02309064  0.00071066  0.1241105 0.7000
                               ***Turning on DIIS***
  2   -231.4113931777  -0.031180649310 0.03689896  0.00129389  0.0472998 0.0000
  3   -231.4623691065  -0.050975928789 0.01866073  0.00046935  0.0624150 0.0000
  4   -231.4704509296  -0.008081823083 0.00405725  0.00009278  0.0063027 0.0000
                      *** Initiating the SOSCF procedure ***
                           *** Shutting down DIIS ***
                      *** Re-Reading the Fockian *** 
                      *** Removing any level shift *** 
ITER      Energy       Delta-E        Grad      Rot      Max-DP    RMS-DP
  5   -231.47062794  -0.0001770077  0.000413  0.000413  0.000743  0.000032
               *** Restarting incremental Fock matrix formation ***
  6   -231.47064483  -0.0000168916  0.000144  0.000224  0.000552  0.000020
  7   -231.47064651  -0.0000016763  0.000047  0.000112  0.000249  0.000009
  8   -231.47064664  -0.0000001309  0.000028  0.000023  0.000046  0.000001
  9   -231.47064667  -0.0000000301  0.000011  0.000011  0.000022  0.000001
 10   -231.47064667  -0.0000000039  0.000003  0.000004  0.000005  0.000000
                  ***Gradient check signals convergence***
              ***Rediagonalizing the Fockian in SOSCF/NRSCF***

               *****************************************************
               *                     SUCCESS                       *
               *           SCF CONVERGED AFTER  11 CYCLES          *
               *****************************************************

Setting up the final grid:

General Integration Accuracy     IntAcc      ...  4.670
Radial Grid Type                 RadialGrid  ... Gauss-Chebyshev
Angular Grid (max. acc.)         AngularGrid ... Lebedev-302
Angular grid pruning method      GridPruning ... 3 (G Style)
Weight generation scheme         WeightScheme... Becke
Basis function cutoff            BFCut       ...    1.0000e-11
Integration weight cutoff        WCut        ...    1.0000e-14
Grids for H and He will be reduced by one unit

# of grid points (after initial pruning)     ...  52000 (   0.0 sec)
# of grid points (after weights+screening)   ...  49197 (   0.0 sec)
nearest neighbour list constructed           ...    0.0 sec
Grid point re-assignment to atoms done       ...    0.0 sec
Grid point division into batches done        ...    0.2 sec
Reduced shell lists constructed in    0.2 sec

Total number of grid points                  ...    49197
Total number of batches                      ...      774
Average number of points per batch           ...       63
Average number of grid points per atom       ...     4100
Average number of shells per batch           ...    55.69 (73.28%)
Average number of basis functions per batch  ...   123.86 (72.01%)
Average number of large shells per batch     ...    45.64 (81.95%)
Average number of large basis fcns per batch ...   101.01 (81.55%)
Maximum spatial batch extension              ...   8.24,  4.59,  3.93 au
Average spatial batch extension              ...   0.15,  0.14,  0.14 au

Final grid set up in    0.2 sec
Final integration                            ... done (   0.1 sec)
Change in XC energy                          ...    -0.000439561
Integrated number of electrons               ...    36.000005969
Previous integrated no of electrons          ...    36.000379822

----------------
TOTAL SCF ENERGY
----------------

Total Energy       :         -231.47108623 Eh           -6298.64847 eV

Components:
Nuclear Repulsion  :          124.46146678 Eh            3386.76869 eV
Electronic Energy  :         -355.93255301 Eh           -9685.41716 eV
One Electron Energy:         -561.93604649 Eh          -15291.05721 eV
Two Electron Energy:          206.00349348 Eh            5605.64004 eV

Virial components:
Potential Energy   :         -461.75516701 Eh          -12564.99689 eV
Kinetic Energy     :          230.28408078 Eh            6266.34841 eV
Virial Ratio       :            2.00515453


DFT components:
N(Alpha)           :       18.000002984593 electrons
N(Beta)            :       18.000002984593 electrons
N(Total)           :       36.000005969186 electrons
E(XC)              :      -21.267806687797 Eh       
DFET-embed. en.    :        0.000000000000 Eh       

---------------
SCF CONVERGENCE
---------------

  Last Energy change         ...   -7.4994e-10  Tolerance :   1.0000e-08
  Last MAX-Density change    ...    2.1521e-06  Tolerance :   1.0000e-07
  Last RMS-Density change    ...    8.0411e-08  Tolerance :   5.0000e-09
  Last Orbital Gradient      ...    1.0969e-06  Tolerance :   1.0000e-05
  Last Orbital Rotation      ...    1.2645e-06  Tolerance :   1.0000e-05

             **** THE GBW FILE WAS UPDATED (21-150_DFT_AB.gbw) ****
             **** DENSITY FILE WAS UPDATED (21-150_DFT_AB.scfp.tmp) ****
             **** ENERGY FILE WAS UPDATED (21-150_DFT_AB.en.tmp) ****
----------------
ORBITAL ENERGIES
----------------

  NO   OCC          E(Eh)            E(eV) 
   0   2.0000     -19.258775      -524.0579 
   1   2.0000     -19.202568      -522.5284 
   2   2.0000     -10.327979      -281.0386 
   3   2.0000     -10.299443      -280.2621 
   4   2.0000      -1.133225       -30.8366 
   5   2.0000      -1.102526       -30.0013 
   6   2.0000      -0.817352       -22.2413 
   7   2.0000      -0.776143       -21.1199 
   8   2.0000      -0.618731       -16.8365 
   9   2.0000      -0.581308       -15.8182 
  10   2.0000      -0.548755       -14.9324 
  11   2.0000      -0.535137       -14.5618 
  12   2.0000      -0.526376       -14.3234 
  13   2.0000      -0.500949       -13.6315 
  14   2.0000      -0.458815       -12.4850 
  15   2.0000      -0.411269       -11.1912 
  16   2.0000      -0.395311       -10.7570 
  17   2.0000      -0.353187        -9.6107 
  18   0.0000       0.095312         2.5936 
  19   0.0000       0.135145         3.6775 
  20   0.0000       0.148812         4.0494 
  21   0.0000       0.178192         4.8488 
  22   0.0000       0.194842         5.3019 
  23   0.0000       0.198319         5.3965 
  24   0.0000       0.210614         5.7311 
  25   0.0000       0.216060         5.8793 
  26   0.0000       0.229056         6.2329 
  27   0.0000       0.272763         7.4222 
  28   0.0000       0.288657         7.8548 
  29   0.0000       0.311463         8.4753 
  30   0.0000       0.332652         9.0519 
  31   0.0000       0.353618         9.6224 
  32   0.0000       0.364454         9.9173 
  33   0.0000       0.403293        10.9742 
  34   0.0000       0.435611        11.8536 
  35   0.0000       0.467462        12.7203 
  36   0.0000       0.476957        12.9787 
  37   0.0000       0.493675        13.4336 
  38   0.0000       0.523950        14.2574 
  39   0.0000       0.543017        14.7762 
  40   0.0000       0.559757        15.2318 
  41   0.0000       0.569231        15.4896 
  42   0.0000       0.571461        15.5503 
  43   0.0000       0.579996        15.7825 
  44   0.0000       0.596429        16.2297 
  45   0.0000       0.633730        17.2447 
  46   0.0000       0.638361        17.3707 
  47   0.0000       0.662248        18.0207 
  48   0.0000       0.689761        18.7694 
  49   0.0000       0.770510        20.9666 
  50   0.0000       0.790544        21.5118 
  51   0.0000       0.812106        22.0985 
  52   0.0000       0.842176        22.9168 
  53   0.0000       0.854542        23.2533 
  54   0.0000       0.916526        24.9399 
  55   0.0000       0.938964        25.5505 
  56   0.0000       0.987114        26.8607 
  57   0.0000       1.006091        27.3771 
  58   0.0000       1.020476        27.7686 
  59   0.0000       1.071761        29.1641 
  60   0.0000       1.081441        29.4275 
  61   0.0000       1.124974        30.6121 
  62   0.0000       1.387039        37.7432 
  63   0.0000       1.408407        38.3247 
  64   0.0000       1.501204        40.8498 
  65   0.0000       1.526078        41.5267 
  66   0.0000       1.531544        41.6754 
  67   0.0000       1.569750        42.7151 
  68   0.0000       1.572553        42.7913 
  69   0.0000       1.597251        43.4634 
  70   0.0000       1.607892        43.7530 
  71   0.0000       1.631620        44.3986 
  72   0.0000       1.642591        44.6972 
  73   0.0000       1.662544        45.2401 
  74   0.0000       1.676943        45.6319 
  75   0.0000       1.691470        46.0272 
  76   0.0000       1.705941        46.4210 
  77   0.0000       1.764395        48.0116 
  78   0.0000       1.781002        48.4635 
  79   0.0000       1.918251        52.1983 
  80   0.0000       1.946445        52.9655 
  81   0.0000       1.978002        53.8242 
  82   0.0000       1.996988        54.3408 
  83   0.0000       2.036739        55.4225 
  84   0.0000       2.049478        55.7691 
  85   0.0000       2.074182        56.4414 
  86   0.0000       2.082912        56.6789 
  87   0.0000       2.095855        57.0311 
  88   0.0000       2.122036        57.7435 
  89   0.0000       2.158375        58.7324 
  90   0.0000       2.238736        60.9191 
  91   0.0000       2.285344        62.1874 
  92   0.0000       2.314198        62.9725 
  93   0.0000       2.343625        63.7733 
  94   0.0000       2.355384        64.0933 
  95   0.0000       2.377886        64.7056 
  96   0.0000       2.392691        65.1084 
  97   0.0000       2.410074        65.5815 
  98   0.0000       2.434779        66.2537 
  99   0.0000       2.452580        66.7381 
 100   0.0000       2.532481        68.9123 
 101   0.0000       2.549156        69.3661 
 102   0.0000       2.578962        70.1771 
 103   0.0000       2.600707        70.7688 
 104   0.0000       2.661031        72.4103 
 105   0.0000       2.679897        72.9237 
 106   0.0000       2.694056        73.3090 
 107   0.0000       2.731138        74.3181 
 108   0.0000       2.783466        75.7420 
 109   0.0000       2.821980        76.7900 
 110   0.0000       2.865582        77.9764 
 111   0.0000       2.890684        78.6595 
 112   0.0000       2.910386        79.1956 
 113   0.0000       2.941569        80.0442 
 114   0.0000       2.960245        80.5524 
 115   0.0000       3.059291        83.2475 
 116   0.0000       3.103924        84.4621 
 117   0.0000       3.117572        84.8335 
 118   0.0000       3.180192        86.5374 
 119   0.0000       3.187873        86.7464 
 120   0.0000       3.210732        87.3685 
 121   0.0000       3.289202        89.5037 
 122   0.0000       3.344732        91.0148 
 123   0.0000       3.402788        92.5946 
 124   0.0000       3.418232        93.0148 
 125   0.0000       3.458267        94.1042 
 126   0.0000       3.477575        94.6296 
 127   0.0000       3.506461        95.4156 
 128   0.0000       3.518602        95.7460 
 129   0.0000       3.594440        97.8097 
 130   0.0000       3.627591        98.7118 
 131   0.0000       3.642656        99.1217 
 132   0.0000       3.674630        99.9918 
 133   0.0000       3.704009       100.7912 
 134   0.0000       3.919412       106.6526 
 135   0.0000       4.046973       110.1237 
 136   0.0000       4.166359       113.3724 
 137   0.0000       4.248624       115.6109 
 138   0.0000       4.339045       118.0714 
 139   0.0000       4.357168       118.5646 
 140   0.0000       4.397205       119.6540 
 141   0.0000       4.476259       121.8052 
 142   0.0000       4.576335       124.5284 
 143   0.0000       4.596069       125.0654 
 144   0.0000       5.311867       144.5432 
 145   0.0000       5.356945       145.7699 
 146   0.0000       5.358601       145.8149 
 147   0.0000       5.448921       148.2727 
 148   0.0000       5.493366       149.4821 
 149   0.0000       5.571902       151.6192 
 150   0.0000       5.702620       155.1762 
 151   0.0000       5.765187       156.8787 
 152   0.0000       5.798786       157.7930 
 153   0.0000       5.806100       157.9920 
 154   0.0000       5.852355       159.2507 
 155   0.0000       5.980945       162.7498 
 156   0.0000       6.226361       169.4279 
 157   0.0000       6.380755       173.6292 
 158   0.0000       6.527246       177.6154 
 159   0.0000       6.550468       178.2473 
 160   0.0000       6.698570       182.2774 
 161   0.0000       6.736673       183.3142 
 162   0.0000       6.778645       184.4563 
 163   0.0000       6.817385       185.5105 
 164   0.0000       7.027547       191.2293 
 165   0.0000       7.080411       192.6678 
 166   0.0000       7.123206       193.8323 
 167   0.0000       7.273722       197.9280 
 168   0.0000      22.314307       607.2032 
 169   0.0000      22.335337       607.7754 
 170   0.0000      43.644854      1187.6369 
 171   0.0000      43.774870      1191.1748 

                    ********************************
                    * MULLIKEN POPULATION ANALYSIS *
                    ********************************

-----------------------
MULLIKEN ATOMIC CHARGES
-----------------------
   0 C :   -0.172107
   1 O :   -0.519460
   2 H :    0.333047
   3 H :    0.119560
   4 H :    0.118835
   5 H :    0.138763
   6 C :   -0.155842
   7 O :   -0.491775
   8 H :    0.315646
   9 H :    0.111829
  10 H :    0.099734
  11 H :    0.101771
Sum of atomic charges:   -0.0000000

--------------------------------
MULLIKEN REDUCED ORBITAL CHARGES
--------------------------------
  0 C s       :     3.217154  s :     3.217154
      pz      :     0.728542  p :     2.862451
      px      :     1.054086
      py      :     1.079823
      dz2     :     0.017115  d :     0.086042
      dxz     :     0.025136
      dyz     :     0.029844
      dx2y2   :     0.012027
      dxy     :     0.001920
      f0      :     0.001897  f :     0.006460
      f+1     :     0.001722
      f-1     :     0.001358
      f+2     :     0.000649
      f-2     :     0.000325
      f+3     :     0.000420
      f-3     :     0.000089
  1 O s       :     3.808330  s :     3.808330
      pz      :     1.278107  p :     4.683315
      px      :     1.840666
      py      :     1.564542
      dz2     :     0.004967  d :     0.026365
      dxz     :     0.005179
      dyz     :     0.009454
      dx2y2   :     0.003941
      dxy     :     0.002824
      f0      :     0.000357  f :     0.001450
      f+1     :     0.000258
      f-1     :     0.000176
      f+2     :     0.000300
      f-2     :     0.000140
      f+3     :     0.000118
      f-3     :     0.000102
  2 H s       :     0.623707  s :     0.623707
      pz      :     0.013005  p :     0.043246
      px      :     0.014699
      py      :     0.015542
  3 H s       :     0.860579  s :     0.860579
      pz      :     0.002893  p :     0.019861
      px      :     0.012452
      py      :     0.004515
  4 H s       :     0.861002  s :     0.861002
      pz      :     0.004394  p :     0.020163
      px      :     0.005011
      py      :     0.010757
  5 H s       :     0.839707  s :     0.839707
      pz      :     0.006612  p :     0.021530
      px      :     0.006078
      py      :     0.008840
  6 C s       :     3.226402  s :     3.226402
      pz      :     1.040132  p :     2.829386
      px      :     0.743150
      py      :     1.046105
      dz2     :     0.005604  d :     0.092935
      dxz     :     0.034467
      dyz     :     0.007659
      dx2y2   :     0.028980
      dxy     :     0.016225
      f0      :     0.001019  f :     0.007119
      f+1     :     0.001210
      f-1     :     0.000209
      f+2     :     0.000911
      f-2     :     0.000691
      f+3     :     0.001735
      f-3     :     0.001345
  7 O s       :     3.791506  s :     3.791506
      pz      :     1.858165  p :     4.670247
      px      :     1.419492
      py      :     1.392590
      dz2     :     0.003749  d :     0.028491
      dxz     :     0.004028
      dyz     :     0.003003
      dx2y2   :     0.013052
      dxy     :     0.004659
      f0      :     0.000278  f :     0.001531
      f+1     :     0.000229
      f-1     :     0.000201
      f+2     :     0.000264
      f-2     :     0.000068
      f+3     :     0.000131
      f-3     :     0.000359
  8 H s       :     0.632124  s :     0.632124
      pz      :     0.017512  p :     0.052230
      px      :     0.010590
      py      :     0.024127
  9 H s       :     0.868566  s :     0.868566
      pz      :     0.004877  p :     0.019605
      px      :     0.002743
      py      :     0.011985
 10 H s       :     0.882147  s :     0.882147
      pz      :     0.009629  p :     0.018119
      px      :     0.004987
      py      :     0.003503
 11 H s       :     0.877747  s :     0.877747
      pz      :     0.009618  p :     0.020482
      px      :     0.005041
      py      :     0.005824


                     *******************************
                     * LOEWDIN POPULATION ANALYSIS *
                     *******************************

----------------------
LOEWDIN ATOMIC CHARGES
----------------------
   0 C :   -0.341552
   1 O :   -0.126883
   2 H :    0.191883
   3 H :    0.104457
   4 H :    0.099944
   5 H :    0.102949
   6 C :   -0.374500
   7 O :   -0.102715
   8 H :    0.149378
   9 H :    0.106871
  10 H :    0.099821
  11 H :    0.090347

-------------------------------
LOEWDIN REDUCED ORBITAL CHARGES
-------------------------------
  0 C s       :     2.862263  s :     2.862263
      pz      :     0.843171  p :     3.065439
      px      :     1.102895
      py      :     1.119373
      dz2     :     0.089403  d :     0.367970
      dxz     :     0.093647
      dyz     :     0.111452
      dx2y2   :     0.061206
      dxy     :     0.012263
      f0      :     0.011261  f :     0.045880
      f+1     :     0.013068
      f-1     :     0.008904
      f+2     :     0.003929
      f-2     :     0.005566
      f+3     :     0.002354
      f-3     :     0.000798
  1 O s       :     3.413368  s :     3.413368
      pz      :     1.327323  p :     4.650813
      px      :     1.775027
      py      :     1.548462
      dz2     :     0.014759  d :     0.059175
      dxz     :     0.013012
      dyz     :     0.022914
      dx2y2   :     0.005742
      dxy     :     0.002748
      f0      :     0.001019  f :     0.003528
      f+1     :     0.000638
      f-1     :     0.000529
      f+2     :     0.000660
      f-2     :     0.000408
      f+3     :     0.000136
      f-3     :     0.000138
  2 H s       :     0.664695  s :     0.664695
      pz      :     0.037479  p :     0.143421
      px      :     0.041316
      py      :     0.064627
  3 H s       :     0.835921  s :     0.835921
      pz      :     0.009137  p :     0.059621
      px      :     0.036855
      py      :     0.013629
  4 H s       :     0.837394  s :     0.837394
      pz      :     0.014031  p :     0.062663
      px      :     0.016046
      py      :     0.032586
  5 H s       :     0.828749  s :     0.828749
      pz      :     0.020242  p :     0.068302
      px      :     0.019099
      py      :     0.028961
  6 C s       :     2.874061  s :     2.874061
      pz      :     1.091563  p :     3.055282
      px      :     0.878216
      py      :     1.085504
      dz2     :     0.044372  d :     0.393346
      dxz     :     0.139022
      dyz     :     0.025243
      dx2y2   :     0.120393
      dxy     :     0.064316
      f0      :     0.006531  f :     0.051811
      f+1     :     0.007464
      f-1     :     0.003301
      f+2     :     0.004685
      f-2     :     0.007009
      f+3     :     0.012096
      f-3     :     0.010724
  7 O s       :     3.378986  s :     3.378986
      pz      :     1.766963  p :     4.654917
      px      :     1.489497
      py      :     1.398457
      dz2     :     0.006622  d :     0.064660
      dxz     :     0.010479
      dyz     :     0.006022
      dx2y2   :     0.028855
      dxy     :     0.012682
      f0      :     0.000530  f :     0.004151
      f+1     :     0.000412
      f-1     :     0.000230
      f+2     :     0.000710
      f-2     :     0.000221
      f+3     :     0.000895
      f-3     :     0.001153
  8 H s       :     0.681165  s :     0.681165
      pz      :     0.051986  p :     0.169457
      px      :     0.032299
      py      :     0.085172
  9 H s       :     0.834973  s :     0.834973
      pz      :     0.014655  p :     0.058156
      px      :     0.008635
      py      :     0.034865
 10 H s       :     0.844457  s :     0.844457
      pz      :     0.029059  p :     0.055722
      px      :     0.015151
      py      :     0.011513
 11 H s       :     0.845785  s :     0.845785
      pz      :     0.029465  p :     0.063869
      px      :     0.015697
      py      :     0.018706


                      *****************************
                      * MAYER POPULATION ANALYSIS *
                      *****************************

  NA   - Mulliken gross atomic population
  ZA   - Total nuclear charge
  QA   - Mulliken gross atomic charge
  VA   - Mayer's total valence
  BVA  - Mayer's bonded valence
  FA   - Mayer's free valence

  ATOM       NA         ZA         QA         VA         BVA        FA
  0 C      6.1721     6.0000    -0.1721     3.8909     3.8909    -0.0000
  1 O      8.5195     8.0000    -0.5195     1.8859     1.8859    -0.0000
  2 H      0.6670     1.0000     0.3330     0.8996     0.8996     0.0000
  3 H      0.8804     1.0000     0.1196     0.9559     0.9559    -0.0000
  4 H      0.8812     1.0000     0.1188     0.9632     0.9632    -0.0000
  5 H      0.8612     1.0000     0.1388     0.9597     0.9597    -0.0000
  6 C      6.1558     6.0000    -0.1558     3.9342     3.9342    -0.0000
  7 O      8.4918     8.0000    -0.4918     1.8750     1.8750    -0.0000
  8 H      0.6844     1.0000     0.3156     0.9428     0.9428    -0.0000
  9 H      0.8882     1.0000     0.1118     0.9565     0.9565    -0.0000
 10 H      0.9003     1.0000     0.0997     0.9624     0.9624    -0.0000
 11 H      0.8982     1.0000     0.1018     0.9602     0.9602    -0.0000

  Mayer bond orders larger than 0.1
B(  0-C ,  1-O ) :   0.9580 B(  0-C ,  3-H ) :   0.9721 B(  0-C ,  4-H ) :   0.9702 
B(  0-C ,  5-H ) :   0.9755 B(  1-O ,  2-H ) :   0.8826 B(  6-C ,  7-O ) :   0.9989 
B(  6-C ,  9-H ) :   0.9750 B(  6-C , 10-H ) :   0.9705 B(  6-C , 11-H ) :   0.9807 
B(  7-O ,  8-H ) :   0.8856 

-------
TIMINGS
-------

Total SCF time: 0 days 0 hours 0 min 17 sec 

Total time                  ....      17.194 sec
Sum of individual times     ....      16.854 sec  ( 98.0%)

Fock matrix formation       ....      16.312 sec  ( 94.9%)
  XC integration            ....       6.988 sec  ( 42.8% of F)
    Basis function eval.    ....       0.062 sec  (  0.9% of XC)
    Density eval.           ....       0.076 sec  (  1.1% of XC)
    XC-Functional eval.     ....       0.102 sec  (  1.5% of XC)
    XC-Potential eval.      ....       0.071 sec  (  1.0% of XC)
Diagonalization             ....       0.051 sec  (  0.3%)
Density matrix formation    ....       0.007 sec  (  0.0%)
Population analysis         ....       0.021 sec  (  0.1%)
Initial guess               ....       0.098 sec  (  0.6%)
Orbital Transformation      ....       0.000 sec  (  0.0%)
Orbital Orthonormalization  ....       0.000 sec  (  0.0%)
DIIS solution               ....       0.033 sec  (  0.2%)
SOSCF solution              ....       0.047 sec  (  0.3%)
Grid generation             ....       0.286 sec  (  1.7%)


-------------------------------------------------------------------------------
                          DFT DISPERSION CORRECTION                            
                                                                               
                              DFTD3 V3.1  Rev 1                                
                              USING zero damping                               
-------------------------------------------------------------------------------
The omegaB97X-D3 functional is recognized. Fit by Chai et al.
Active option DFTDOPT                   ...         3   

molecular C6(AA) [au] = 835.209935 


            DFT-D V3
 parameters
 s6 scaling factor         :     1.0000 
 rs6 scaling factor        :     1.2810 
 s8 scaling factor         :     1.0000 
 rs8 scaling factor        :     1.0940 
 Damping factor alpha6     :    14.0000 
 Damping factor alpha8     :    16.0000 
 ad hoc parameters k1-k3   :    16.0000     1.3333    -4.0000 

 Edisp/kcal,au: -1.039310566134  -0.001656246636 
 E6   /kcal   :  -0.471156018 
 E8   /kcal   :  -0.568154549 
 % E8         :  54.666484400 

-------------------------   ----------------
Dispersion correction           -0.001656247
-------------------------   ----------------


-------------------------   --------------------
FINAL SINGLE POINT ENERGY      -231.472742478251
-------------------------   --------------------


                            ***************************************
                            *     ORCA property calculations      *
                            ***************************************

                                    ---------------------
                                    Active property flags
                                    ---------------------
   (+) Dipole Moment


------------------------------------------------------------------------------
                       ORCA ELECTRIC PROPERTIES CALCULATION
------------------------------------------------------------------------------

Dipole Moment Calculation                       ... on
Quadrupole Moment Calculation                   ... off
Polarizability Calculation                      ... off
GBWName                                         ... 21-150_DFT_AB.gbw
Electron density file                           ... 21-150_DFT_AB.scfp.tmp
The origin for moment calculation is the CENTER OF MASS  = (-10.061862,  7.393285 -7.923607)

-------------
DIPOLE MOMENT
-------------
                                X             Y             Z
Electronic contribution:      1.08247       0.39362      -1.48818
Nuclear contribution   :     -1.29985       0.75756       1.99416
                        -----------------------------------------
Total Dipole Moment    :     -0.21738       1.15119       0.50598
                        -----------------------------------------
Magnitude (a.u.)       :      1.27613
Magnitude (Debye)      :      3.24366



--------------------
Rotational spectrum 
--------------------
 
Rotational constants in cm-1:     0.540386     0.066679     0.066311 
Rotational constants in MHz : 16200.352610  1998.984464  1987.947853 

 Dipole components along the rotational axes: 
x,y,z [a.u.] :    -1.175904     0.456450    -0.193396 
x,y,z [Debye]:    -2.988910     1.160205    -0.491574 

 
------------------------------------------------------------------------------
                      ORCA CHELPG CHARGES GENERATION
------------------------------------------------------------------------------

GBW file                           ... 21-150_DFT_AB.gbw

Reading the GBW file               ... done

Grid spacing                       ...     0.300000
Point Cut-Off                      ...     2.800000
Van-der-Waals Radii                ...        COSMO
Total charge                       ...            0


Number of points X direction       ...           29
Number of points Y direction       ...           37
Number of points Z direction       ...           31
Maximum number of possible points  ...        33263
Final number of points             ...        10210


CHELPG Charges            
--------------------------------
  0   C   :       0.032857
  1   O   :      -0.606443
  2   H   :       0.406442
  3   H   :       0.034578
  4   H   :       0.042836
  5   H   :       0.110710
  6   C   :       0.045255
  7   O   :      -0.612193
  8   H   :       0.411460
  9   H   :       0.078509
 10   H   :       0.029248
 11   H   :       0.026741
--------------------------------
Total charge:     0.000000
--------------------------------

CHELPG charges calculated...

Timings for individual parts in CHELPG calculation:
Grid generation                 ...        0.002 sec (=   0.000 min)
Potential calculation           ...        2.156 sec (=   0.036 min)
Fit to the potential            ...        0.003 sec (=   0.000 min)
------------------------------------------------------------------------------


Timings for individual modules:

Sum of individual times         ...       24.183 sec (=   0.403 min)
GTO integral calculation        ...        2.818 sec (=   0.047 min)  11.7 %
SCF iterations                  ...       19.169 sec (=   0.319 min)  79.3 %
CHELPG charge generation        ...        2.197 sec (=   0.037 min)   9.1 %


                 $$$$$$$$$$$$$$$$  JOB NUMBER  2 $$$$$$$$$$$$$$


                       ****************************
                       * Single Point Calculation *
                       ****************************

---------------------------------
CARTESIAN COORDINATES (ANGSTROEM)
---------------------------------
  C     -4.797981    5.631424   -2.623240
  O     -5.237484    5.394242   -4.010165
  H     -5.022059    6.181057   -4.583868
  H     -3.706506    5.559531   -2.455493
  H     -5.119891    6.579351   -2.201764
  H     -5.126361    4.857216   -1.992728
  C     -6.318035    2.005671   -5.095048
  O     -4.973212    2.520542   -5.011633
  H     -5.038629    3.425141   -4.704228
  H     -6.272980    0.946138   -5.394079
  H     -6.893007    2.105959   -4.134858
  H     -6.809048    2.450537   -5.941331

----------------------------
CARTESIAN COORDINATES (A.U.)
----------------------------
  NO LB      ZA    FRAG     MASS         X           Y           Z
   0 C     6.0000    0    12.011   -9.066870   10.641849   -4.957205
   1 O     8.0000    0    15.999   -9.897410   10.193640   -7.578114
   2 H     1.0000    0     1.008   -9.490316   11.680505   -8.662255
   3 H     1.0000    0     1.008   -7.004281   10.505991   -4.640209
   4 H     1.0000    0     1.008   -9.675192   12.433172   -4.160731
   5 H     1.0000    0     1.008   -9.687418    9.178808   -3.765710
   6 C     0.0000    0     0.000  -11.939356    3.790169   -9.628245
   7 O     0.0000    0     0.000   -9.398009    4.763134   -9.470614
   8 H     0.0000    0     0.000   -9.521629    6.472578   -8.889703
   9 H     0.0000    0     0.000  -11.854214    1.787942  -10.193332
  10 H     0.0000    0     0.000  -13.025895    3.979686   -7.813749
  11 H     0.0000    0     0.000  -12.867236    4.630844  -11.227488

--------------------------------
INTERNAL COORDINATES (ANGSTROEM)
--------------------------------
 C      0   0   0     0.000000000000     0.00000000     0.00000000
 O      1   0   0     1.474102826725     0.00000000     0.00000000
 H      2   1   0     0.997306826939   110.48058611     0.00000000
 H      1   2   3     1.106627911759   115.22875388   285.30811812
 H      1   2   3     1.086201484074   114.65388885    50.00341245
 H      1   2   3     1.051083647389   110.65434185   173.11734980
 C      2   1   3     3.718464065892   120.51510285   168.75421390
 O      7   2   1     1.442428199321    52.18751611   276.62457546
 H      8   7   2     0.957641148194   106.98084256   359.60918287
 H      7   2   1     1.101843759376   160.66291308   286.54841183
 H      7   2   1     1.123661568190    79.51664535    47.39980855
 H      7   2   1     1.074799720978    89.15733003   161.71299125

---------------------------
INTERNAL COORDINATES (A.U.)
---------------------------
 C      0   0   0     0.000000000000     0.00000000     0.00000000
 O      1   0   0     2.785650635749     0.00000000     0.00000000
 H      2   1   0     1.884636774405   110.48058611     0.00000000
 H      1   2   3     2.091223685377   115.22875388   285.30811812
 H      1   2   3     2.052623331159   114.65388885    50.00341245
 H      1   2   3     1.986260237408   110.65434185   173.11734980
 C      2   1   3     7.026878723363   120.51510285   168.75421390
 O      7   2   1     2.725794264561    52.18751611   276.62457546
 H      8   7   2     1.809679504661   106.98084256   359.60918287
 H      7   2   1     2.082182947590   160.66291308   286.54841183
 H      7   2   1     2.123412631092    79.51664535    47.39980855
 H      7   2   1     2.031077121463    89.15733003   161.71299125

---------------------
BASIS SET INFORMATION
---------------------
There are 3 groups of distinct atoms

 Group   1 Type C   : 11s6p2d1f contracted to 5s3p2d1f pattern {62111/411/11/1}
 Group   2 Type O   : 11s6p2d1f contracted to 5s3p2d1f pattern {62111/411/11/1}
 Group   3 Type H   : 5s1p contracted to 3s1p pattern {311/1}

Atom   0C    basis set group =>   1
Atom   1O    basis set group =>   2
Atom   2H    basis set group =>   3
Atom   3H    basis set group =>   3
Atom   4H    basis set group =>   3
Atom   5H    basis set group =>   3
Atom   6C    basis set group =>   1
Atom   7O    basis set group =>   2
Atom   8H    basis set group =>   3
Atom   9H    basis set group =>   3
Atom  10H    basis set group =>   3
Atom  11H    basis set group =>   3


           ************************************************************
           *        Program running with 8 parallel MPI-processes     *
           *              working on a common directory               *
           ************************************************************
------------------------------------------------------------------------------
                           ORCA GTO INTEGRAL CALCULATION
------------------------------------------------------------------------------

                         BASIS SET STATISTICS AND STARTUP INFO

 # of primitive gaussian shells          ...  128
 # of primitive gaussian functions       ...  248
 # of contracted shells                  ...   76
 # of contracted basis functions         ...  172
 Highest angular momentum                ...    3
 Maximum contraction depth               ...    6
 Integral package used                   ... LIBINT
 Integral threshhold            Thresh   ...  2.500e-11
 Primitive cut-off              TCut     ...  2.500e-12


------------------------------ INTEGRAL EVALUATION ----------------------------


 * One electron integrals 
 Pre-screening matrix                    ... done
 Shell pair data                         ... done (   0.001 sec)



           ************************************************************
           *        Program running with 8 parallel MPI-processes     *
           *              working on a common directory               *
           ************************************************************
-------------------------------------------------------------------------------
                                 ORCA SCF
-------------------------------------------------------------------------------

------------
SCF SETTINGS
------------
Hamiltonian:
 Density Functional     Method          .... DFT(GTOs)
 Exchange Functional    Exchange        .... WB97X-D3
 Correlation Functional Correlation     .... WB97X-D3
 Gradients option       PostSCFGGA      .... off
 Hybrid DFT is turned on
   Fraction HF Exchange ScalHFX         ....  0.195728
   Scaling of DF-GGA-X  ScalDFX         ....  0.000000
   Scaling of DF-GGA-C  ScalDFC         ....  1.000000
   Scaling of DF-LDA-C  ScalLDAC        ....  1.000000
   Perturbative correction              ....  0.000000
   Density functional embedding theory  .... OFF
 Long-range corrected/Screened/Range-Separated Hybrid DFT is turned on
   Amount of maximum screened exact exchange              ....  0.804272
   Range separation parameter mu (erf(mu*r12)/r12)        ....  0.250000


General Settings:
 Integral files         IntName         .... 21-150_DFT_A
 Hartree-Fock type      HFTyp           .... RHF
 Total Charge           Charge          ....    0
 Multiplicity           Mult            ....    1
 Number of Electrons    NEL             ....   18
 Basis Dimension        Dim             ....  172
 Nuclear Repulsion      ENuc            ....     39.2856964725 Eh

Convergence Acceleration:
 DIIS                   CNVDIIS         .... on
   Start iteration      DIISMaxIt       ....    12
   Startup error        DIISStart       ....  0.200000
   # of expansion vecs  DIISMaxEq       ....     5
   Bias factor          DIISBfac        ....   1.050
   Max. coefficient     DIISMaxC        ....  10.000
 Newton-Raphson         CNVNR           .... off
 SOSCF                  CNVSOSCF        .... on
   Start iteration      SOSCFMaxIt      ....   150
   Startup grad/error   SOSCFStart      ....  0.003300
 Level Shifting         CNVShift        .... on
   Level shift para.    LevelShift      ....    0.2500
   Turn off err/grad.   ShiftErr        ....    0.0010
 Zerner damping         CNVZerner       .... off
 Static damping         CNVDamp         .... on
   Fraction old density DampFac         ....    0.7000
   Max. Damping (<1)    DampMax         ....    0.9800
   Min. Damping (>=0)   DampMin         ....    0.0000
   Turn off err/grad.   DampErr         ....    0.1000
 Fernandez-Rico         CNVRico         .... off

SCF Procedure:
 Maximum # iterations   MaxIter         ....  1000
 SCF integral mode      SCFMode         .... Direct
   Integral package                     .... LIBINT
 Reset frequency        DirectResetFreq ....    20
 Integral Threshold     Thresh          ....  2.500e-11 Eh
 Primitive CutOff       TCut            ....  2.500e-12 Eh

Convergence Tolerance:
 Convergence Check Mode ConvCheckMode   .... Total+1el-Energy
 Convergence forced     ConvForced      .... 0
 Energy Change          TolE            ....  1.000e-08 Eh
 1-El. energy change                    ....  1.000e-05 Eh
 Orbital Gradient       TolG            ....  1.000e-05
 Orbital Rotation angle TolX            ....  1.000e-05
 DIIS Error             TolErr          ....  5.000e-07


Diagonalization of the overlap matrix:
Smallest eigenvalue                        ... 1.545e-03
Time for diagonalization                   ...    0.004 sec
Threshold for overlap eigenvalues          ... 1.000e-08
Number of eigenvalues below threshold      ... 0
Time for construction of square roots      ...    0.006 sec
Total time needed                          ...    0.011 sec

-------------------
DFT GRID GENERATION
-------------------

General Integration Accuracy     IntAcc      ...  4.340
Radial Grid Type                 RadialGrid  ... Gauss-Chebyshev
Angular Grid (max. acc.)         AngularGrid ... Lebedev-110
Angular grid pruning method      GridPruning ... 3 (G Style)
Weight generation scheme         WeightScheme... Becke
Basis function cutoff            BFCut       ...    1.0000e-11
Integration weight cutoff        WCut        ...    1.0000e-14
Grids for H and He will be reduced by one unit

# of grid points (after initial pruning)     ...  13096 (   0.0 sec)
# of grid points (after weights+screening)   ...  12533 (   0.0 sec)
nearest neighbour list constructed           ...    0.0 sec
Grid point re-assignment to atoms done       ...    0.0 sec
Grid point division into batches done        ...    0.0 sec
Reduced shell lists constructed in    0.0 sec

Total number of grid points                  ...    12533
Total number of batches                      ...      203
Average number of points per batch           ...       61
Average number of grid points per atom       ...     1044
Average number of shells per batch           ...    56.63 (74.51%)
Average number of basis functions per batch  ...   127.22 (73.97%)
Average number of large shells per batch     ...    46.74 (82.54%)
Average number of large basis fcns per batch ...   103.93 (81.69%)
Maximum spatial batch extension              ...  11.59,  6.28,  4.51 au
Average spatial batch extension              ...   0.28,  0.23,  0.22 au

Time for grid setup =    0.043 sec

------------------------------
INITIAL GUESS: MODEL POTENTIAL
------------------------------
Loading Hartree-Fock densities                     ... done
Calculating cut-offs                               ... done
Setting up the integral package                    ... done
Initializing the effective Hamiltonian             ... done
Starting the Coulomb interaction                   ... done (   0.0 sec)
Reading the grid                                   ... done
Mapping shells                                     ... done
Starting the XC term evaluation                    ... done (   0.0 sec)
  promolecular density results
     # of electrons  =     17.997837962
     EX              =    -14.407926167
     EC              =     -0.571568492
     EX+EC           =    -14.979494659
Transforming the Hamiltonian                       ... done (   0.0 sec)
Diagonalizing the Hamiltonian                      ... done (   0.0 sec)
Back transforming the eigenvectors                 ... done (   0.0 sec)
Now organizing SCF variables                       ... done
                      ------------------
                      INITIAL GUESS DONE (   0.2 sec)
                      ------------------
--------------
SCF ITERATIONS
--------------
ITER       Energy         Delta-E        Max-DP      RMS-DP      [F,P]     Damp
               ***  Starting incremental Fock matrix formation  ***
  0   -115.6474634410   0.000000000000 0.03513540  0.00072430  0.2439593 0.7000
  1   -115.6823318430  -0.034868402056 0.02106367  0.00051160  0.1213132 0.7000
                               ***Turning on DIIS***
  2   -115.6984387965  -0.016106953481 0.03002696  0.00092173  0.0466090 0.0000
  3   -115.7248149449  -0.026376148413 0.01743661  0.00034405  0.0583961 0.0000
  4   -115.7290153863  -0.004200441385 0.00397513  0.00006708  0.0068367 0.0000
                      *** Initiating the SOSCF procedure ***
                           *** Shutting down DIIS ***
                      *** Re-Reading the Fockian *** 
                      *** Removing any level shift *** 
ITER      Energy       Delta-E        Grad      Rot      Max-DP    RMS-DP
  5   -115.72911337  -0.0000979832  0.000433  0.000433  0.000724  0.000022
               *** Restarting incremental Fock matrix formation ***
  6   -115.72912163  -0.0000082611  0.000116  0.000147  0.000561  0.000013
  7   -115.72912241  -0.0000007772  0.000039  0.000079  0.000246  0.000006
  8   -115.72912247  -0.0000000648  0.000018  0.000015  0.000028  0.000001
  9   -115.72912248  -0.0000000048  0.000010  0.000007  0.000016  0.000000
                  ***Gradient check signals convergence***
              ***Rediagonalizing the Fockian in SOSCF/NRSCF***

               *****************************************************
               *                     SUCCESS                       *
               *           SCF CONVERGED AFTER  10 CYCLES          *
               *****************************************************

Setting up the final grid:

General Integration Accuracy     IntAcc      ...  4.670
Radial Grid Type                 RadialGrid  ... Gauss-Chebyshev
Angular Grid (max. acc.)         AngularGrid ... Lebedev-302
Angular grid pruning method      GridPruning ... 3 (G Style)
Weight generation scheme         WeightScheme... Becke
Basis function cutoff            BFCut       ...    1.0000e-11
Integration weight cutoff        WCut        ...    1.0000e-14
Grids for H and He will be reduced by one unit

# of grid points (after initial pruning)     ...  52000 (   0.0 sec)
# of grid points (after weights+screening)   ...  49197 (   0.0 sec)
nearest neighbour list constructed           ...    0.0 sec
Grid point re-assignment to atoms done       ...    0.0 sec
Grid point division into batches done        ...    0.2 sec
Reduced shell lists constructed in    0.2 sec

Total number of grid points                  ...    49197
Total number of batches                      ...      774
Average number of points per batch           ...       63
Average number of grid points per atom       ...     4100
Average number of shells per batch           ...    55.69 (73.28%)
Average number of basis functions per batch  ...   123.86 (72.01%)
Average number of large shells per batch     ...    45.64 (81.95%)
Average number of large basis fcns per batch ...   101.01 (81.55%)
Maximum spatial batch extension              ...   8.24,  4.59,  3.93 au
Average spatial batch extension              ...   0.15,  0.14,  0.14 au

Final grid set up in    0.3 sec
Final integration                            ... done (   0.1 sec)
Change in XC energy                          ...    -0.000181168
Integrated number of electrons               ...    18.000042702
Previous integrated no of electrons          ...    18.001247012

----------------
TOTAL SCF ENERGY
----------------

Total Energy       :         -115.72930365 Eh           -3149.15445 eV

Components:
Nuclear Repulsion  :           39.28569647 Eh            1069.01815 eV
Electronic Energy  :         -155.01500012 Eh           -4218.17260 eV
One Electron Energy:         -235.05275766 Eh           -6396.11071 eV
Two Electron Energy:           80.03775754 Eh            2177.93811 eV

Virial components:
Potential Energy   :         -230.83625940 Eh           -6281.37396 eV
Kinetic Energy     :          115.10695575 Eh            3132.21950 eV
Virial Ratio       :            2.00540669


DFT components:
N(Alpha)           :        9.000021350857 electrons
N(Beta)            :        9.000021350857 electrons
N(Total)           :       18.000042701714 electrons
E(XC)              :      -10.624412034743 Eh       
DFET-embed. en.    :        0.000000000000 Eh       

---------------
SCF CONVERGENCE
---------------

  Last Energy change         ...   -1.9025e-09  Tolerance :   1.0000e-08
  Last MAX-Density change    ...    3.5813e-06  Tolerance :   1.0000e-07
  Last RMS-Density change    ...    9.0068e-08  Tolerance :   5.0000e-09
  Last Orbital Gradient      ...    1.8944e-06  Tolerance :   1.0000e-05
  Last Orbital Rotation      ...    1.8516e-06  Tolerance :   1.0000e-05

             **** THE GBW FILE WAS UPDATED (21-150_DFT_A.gbw) ****
             **** DENSITY FILE WAS UPDATED (21-150_DFT_A.scfp.tmp) ****
             **** ENERGY FILE WAS UPDATED (21-150_DFT_A.en.tmp) ****
----------------
ORBITAL ENERGIES
----------------

  NO   OCC          E(Eh)            E(eV) 
   0   2.0000     -19.236671      -523.4564 
   1   2.0000     -10.314786      -280.6796 
   2   2.0000      -1.111616       -30.2486 
   3   2.0000      -0.803208       -21.8564 
   4   2.0000      -0.598725       -16.2921 
   5   2.0000      -0.535414       -14.5694 
   6   2.0000      -0.519651       -14.1404 
   7   2.0000      -0.436575       -11.8798 
   8   2.0000      -0.376520       -10.2456 
   9   0.0000       0.098188         2.6718 
  10   0.0000       0.121918         3.3176 
  11   0.0000       0.143614         3.9079 
  12   0.0000       0.188667         5.1339 
  13   0.0000       0.198614         5.4046 
  14   0.0000       0.206182         5.6105 
  15   0.0000       0.216751         5.8981 
  16   0.0000       0.221613         6.0304 
  17   0.0000       0.236707         6.4411 
  18   0.0000       0.300704         8.1826 
  19   0.0000       0.304685         8.2909 
  20   0.0000       0.337745         9.1905 
  21   0.0000       0.344830         9.3833 
  22   0.0000       0.358086         9.7440 
  23   0.0000       0.370971        10.0946 
  24   0.0000       0.382296        10.4028 
  25   0.0000       0.450474        12.2580 
  26   0.0000       0.474424        12.9097 
  27   0.0000       0.491134        13.3644 
  28   0.0000       0.529841        14.4177 
  29   0.0000       0.543028        14.7765 
  30   0.0000       0.572882        15.5889 
  31   0.0000       0.584291        15.8994 
  32   0.0000       0.606565        16.5055 
  33   0.0000       0.632591        17.2137 
  34   0.0000       0.659809        17.9543 
  35   0.0000       0.666257        18.1298 
  36   0.0000       0.703388        19.1402 
  37   0.0000       0.739620        20.1261 
  38   0.0000       0.797445        21.6996 
  39   0.0000       0.807849        21.9827 
  40   0.0000       0.810784        22.0625 
  41   0.0000       0.838628        22.8202 
  42   0.0000       0.906205        24.6591 
  43   0.0000       0.990688        26.9580 
  44   0.0000       1.016058        27.6483 
  45   0.0000       1.054631        28.6980 
  46   0.0000       1.059685        28.8355 
  47   0.0000       1.089359        29.6430 
  48   0.0000       1.162583        31.6355 
  49   0.0000       1.172054        31.8932 
  50   0.0000       1.207054        32.8456 
  51   0.0000       1.230450        33.4822 
  52   0.0000       1.238995        33.7148 
  53   0.0000       1.377968        37.4964 
  54   0.0000       1.420374        38.6503 
  55   0.0000       1.434503        39.0348 
  56   0.0000       1.499838        40.8127 
  57   0.0000       1.517941        41.3053 
  58   0.0000       1.556373        42.3511 
  59   0.0000       1.582999        43.0756 
  60   0.0000       1.606516        43.7155 
  61   0.0000       1.625752        44.2389 
  62   0.0000       1.650050        44.9001 
  63   0.0000       1.679429        45.6996 
  64   0.0000       1.715443        46.6796 
  65   0.0000       1.812888        49.3312 
  66   0.0000       1.837012        49.9876 
  67   0.0000       1.947924        53.0057 
  68   0.0000       1.964495        53.4566 
  69   0.0000       1.986716        54.0613 
  70   0.0000       2.014905        54.8284 
  71   0.0000       2.053645        55.8825 
  72   0.0000       2.088691        56.8362 
  73   0.0000       2.107806        57.3563 
  74   0.0000       2.129804        57.9549 
  75   0.0000       2.192575        59.6630 
  76   0.0000       2.220970        60.4357 
  77   0.0000       2.252695        61.2990 
  78   0.0000       2.263194        61.5846 
  79   0.0000       2.304296        62.7031 
  80   0.0000       2.342498        63.7426 
  81   0.0000       2.373373        64.5827 
  82   0.0000       2.405903        65.4680 
  83   0.0000       2.447925        66.6114 
  84   0.0000       2.536819        69.0303 
  85   0.0000       2.546337        69.2894 
  86   0.0000       2.589331        70.4593 
  87   0.0000       2.640162        71.8425 
  88   0.0000       2.666364        72.5554 
  89   0.0000       2.673734        72.7560 
  90   0.0000       2.687374        73.1272 
  91   0.0000       2.715373        73.8891 
  92   0.0000       2.802990        76.2732 
  93   0.0000       2.838507        77.2397 
  94   0.0000       2.886464        78.5447 
  95   0.0000       2.931418        79.7679 
  96   0.0000       2.943672        80.1014 
  97   0.0000       2.985485        81.2392 
  98   0.0000       3.055507        83.1446 
  99   0.0000       3.106275        84.5260 
 100   0.0000       3.126220        85.0688 
 101   0.0000       3.165892        86.1483 
 102   0.0000       3.210160        87.3529 
 103   0.0000       3.223717        87.7218 
 104   0.0000       3.227774        87.8322 
 105   0.0000       3.322401        90.4071 
 106   0.0000       3.358055        91.3773 
 107   0.0000       3.388515        92.2062 
 108   0.0000       3.424358        93.1815 
 109   0.0000       3.437809        93.5475 
 110   0.0000       3.493880        95.0733 
 111   0.0000       3.533331        96.1468 
 112   0.0000       3.587350        97.6167 
 113   0.0000       3.640673        99.0678 
 114   0.0000       3.688621       100.3725 
 115   0.0000       3.723551       101.3230 
 116   0.0000       3.734504       101.6210 
 117   0.0000       3.938218       107.1644 
 118   0.0000       4.125036       112.2479 
 119   0.0000       4.160363       113.2092 
 120   0.0000       4.259555       115.9084 
 121   0.0000       4.261897       115.9721 
 122   0.0000       4.302750       117.0838 
 123   0.0000       4.319203       117.5315 
 124   0.0000       4.370147       118.9178 
 125   0.0000       4.409558       119.9902 
 126   0.0000       4.527383       123.1964 
 127   0.0000       4.565690       124.2388 
 128   0.0000       4.583366       124.7197 
 129   0.0000       4.597303       125.0990 
 130   0.0000       4.631511       126.0298 
 131   0.0000       5.023430       136.6945 
 132   0.0000       5.063007       137.7714 
 133   0.0000       5.143471       139.9610 
 134   0.0000       5.312106       144.5498 
 135   0.0000       5.366510       146.0302 
 136   0.0000       5.381275       146.4319 
 137   0.0000       5.503403       149.7552 
 138   0.0000       5.519171       150.1843 
 139   0.0000       5.724396       155.7687 
 140   0.0000       5.785595       157.4341 
 141   0.0000       5.813185       158.1848 
 142   0.0000       5.832260       158.7039 
 143   0.0000       5.874517       159.8537 
 144   0.0000       6.108942       166.2328 
 145   0.0000       6.248919       170.0417 
 146   0.0000       6.527785       177.6301 
 147   0.0000       6.604400       179.7149 
 148   0.0000       6.713658       182.6879 
 149   0.0000       6.720626       182.8775 
 150   0.0000       6.757028       183.8681 
 151   0.0000       6.862644       186.7420 
 152   0.0000       7.057347       192.0402 
 153   0.0000       7.080397       192.6674 
 154   0.0000       7.148116       194.5101 
 155   0.0000       7.202056       195.9779 
 156   0.0000       7.391564       201.1347 
 157   0.0000       8.125186       221.0976 
 158   0.0000       8.900997       242.2084 
 159   0.0000       9.349008       254.3995 
 160   0.0000       9.570555       260.4280 
 161   0.0000       9.639231       262.2968 
 162   0.0000       9.801027       266.6995 
 163   0.0000       9.902516       269.4612 
 164   0.0000       9.945220       270.6232 
[...]
  82   0.0000       2.380201        64.7686 
  83   0.0000       2.411726        65.6264 
  84   0.0000       2.481730        67.5313 
  85   0.0000       2.528521        68.8046 
  86   0.0000       2.553061        69.4723 
  87   0.0000       2.578514        70.1649 
  88   0.0000       2.601814        70.7990 
  89   0.0000       2.657791        72.3222 
  90   0.0000       2.667146        72.5767 
  91   0.0000       2.704640        73.5970 
  92   0.0000       2.787486        75.8513 
  93   0.0000       2.847796        77.4925 
  94   0.0000       2.856642        77.7332 
  95   0.0000       2.880608        78.3853 
  96   0.0000       2.903593        79.0108 
  97   0.0000       3.024183        82.2922 
  98   0.0000       3.054286        83.1113 
  99   0.0000       3.097372        84.2838 
 100   0.0000       3.125030        85.0364 
 101   0.0000       3.158070        85.9355 
 102   0.0000       3.165626        86.1411 
 103   0.0000       3.218223        87.5723 
 104   0.0000       3.269595        88.9702 
 105   0.0000       3.304196        89.9118 
 106   0.0000       3.332433        90.6801 
 107   0.0000       3.381266        92.0089 
 108   0.0000       3.385831        92.1331 
 109   0.0000       3.437974        93.5520 
 110   0.0000       3.488059        94.9149 
 111   0.0000       3.576465        97.3206 
 112   0.0000       3.609753        98.2264 
 113   0.0000       3.623936        98.6123 
 114   0.0000       3.657996        99.5391 
 115   0.0000       3.685066       100.2757 
 116   0.0000       3.785427       103.0067 
 117   0.0000       3.997572       108.7795 
 118   0.0000       4.021036       109.4180 
 119   0.0000       4.100846       111.5897 
 120   0.0000       4.147374       112.8558 
 121   0.0000       4.237964       115.3209 
 122   0.0000       4.257711       115.8582 
 123   0.0000       4.313634       117.3799 
 124   0.0000       4.327902       117.7682 
 125   0.0000       4.454524       121.2138 
 126   0.0000       4.495049       122.3165 
 127   0.0000       4.534795       123.3980 
 128   0.0000       4.571675       124.4016 
 129   0.0000       4.575703       124.5112 
 130   0.0000       4.615750       125.6009 
 131   0.0000       4.913907       133.7142 
 132   0.0000       5.090331       138.5149 
 133   0.0000       5.118424       139.2794 
 134   0.0000       5.199313       141.4805 
 135   0.0000       5.332073       145.0931 
 136   0.0000       5.423930       147.5926 
 137   0.0000       5.503841       149.7671 
 138   0.0000       5.561747       151.3428 
 139   0.0000       5.775000       157.1457 
 140   0.0000       5.782120       157.3395 
 141   0.0000       5.808408       158.0548 
 142   0.0000       5.956314       162.0795 
 143   0.0000       5.977502       162.6561 
 144   0.0000       6.173158       167.9802 
 145   0.0000       6.379210       173.5871 
 146   0.0000       6.524045       177.5283 
 147   0.0000       6.546431       178.1374 
 148   0.0000       6.608545       179.8277 
 149   0.0000       6.753538       183.7731 
 150   0.0000       6.783572       184.5904 
 151   0.0000       6.793122       184.8502 
 152   0.0000       6.994376       190.3266 
 153   0.0000       7.049795       191.8347 
 154   0.0000       7.075402       192.5315 
 155   0.0000       7.242399       197.0757 
 156   0.0000       7.247260       197.2080 
 157   0.0000       7.853874       213.7148 
 158   0.0000       8.845644       240.7022 
 159   0.0000       9.323365       253.7017 
 160   0.0000       9.520368       259.0624 
 161   0.0000       9.543641       259.6957 
 162   0.0000       9.723492       264.5897 
 163   0.0000       9.830306       267.4962 
 164   0.0000       9.904143       269.5054 
 165   0.0000      10.056655       273.6555 
 166   0.0000      11.035125       300.2810 
 167   0.0000      19.086599       519.3728 
 168   0.0000      22.315967       607.2483 
 169   0.0000      43.742685      1190.2990 
 170   0.0000      65.829216      1791.3040 
 171   0.0000     126.411828      3439.8407 

                    ********************************
                    * MULLIKEN POPULATION ANALYSIS *
                    ********************************

-----------------------
MULLIKEN ATOMIC CHARGES
-----------------------
   0 C :   -0.002732
   1 O :   -0.001960
   2 H :   -0.000274
   3 H :    0.000288
   4 H :   -0.000089
   5 H :   -0.000259
   6 C :   -0.172843
   7 O :   -0.475900
   8 H :    0.311681
   9 H :    0.121745
  10 H :    0.109436
  11 H :    0.110906
Sum of atomic charges:   -0.0000000

--------------------------------
MULLIKEN REDUCED ORBITAL CHARGES
--------------------------------
  0 C s       :     0.000655  s :     0.000655
      pz      :     0.000610  p :     0.002075
      px      :     0.000080
      py      :     0.001384
      dz2     :     0.000006  d :     0.000002
      dxz     :     0.000002
      dyz     :    -0.000021
      dx2y2   :     0.000020
      dxy     :    -0.000005
      f0      :    -0.000000  f :    -0.000000
      f+1     :     0.000000
      f-1     :    -0.000000
      f+2     :    -0.000000
      f-2     :    -0.000000
      f+3     :    -0.000000
      f-3     :     0.000000
  1 O s       :    -0.000701  s :    -0.000701
      pz      :     0.000912  p :     0.002744
      px      :    -0.000034
      py      :     0.001866
      dz2     :    -0.000007  d :    -0.000081
      dxz     :     0.000001
      dyz     :    -0.000036
      dx2y2   :    -0.000038
      dxy     :    -0.000001
      f0      :    -0.000000  f :    -0.000002
      f+1     :    -0.000000
      f-1     :    -0.000000
      f+2     :    -0.000001
      f-2     :    -0.000000
      f+3     :    -0.000000
      f-3     :    -0.000001
  2 H s       :     0.000279  s :     0.000279
      pz      :     0.000001  p :    -0.000005
      px      :    -0.000000
      py      :    -0.000006
  3 H s       :    -0.000287  s :    -0.000287
      pz      :    -0.000000  p :    -0.000001
      px      :     0.000000
      py      :    -0.000001
  4 H s       :     0.000089  s :     0.000089
      pz      :    -0.000000  p :    -0.000000
      px      :     0.000000
      py      :    -0.000000
  5 H s       :     0.000259  s :     0.000259
      pz      :    -0.000001  p :    -0.000000
      px      :    -0.000000
      py      :     0.000001
  6 C s       :     3.234909  s :     3.234909
      pz      :     1.044861  p :     2.838757
      px      :     0.736518
      py      :     1.057377
      dz2     :     0.005745  d :     0.092086
      dxz     :     0.033501
      dyz     :     0.008080
      dx2y2   :     0.028435
      dxy     :     0.016325
      f0      :     0.001016  f :     0.007092
      f+1     :     0.001214
      f-1     :     0.000215
      f+2     :     0.000917
      f-2     :     0.000678
      f+3     :     0.001693
      f-3     :     0.001359
  7 O s       :     3.795979  s :     3.795979
      pz      :     1.856500  p :     4.648704
      px      :     1.423147
      py      :     1.369058
      dz2     :     0.003849  d :     0.029629
      dxz     :     0.004083
      dyz     :     0.003305
      dx2y2   :     0.013693
      dxy     :     0.004700
      f0      :     0.000291  f :     0.001587
      f+1     :     0.000229
      f-1     :     0.000210
      f+2     :     0.000282
      f-2     :     0.000069
      f+3     :     0.000132
      f-3     :     0.000373
  8 H s       :     0.640258  s :     0.640258
      pz      :     0.017789  p :     0.048061
      px      :     0.011277
      py      :     0.018996
  9 H s       :     0.858496  s :     0.858496
      pz      :     0.004929  p :     0.019759
      px      :     0.002692
      py      :     0.012137
 10 H s       :     0.872466  s :     0.872466
      pz      :     0.009650  p :     0.018098
      px      :     0.004964
      py      :     0.003484
 11 H s       :     0.868650  s :     0.868650
      pz      :     0.009670  p :     0.020444
      px      :     0.004995
      py      :     0.005779


                     *******************************
                     * LOEWDIN POPULATION ANALYSIS *
                     *******************************

----------------------
LOEWDIN ATOMIC CHARGES
----------------------
   0 C :   -0.003191
   1 O :   -0.013239
   2 H :   -0.000895
   3 H :   -0.000085
   4 H :   -0.000081
   5 H :   -0.000398
   6 C :   -0.369169
   7 O :   -0.089343
   8 H :    0.169292
   9 H :    0.111426
  10 H :    0.102772
  11 H :    0.092910

-------------------------------
LOEWDIN REDUCED ORBITAL CHARGES
-------------------------------
  0 C s       :     0.000493  s :     0.000493
      pz      :     0.001182  p :     0.002654
      px      :     0.000094
      py      :     0.001378
      dz2     :     0.000004  d :     0.000043
      dxz     :     0.000004
      dyz     :     0.000008
      dx2y2   :     0.000024
      dxy     :     0.000002
      f0      :     0.000000  f :     0.000001
      f+1     :     0.000000
      f-1     :     0.000000
      f+2     :     0.000000
      f-2     :     0.000000
      f+3     :     0.000000
      f-3     :     0.000000
  1 O s       :     0.001675  s :     0.001675
      pz      :     0.001649  p :     0.011246
      px      :     0.000213
      py      :     0.009384
      dz2     :     0.000035  d :     0.000309
      dxz     :     0.000001
      dyz     :     0.000089
      dx2y2   :     0.000173
      dxy     :     0.000011
      f0      :     0.000001  f :     0.000009
      f+1     :     0.000000
      f-1     :     0.000001
      f+2     :     0.000003
      f-2     :     0.000000
      f+3     :     0.000000
      f-3     :     0.000004
  2 H s       :     0.000891  s :     0.000891
      pz      :     0.000002  p :     0.000005
      px      :     0.000001
      py      :     0.000002
  3 H s       :     0.000084  s :     0.000084
      pz      :     0.000000  p :     0.000001
      px      :     0.000000
      py      :     0.000001
  4 H s       :     0.000080  s :     0.000080
      pz      :     0.000000  p :     0.000001
      px      :     0.000000
      py      :     0.000001
  5 H s       :     0.000397  s :     0.000397
      pz      :     0.000000  p :     0.000001
      px      :     0.000000
      py      :     0.000001
  6 C s       :     2.874361  s :     2.874361
      pz      :     1.093121  p :     3.053709
      px      :     0.872034
      py      :     1.088554
      dz2     :     0.044249  d :     0.389410
      dxz     :     0.137140
      dyz     :     0.025299
      dx2y2   :     0.119216
      dxy     :     0.063506
      f0      :     0.006543  f :     0.051690
      f+1     :     0.007485
      f-1     :     0.003304
      f+2     :     0.004674
      f-2     :     0.007019
      f+3     :     0.011985
      f-3     :     0.010680
  7 O s       :     3.381180  s :     3.381180
      pz      :     1.765990  p :     4.637485
      px      :     1.493285
      py      :     1.378210
      dz2     :     0.006740  d :     0.066439
      dxz     :     0.010606
      dyz     :     0.006475
      dx2y2   :     0.029968
      dxy     :     0.012651
      f0      :     0.000545  f :     0.004238
      f+1     :     0.000408
      f-1     :     0.000236
      f+2     :     0.000742
      f-2     :     0.000225
      f+3     :     0.000903
      f-3     :     0.001179
  8 H s       :     0.670096  s :     0.670096
      pz      :     0.051647  p :     0.160612
      px      :     0.032864
      py      :     0.076100
  9 H s       :     0.830054  s :     0.830054
      pz      :     0.014681  p :     0.058520
      px      :     0.008464
      py      :     0.035374
 10 H s       :     0.841201  s :     0.841201
      pz      :     0.029266  p :     0.056027
      px      :     0.015191
      py      :     0.011570
 11 H s       :     0.842927  s :     0.842927
      pz      :     0.029766  p :     0.064162
      px      :     0.015673
      py      :     0.018723


                      *****************************
                      * MAYER POPULATION ANALYSIS *
                      *****************************

  NA   - Mulliken gross atomic population
  ZA   - Total nuclear charge
  QA   - Mulliken gross atomic charge
  VA   - Mayer's total valence
  BVA  - Mayer's bonded valence
  FA   - Mayer's free valence

  ATOM       NA         ZA         QA         VA         BVA        FA
  0 C      0.0027     0.0000    -0.0027     0.0055     0.0055    -0.0000
  1 O      0.0020     0.0000    -0.0020     0.0039     0.0039     0.0000
  2 H      0.0003     0.0000    -0.0003     0.0005     0.0005     0.0000
  3 H     -0.0003     0.0000     0.0003    -0.0006    -0.0006     0.0000
  4 H      0.0001     0.0000    -0.0001     0.0002     0.0002    -0.0000
  5 H      0.0003     0.0000    -0.0003     0.0005     0.0005    -0.0000
  6 C      6.1728     6.0000    -0.1728     3.9173     3.9173    -0.0000
  7 O      8.4759     8.0000    -0.4759     1.8947     1.8947     0.0000
  8 H      0.6883     1.0000     0.3117     0.9243     0.9243    -0.0000
  9 H      0.8783     1.0000     0.1217     0.9586     0.9586    -0.0000
 10 H      0.8906     1.0000     0.1094     0.9609     0.9609    -0.0000
 11 H      0.8891     1.0000     0.1109     0.9586     0.9586    -0.0000

  Mayer bond orders larger than 0.1
B(  6-C ,  7-O ) :   0.9865 B(  6-C ,  9-H ) :   0.9739 B(  6-C , 10-H ) :   0.9690 
B(  6-C , 11-H ) :   0.9783 B(  7-O ,  8-H ) :   0.9103 

-------
TIMINGS
-------

Total SCF time: 0 days 0 hours 0 min 14 sec 

Total time                  ....      14.475 sec
Sum of individual times     ....      14.119 sec  ( 97.5%)

Fock matrix formation       ....      13.492 sec  ( 93.2%)
  XC integration            ....       5.549 sec  ( 41.1% of F)
    Basis function eval.    ....       0.057 sec  (  1.0% of XC)
    Density eval.           ....       0.073 sec  (  1.3% of XC)
    XC-Functional eval.     ....       0.094 sec  (  1.7% of XC)
    XC-Potential eval.      ....       0.063 sec  (  1.1% of XC)
Diagonalization             ....       0.086 sec  (  0.6%)
Density matrix formation    ....       0.005 sec  (  0.0%)
Population analysis         ....       0.020 sec  (  0.1%)
Initial guess               ....       0.098 sec  (  0.7%)
Orbital Transformation      ....       0.000 sec  (  0.0%)
Orbital Orthonormalization  ....       0.000 sec  (  0.0%)
DIIS solution               ....       0.081 sec  (  0.6%)
SOSCF solution              ....       0.041 sec  (  0.3%)
Grid generation             ....       0.296 sec  (  2.0%)


-------------------------------------------------------------------------------
                          DFT DISPERSION CORRECTION                            
                                                                               
                              DFTD3 V3.1  Rev 1                                
                              USING zero damping                               
-------------------------------------------------------------------------------
The omegaB97X-D3 functional is recognized. Fit by Chai et al.
Active option DFTDOPT                   ...         3   

molecular C6(AA) [au] = 208.780221 


            DFT-D V3
 parameters
 s6 scaling factor         :     1.0000 
 rs6 scaling factor        :     1.2810 
 s8 scaling factor         :     1.0000 
 rs8 scaling factor        :     1.0940 
 Damping factor alpha6     :    14.0000 
 Damping factor alpha8     :    16.0000 
 ad hoc parameters k1-k3   :    16.0000     1.3333    -4.0000 

 Edisp/kcal,au: -0.158473330340  -0.000252543300 
 E6   /kcal   :  -0.031743107 
 E8   /kcal   :  -0.126730223 
 % E8         :  79.969432646 

-------------------------   ----------------
Dispersion correction           -0.000252543
-------------------------   ----------------


-------------------------   --------------------
FINAL SINGLE POINT ENERGY      -115.734620554947
-------------------------   --------------------


                            ***************************************
                            *     ORCA property calculations      *
                            ***************************************

                                    ---------------------
                                    Active property flags
                                    ---------------------
   (+) Dipole Moment


------------------------------------------------------------------------------
                       ORCA ELECTRIC PROPERTIES CALCULATION
------------------------------------------------------------------------------

Dipole Moment Calculation                       ... on
Quadrupole Moment Calculation                   ... off
Polarizability Calculation                      ... off
GBWName                                         ... 21-150_DFT_B.gbw
Electron density file                           ... 21-150_DFT_B.scfp.tmp
The origin for moment calculation is the CENTER OF MASS  = (-10.655061,  4.329790 -9.537310)

-------------
DIPOLE MOMENT
-------------
                                X             Y             Z
Electronic contribution:      1.70513       0.55785       0.11806
Nuclear contribution   :     -2.29808      -0.21908       0.01292
                        -----------------------------------------
Total Dipole Moment    :     -0.59295       0.33877       0.13098
                        -----------------------------------------
Magnitude (a.u.)       :      0.69535
Magnitude (Debye)      :      1.76743



--------------------
Rotational spectrum 
--------------------
 
Rotational constants in cm-1:     4.236452     0.804678     0.778111 
Rotational constants in MHz : 127005.642726 24123.641684 23327.190941 

 Dipole components along the rotational axes: 
x,y,z [a.u.] :    -0.390599    -0.555054    -0.151179 
x,y,z [Debye]:    -0.992824    -1.410835    -0.384267 

 
------------------------------------------------------------------------------
                      ORCA CHELPG CHARGES GENERATION
------------------------------------------------------------------------------

GBW file                           ... 21-150_DFT_B.gbw

Reading the GBW file               ... done

Grid spacing                       ...     0.300000
Point Cut-Off                      ...     2.800000
Van-der-Waals Radii                ...        COSMO
Total charge                       ...            0


Number of points X direction       ...           29
Number of points Y direction       ...           37
Number of points Z direction       ...           31
Maximum number of possible points  ...        33263
Final number of points             ...         6033


CHELPG Charges            
--------------------------------
  0   C   :       0.005854
  1   O   :       0.002031
  2   H   :       0.000938
  3   H   :      -0.010128
  4   H   :      -0.009531
  5   H   :       0.004238
  6   C   :      -0.021871
  7   O   :      -0.569189
  8   H   :       0.391434
  9   H   :       0.109005
 10   H   :       0.044812
 11   H   :       0.052409
--------------------------------
Total charge:     0.000000
--------------------------------

CHELPG charges calculated...

Timings for individual parts in CHELPG calculation:
Grid generation                 ...        0.001 sec (=   0.000 min)
Potential calculation           ...        1.225 sec (=   0.020 min)
Fit to the potential            ...        0.002 sec (=   0.000 min)
------------------------------------------------------------------------------


Timings for individual modules:

Sum of individual times         ...       16.981 sec (=   0.283 min)
GTO integral calculation        ...        0.818 sec (=   0.014 min)   4.8 %
SCF iterations                  ...       14.906 sec (=   0.248 min)  87.8 %
CHELPG charge generation        ...        1.257 sec (=   0.021 min)   7.4 %



                             ****ORCA TERMINATED NORMALLY****
TOTAL RUN TIME: 0 days 0 hours 1 minutes 4 seconds 362 msec
