
                                 *****************
                                 * O   R   C   A *
                                 *****************

           --- An Ab Initio, DFT and Semiempirical electronic structure package ---

                  #######################################################
                  #                        -***-                        #
                  #          Department of theory and spectroscopy      #
                  #               Directorship: Frank Neese             #
                  #        Max Planck Institute fuer Kohlenforschung    #
                  #                Kaiser Wilhelm Platz 1               #
                  #                 D-45470 Muelheim/Ruhr               #
                  #                      Germany                        #
                  #                                                     #
                  #                  All rights reserved                #
                  #                        -***-                        #
                  #######################################################


                         Program Version 4.1.2  - RELEASE  -


 With contributions from (in alphabetic order):
   Daniel Aravena         : Magnetic Properties
   Michael Atanasov       : Ab Initio Ligand Field Theory
   Alexander A. Auer      : GIAO ZORA
   Ute Becker             : Parallelization
   Giovanni Bistoni       : ED, Open-shell LED
   Martin Brehm           : Molecular dynamics
   Dmytro Bykov           : SCF Hessian
   Vijay G. Chilkuri      : MRCI spin determinant printing
   Dipayan Datta          : RHF DLPNO-CCSD density
   Achintya Kumar Dutta   : EOM-CC, STEOM-CC
   Dmitry Ganyushin       : Spin-Orbit,Spin-Spin,Magnetic field MRCI
   Miquel Garcia          : C-PCM Hessian
   Yang Guo               : DLPNO-NEVPT2, CIM, IAO-localization
   Andreas Hansen         : Spin unrestricted coupled pair/coupled cluster methods
   Benjamin Helmich-Paris : CASSCF linear response (MC-RPA)
   Lee Huntington         : MR-EOM, pCC
   Robert Izsak           : Overlap fitted RIJCOSX, COSX-SCS-MP3, EOM
   Christian Kollmar      : KDIIS, OOCD, Brueckner-CCSD(T), CCSD density
   Simone Kossmann        : Meta GGA functionals, TD-DFT gradient, OOMP2, MP2 Hessian
   Martin Krupicka        : AUTO-CI
   Lucas Lang             : DCDCAS
   Dagmar Lenk            : GEPOL surface, SMD
   Dimitrios Liakos       : Extrapolation schemes; parallel MDCI
   Dimitrios Manganas     : ROCIS; embedding schemes
   Dimitrios Pantazis     : SARC Basis sets
   Taras Petrenko         : DFT Hessian,TD-DFT gradient, ASA, ECA, R-Raman, ABS, FL, XAS/XES, NRVS
   Peter Pinski           : DLPNO-MP2, DLPNO-MP2 Gradient
   Christoph Reimann      : Effective Core Potentials
   Marius Retegan         : Local ZFS, SOC
   Christoph Riplinger    : Optimizer, TS searches, QM/MM, DLPNO-CCSD(T), (RO)-DLPNO pert. Triples
   Tobias Risthaus        : Range-separated hybrids, TD-DFT gradient, RPA, STAB
   Michael Roemelt        : Restricted open shell CIS
   Masaaki Saitow         : Open-shell DLPNO
   Barbara Sandhoefer     : DKH picture change effects
   Avijit Sen             : IP-ROCIS
   Kantharuban Sivalingam : CASSCF convergence, NEVPT2, FIC-MRCI
   Bernardo de Souza      : ESD, SOC TD-DFT
   Georgi Stoychev        : AutoAux, RI-MP2 NMR
   Willem Van den Heuvel  : Paramagnetic NMR
   Boris Wezisla          : Elementary symmetry handling
   Frank Wennmohs         : Technical directorship


 We gratefully acknowledge several colleagues who have allowed us to
 interface, adapt or use parts of their codes:
   Stefan Grimme, W. Hujo, H. Kruse,             : VdW corrections, initial TS optimization,
                  C. Bannwarth                     DFT functionals, gCP, sTDA/sTD-DF
   Ed Valeev                                     : LibInt (2-el integral package), F12 methods
   Garnet Chan, S. Sharma, J. Yang, R. Olivares  : DMRG
   Ulf Ekstrom                                   : XCFun DFT Library
   Mihaly Kallay                                 : mrcc  (arbitrary order and MRCC methods)
   Andreas Klamt, Michael Diedenhofen            : otool_cosmo (COSMO solvation model)
   Jiri Pittner, Ondrej Demel                    : Mk-CCSD
   Frank Weinhold                                : gennbo (NPA and NBO analysis)
   Christopher J. Cramer and Donald G. Truhlar   : smd solvation model
   Lars Goerigk                                  : TD-DFT with DH, B97 family of functionals
   V. Asgeirsson, H. Jonsson                     : NEB implementation
   FAccTs GmbH                                   : IRC, NEB, NEB-TS, Multilevel


 Your calculation uses the libint2 library for the computation of 2-el integrals
 For citations please refer to: http://libint.valeyev.net

 This ORCA versions uses:
   CBLAS   interface :  Fast vector & matrix operations
   LAPACKE interface :  Fast linear algebra routines
   SCALAPACK package :  Parallel linear algebra routines


Your calculation utilizes the atom-pairwise dispersion correction
with the zero-damping scheme (D30)
Cite in your paper:
S.Grimme, J.Antony, S.Ehrlich and H.Krieg, J.Chem.Phys., 132, (2010), 154104 
   

XCFun DFT library Copyright 2009-2010 Ulf Ekstrom and contributors.
See http://admol.org/xcfun for more information. This is free soft-
ware; see the source code for copying conditions. There is ABSOLUTELY
NO WARRANTY; not even for MERCHANTABILITY or FITNESS FOR A PARTICULAR
PURPOSE. For details see the documentation. Scientific users of this 
library should cite U. Ekstrom, L. Visscher, R. Bast, A. J. Thorvald-
sen and K. Ruud; J.Chem.Theor.Comp. 2010, DOI: 10.1021/ct100117s
XCFun Version 0.99 
----- Orbital basis set information -----
Your calculation utilizes the basis: def2-TZVP
   F. Weigend and R. Ahlrichs, Phys. Chem. Chem. Phys. 7, 3297 (2005).

================================================================================
                                        WARNINGS
                       Please study these warnings very carefully!
================================================================================


INFO   : the flag for use of LIBINT has been found!

================================================================================
                                       INPUT FILE
================================================================================
NAME = 198.in
|  1> #Run DFT-D3 single point of the dimer
|  2> ! wB97X-D3 def2-TZVP TIGHTSCF  CHELPG PAL8
|  3> 
|  4> %base "198_charges"
|  5> 
|  6> %scf
|  7> MaxIter 1000
|  8> end
|  9> %output
| 10>   Print[ P_Mayer ] 1
| 11>   Print[ P_NatPop ] 1
| 12>   Print[ P_Hirshfeld ] 1
| 13>   Print[ P_Mulliken ] 1
| 14>   Print [ P_Loewdin ] 1
| 15> end
| 16> 
| 17> * xyz 0 1
| 18>   C                      -2.162940            5.925477             -11.747272          
| 19>   O                      -2.917976            6.879984             -12.351883          
| 20>   H                      -2.493861            7.730069             -12.059770          
| 21>   H                      -2.390660            5.898216             -10.696975          
| 22>   H                      -2.402999            4.987030             -12.186739          
| 23>   H                      -1.107598            6.173746             -11.939831          
| 24> *
| 25> 
| 26>                          ****END OF INPUT****
================================================================================

                       ****************************
                       * Single Point Calculation *
                       ****************************

---------------------------------
CARTESIAN COORDINATES (ANGSTROEM)
---------------------------------
  C     -2.162940    5.925477  -11.747272
  O     -2.917976    6.879984  -12.351883
  H     -2.493861    7.730069  -12.059770
  H     -2.390660    5.898216  -10.696975
  H     -2.402999    4.987030  -12.186739
  H     -1.107598    6.173746  -11.939831

----------------------------
CARTESIAN COORDINATES (A.U.)
----------------------------
  NO LB      ZA    FRAG     MASS         X           Y           Z
   0 C     6.0000    0    12.011   -4.087364   11.197529  -22.199127
   1 O     8.0000    0    15.999   -5.514176   13.001286  -23.341676
   2 H     1.0000    0     1.008   -4.712714   14.607713  -22.789663
   3 H     1.0000    0     1.008   -4.517693   11.146013  -20.214353
   4 H     1.0000    0     1.008   -4.541010    9.424121  -23.029599
   5 H     1.0000    0     1.008   -2.093057   11.666689  -22.563011

--------------------------------
INTERNAL COORDINATES (ANGSTROEM)
--------------------------------
 C      0   0   0     0.000000000000     0.00000000     0.00000000
 O      1   0   0     1.358939820473     0.00000000     0.00000000
 H      2   1   0     0.993905450845   103.46817604     0.00000000
 H      1   2   3     1.075045742622   109.55988931    73.97086944
 H      1   2   3     1.063692784303   108.08804875   193.20174244
 H      1   2   3     1.101119067951   107.23765477   311.82923232

---------------------------
INTERNAL COORDINATES (A.U.)
---------------------------
 C      0   0   0     0.000000000000     0.00000000     0.00000000
 O      1   0   0     2.568024093173     0.00000000     0.00000000
 H      2   1   0     1.878209105108   103.46817604     0.00000000
 H      1   2   3     2.031542034994   109.55988931    73.97086944
 H      1   2   3     2.010088052961   108.08804875   193.20174244
 H      1   2   3     2.080813479267   107.23765477   311.82923232

---------------------
BASIS SET INFORMATION
---------------------
There are 3 groups of distinct atoms

 Group   1 Type C   : 11s6p2d1f contracted to 5s3p2d1f pattern {62111/411/11/1}
 Group   2 Type O   : 11s6p2d1f contracted to 5s3p2d1f pattern {62111/411/11/1}
 Group   3 Type H   : 5s1p contracted to 3s1p pattern {311/1}

Atom   0C    basis set group =>   1
Atom   1O    basis set group =>   2
Atom   2H    basis set group =>   3
Atom   3H    basis set group =>   3
Atom   4H    basis set group =>   3
Atom   5H    basis set group =>   3


           ************************************************************
           *        Program running with 8 parallel MPI-processes     *
           *              working on a common directory               *
           ************************************************************
------------------------------------------------------------------------------
                           ORCA GTO INTEGRAL CALCULATION
------------------------------------------------------------------------------

                         BASIS SET STATISTICS AND STARTUP INFO

 # of primitive gaussian shells          ...   64
 # of primitive gaussian functions       ...  124
 # of contracted shells                  ...   38
 # of contracted basis functions         ...   86
 Highest angular momentum                ...    3
 Maximum contraction depth               ...    6
 Integral package used                   ... LIBINT
 Integral threshhold            Thresh   ...  2.500e-11
 Primitive cut-off              TCut     ...  2.500e-12


------------------------------ INTEGRAL EVALUATION ----------------------------


 * One electron integrals 
 Pre-screening matrix                    ... done
 Shell pair data                         ... done (   0.001 sec)



           ************************************************************
           *        Program running with 8 parallel MPI-processes     *
           *              working on a common directory               *
           ************************************************************
-------------------------------------------------------------------------------
                                 ORCA SCF
-------------------------------------------------------------------------------

------------
SCF SETTINGS
------------
Hamiltonian:
 Density Functional     Method          .... DFT(GTOs)
 Exchange Functional    Exchange        .... WB97X-D3
 Correlation Functional Correlation     .... WB97X-D3
 Gradients option       PostSCFGGA      .... off
 Hybrid DFT is turned on
   Fraction HF Exchange ScalHFX         ....  0.195728
   Scaling of DF-GGA-X  ScalDFX         ....  0.000000
   Scaling of DF-GGA-C  ScalDFC         ....  1.000000
   Scaling of DF-LDA-C  ScalLDAC        ....  1.000000
   Perturbative correction              ....  0.000000
   Density functional embedding theory  .... OFF
 Long-range corrected/Screened/Range-Separated Hybrid DFT is turned on
   Amount of maximum screened exact exchange              ....  0.804272
   Range separation parameter mu (erf(mu*r12)/r12)        ....  0.250000


General Settings:
 Integral files         IntName         .... 198_charges
 Hartree-Fock type      HFTyp           .... RHF
 Total Charge           Charge          ....    0
 Multiplicity           Mult            ....    1
 Number of Electrons    NEL             ....   18
 Basis Dimension        Dim             ....   86
 Nuclear Repulsion      ENuc            ....     41.4537026005 Eh

Convergence Acceleration:
 DIIS                   CNVDIIS         .... on
   Start iteration      DIISMaxIt       ....    12
   Startup error        DIISStart       ....  0.200000
   # of expansion vecs  DIISMaxEq       ....     5
   Bias factor          DIISBfac        ....   1.050
   Max. coefficient     DIISMaxC        ....  10.000
 Newton-Raphson         CNVNR           .... off
 SOSCF                  CNVSOSCF        .... on
   Start iteration      SOSCFMaxIt      ....   150
   Startup grad/error   SOSCFStart      ....  0.003300
 Level Shifting         CNVShift        .... on
   Level shift para.    LevelShift      ....    0.2500
   Turn off err/grad.   ShiftErr        ....    0.0010
 Zerner damping         CNVZerner       .... off
 Static damping         CNVDamp         .... on
   Fraction old density DampFac         ....    0.7000
   Max. Damping (<1)    DampMax         ....    0.9800
   Min. Damping (>=0)   DampMin         ....    0.0000
   Turn off err/grad.   DampErr         ....    0.1000
 Fernandez-Rico         CNVRico         .... off

SCF Procedure:
 Maximum # iterations   MaxIter         ....  1000
 SCF integral mode      SCFMode         .... Direct
   Integral package                     .... LIBINT
 Reset frequency        DirectResetFreq ....    20
 Integral Threshold     Thresh          ....  2.500e-11 Eh
 Primitive CutOff       TCut            ....  2.500e-12 Eh

Convergence Tolerance:
 Convergence Check Mode ConvCheckMode   .... Total+1el-Energy
 Convergence forced     ConvForced      .... 0
 Energy Change          TolE            ....  1.000e-08 Eh
 1-El. energy change                    ....  1.000e-05 Eh
 Orbital Gradient       TolG            ....  1.000e-05
 Orbital Rotation angle TolX            ....  1.000e-05
 DIIS Error             TolErr          ....  5.000e-07


Diagonalization of the overlap matrix:
Smallest eigenvalue                        ... 1.575e-03
Time for diagonalization                   ...    0.021 sec
Threshold for overlap eigenvalues          ... 1.000e-08
Number of eigenvalues below threshold      ... 0
Time for construction of square roots      ...    0.005 sec
Total time needed                          ...    0.026 sec

-------------------
DFT GRID GENERATION
-------------------

General Integration Accuracy     IntAcc      ...  4.340
Radial Grid Type                 RadialGrid  ... Gauss-Chebyshev
Angular Grid (max. acc.)         AngularGrid ... Lebedev-110
Angular grid pruning method      GridPruning ... 3 (G Style)
Weight generation scheme         WeightScheme... Becke
Basis function cutoff            BFCut       ...    1.0000e-11
Integration weight cutoff        WCut        ...    1.0000e-14
Grids for H and He will be reduced by one unit

# of grid points (after initial pruning)     ...   6548 (   0.0 sec)
# of grid points (after weights+screening)   ...   6378 (   0.0 sec)
nearest neighbour list constructed           ...    0.0 sec
Grid point re-assignment to atoms done       ...    0.0 sec
Grid point division into batches done        ...    0.0 sec
Reduced shell lists constructed in    0.0 sec

Total number of grid points                  ...     6378
Total number of batches                      ...      103
Average number of points per batch           ...       61
Average number of grid points per atom       ...     1063
Average number of shells per batch           ...    31.64 (83.27%)
Average number of basis functions per batch  ...    72.36 (84.14%)
Average number of large shells per batch     ...    30.57 (96.61%)
Average number of large basis fcns per batch ...    69.86 (96.54%)
Maximum spatial batch extension              ...  16.25, 10.94, 16.15 au
Average spatial batch extension              ...   0.45,  0.34,  0.45 au

Time for grid setup =    0.042 sec

------------------------------
INITIAL GUESS: MODEL POTENTIAL
------------------------------
Loading Hartree-Fock densities                     ... done
Calculating cut-offs                               ... done
Setting up the integral package                    ... done
Initializing the effective Hamiltonian             ... done
Starting the Coulomb interaction                   ... done (   0.0 sec)
Reading the grid                                   ... done
Mapping shells                                     ... done
Starting the XC term evaluation                    ... done (   0.0 sec)
  promolecular density results
     # of electrons  =     17.999625517
     EX              =    -14.450157091
     EC              =     -0.578842960
     EX+EC           =    -15.029000051
Transforming the Hamiltonian                       ... done (   0.0 sec)
Diagonalizing the Hamiltonian                      ... done (   0.0 sec)
Back transforming the eigenvectors                 ... done (   0.0 sec)
Now organizing SCF variables                       ... done
                      ------------------
                      INITIAL GUESS DONE (   0.2 sec)
                      ------------------
--------------
SCF ITERATIONS
--------------
ITER       Energy         Delta-E        Max-DP      RMS-DP      [F,P]     Damp
               ***  Starting incremental Fock matrix formation  ***
  0   -115.6363812029   0.000000000000 0.03550767  0.00155002  0.2304967 0.7000
  1   -115.6764976197  -0.040116416756 0.02034203  0.00109978  0.1169597 0.7000
                               ***Turning on DIIS***
  2   -115.6949946216  -0.018497001897 0.02956758  0.00198635  0.0505396 0.0000
  3   -115.7248664907  -0.029871869115 0.01721799  0.00071762  0.0592745 0.0000
  4   -115.7298389612  -0.004972470550 0.00426705  0.00014049  0.0067407 0.0000
                      *** Initiating the SOSCF procedure ***
                           *** Shutting down DIIS ***
                      *** Re-Reading the Fockian *** 
                      *** Removing any level shift *** 
ITER      Energy       Delta-E        Grad      Rot      Max-DP    RMS-DP
  5   -115.72994452  -0.0001055604  0.000565  0.000565  0.000821  0.000049
               *** Restarting incremental Fock matrix formation ***
  6   -115.72995387  -0.0000093509  0.000122  0.000175  0.000521  0.000030
  7   -115.72995468  -0.0000008111  0.000040  0.000093  0.000254  0.000014
  8   -115.72995475  -0.0000000674  0.000026  0.000017  0.000033  0.000002
  9   -115.72995476  -0.0000000123  0.000010  0.000009  0.000018  0.000001
 10   -115.72995476  -0.0000000015  0.000004  0.000003  0.000005  0.000000
                  ***Gradient check signals convergence***
              ***Rediagonalizing the Fockian in SOSCF/NRSCF***

               *****************************************************
               *                     SUCCESS                       *
               *           SCF CONVERGED AFTER  11 CYCLES          *
               *****************************************************

Setting up the final grid:

General Integration Accuracy     IntAcc      ...  4.670
Radial Grid Type                 RadialGrid  ... Gauss-Chebyshev
Angular Grid (max. acc.)         AngularGrid ... Lebedev-302
Angular grid pruning method      GridPruning ... 3 (G Style)
Weight generation scheme         WeightScheme... Becke
Basis function cutoff            BFCut       ...    1.0000e-11
Integration weight cutoff        WCut        ...    1.0000e-14
Grids for H and He will be reduced by one unit

# of grid points (after initial pruning)     ...  26000 (   0.0 sec)
# of grid points (after weights+screening)   ...  25197 (   0.3 sec)
nearest neighbour list constructed           ...    0.0 sec
Grid point re-assignment to atoms done       ...    0.0 sec
Grid point division into batches done        ...    0.1 sec
Reduced shell lists constructed in    0.2 sec

Total number of grid points                  ...    25197
Total number of batches                      ...      396
Average number of points per batch           ...       63
Average number of grid points per atom       ...     4200
Average number of shells per batch           ...    30.71 (80.80%)
Average number of basis functions per batch  ...    70.08 (81.49%)
Average number of large shells per batch     ...    29.43 (95.85%)
Average number of large basis fcns per batch ...    67.71 (96.61%)
Maximum spatial batch extension              ...  18.04, 13.13, 14.73 au
Average spatial batch extension              ...   0.32,  0.30,  0.34 au

Final grid set up in    3.1 sec
Final integration                            ... done (   0.4 sec)
Change in XC energy                          ...     0.000054581
Integrated number of electrons               ...    17.999982688
Previous integrated no of electrons          ...    18.001165305

----------------
TOTAL SCF ENERGY
----------------

Total Energy       :         -115.72990018 Eh           -3149.17068 eV

Components:
Nuclear Repulsion  :           41.45370260 Eh            1128.01259 eV
Electronic Energy  :         -157.18360279 Eh           -4277.18328 eV
One Electron Energy:         -239.27149341 Eh           -6510.90834 eV
Two Electron Energy:           82.08789063 Eh            2233.72506 eV

Virial components:
Potential Energy   :         -231.12726465 Eh           -6289.29261 eV
Kinetic Energy     :          115.39736446 Eh            3140.12193 eV
Virial Ratio       :            2.00288166


DFT components:
N(Alpha)           :        8.999991343869 electrons
N(Beta)            :        8.999991343869 electrons
N(Total)           :       17.999982687738 electrons
E(XC)              :      -10.680980365869 Eh       
DFET-embed. en.    :        0.000000000000 Eh       

---------------
SCF CONVERGENCE
---------------

  Last Energy change         ...   -3.2388e-10  Tolerance :   1.0000e-08
  Last MAX-Density change    ...    2.1150e-06  Tolerance :   1.0000e-07
  Last RMS-Density change    ...    1.1855e-07  Tolerance :   5.0000e-09
  Last Orbital Gradient      ...    9.9328e-07  Tolerance :   1.0000e-05
  Last Orbital Rotation      ...    1.3415e-06  Tolerance :   1.0000e-05

             **** THE GBW FILE WAS UPDATED (198_charges.gbw) ****
             **** DENSITY FILE WAS UPDATED (198_charges.scfp.tmp) ****
             **** ENERGY FILE WAS UPDATED (198_charges.en.tmp) ****
----------------
ORBITAL ENERGIES
----------------

  NO   OCC          E(Eh)            E(eV) 
   0   2.0000     -19.228985      -523.2473 
   1   2.0000     -10.302457      -280.3441 
   2   2.0000      -1.150649       -31.3107 
   3   2.0000      -0.788166       -21.4471 
   4   2.0000      -0.614745       -16.7281 
   5   2.0000      -0.556119       -15.1328 
   6   2.0000      -0.534489       -14.5442 
   7   2.0000      -0.431223       -11.7342 
   8   2.0000      -0.367718       -10.0061 
   9   0.0000       0.108942         2.9645 
  10   0.0000       0.164146         4.4666 
  11   0.0000       0.202768         5.5176 
  12   0.0000       0.209953         5.7131 
  13   0.0000       0.226036         6.1508 
  14   0.0000       0.305093         8.3020 
  15   0.0000       0.308860         8.4045 
  16   0.0000       0.413453        11.2506 
  17   0.0000       0.457656        12.4535 
  18   0.0000       0.482278        13.1235 
  19   0.0000       0.538356        14.6494 
  20   0.0000       0.542472        14.7614 
  21   0.0000       0.567454        15.4412 
  22   0.0000       0.604201        16.4411 
  23   0.0000       0.627501        17.0752 
  24   0.0000       0.671235        18.2652 
  25   0.0000       0.789560        21.4850 
  26   0.0000       0.819544        22.3009 
  27   0.0000       0.865760        23.5585 
  28   0.0000       0.978327        26.6216 
  29   0.0000       1.022610        27.8266 
  30   0.0000       1.128969        30.7208 
  31   0.0000       1.366384        37.1812 
  32   0.0000       1.487894        40.4877 
  33   0.0000       1.555536        42.3283 
  34   0.0000       1.600863        43.5617 
  35   0.0000       1.621669        44.1279 
  36   0.0000       1.647601        44.8335 
  37   0.0000       1.662188        45.2304 
  38   0.0000       1.733520        47.1715 
  39   0.0000       1.786943        48.6252 
  40   0.0000       1.964563        53.4585 
  41   0.0000       2.019812        54.9619 
  42   0.0000       2.046766        55.6953 
  43   0.0000       2.093330        56.9624 
  44   0.0000       2.152431        58.5706 
  45   0.0000       2.261626        61.5420 
  46   0.0000       2.332831        63.4796 
  47   0.0000       2.372393        64.5561 
  48   0.0000       2.415160        65.7198 
  49   0.0000       2.417737        65.7900 
  50   0.0000       2.534948        68.9794 
  51   0.0000       2.597112        70.6710 
  52   0.0000       2.649203        72.0885 
  53   0.0000       2.704977        73.6062 
  54   0.0000       2.837854        77.2219 
  55   0.0000       2.865674        77.9789 
  56   0.0000       2.944080        80.1125 
  57   0.0000       2.986173        81.2579 
  58   0.0000       3.129146        85.1484 
  59   0.0000       3.217227        87.5452 
  60   0.0000       3.354917        91.2919 
  61   0.0000       3.440473        93.6200 
  62   0.0000       3.465798        94.3092 
  63   0.0000       3.480554        94.7107 
  64   0.0000       3.649774        99.3154 
  65   0.0000       3.670951        99.8917 
  66   0.0000       3.733070       101.5820 
  67   0.0000       3.994985       108.7091 
  68   0.0000       4.227125       115.0259 
  69   0.0000       4.311624       117.3252 
  70   0.0000       4.441828       120.8683 
  71   0.0000       4.562136       124.1420 
  72   0.0000       5.389118       146.6454 
  73   0.0000       5.496245       149.5604 
  74   0.0000       5.540070       150.7530 
  75   0.0000       5.831316       158.6782 
  76   0.0000       5.930287       161.3713 
  77   0.0000       6.082761       165.5203 
  78   0.0000       6.282031       170.9428 
  79   0.0000       6.546827       178.1482 
  80   0.0000       6.766862       184.1357 
  81   0.0000       6.860146       186.6741 
  82   0.0000       7.027118       191.2176 
  83   0.0000       7.212868       196.2721 
  84   0.0000      22.612835       615.3265 
  85   0.0000      43.703393      1189.2298 

                    ********************************
                    * MULLIKEN POPULATION ANALYSIS *
                    ********************************

-----------------------
MULLIKEN ATOMIC CHARGES
-----------------------
   0 C :   -0.149896
   1 O :   -0.462802
   2 H :    0.316750
   3 H :    0.094423
   4 H :    0.109703
   5 H :    0.091822
Sum of atomic charges:   -0.0000000

--------------------------------
MULLIKEN REDUCED ORBITAL CHARGES
--------------------------------
  0 C s       :     3.219579  s :     3.219579
      pz      :     0.983896  p :     2.818112
      px      :     0.923351
      py      :     0.910864
      dz2     :     0.026529  d :     0.103573
      dxz     :     0.008694
      dyz     :     0.020961
      dx2y2   :     0.031935
      dxy     :     0.015453
      f0      :     0.000923  f :     0.008632
      f+1     :     0.001196
      f-1     :     0.001540
      f+2     :     0.001027
      f-2     :     0.001047
      f+3     :     0.001014
      f-3     :     0.001884
  1 O s       :     3.802507  s :     3.802507
      pz      :     1.747037  p :     4.624648
      px      :     1.653428
      py      :     1.224183
      dz2     :     0.004726  d :     0.033909
      dxz     :     0.005828
      dyz     :     0.006929
      dx2y2   :     0.005964
      dxy     :     0.010462
      f0      :     0.000266  f :     0.001738
      f+1     :     0.000151
      f-1     :     0.000235
      f+2     :     0.000161
      f-2     :     0.000364
      f+3     :     0.000421
      f-3     :     0.000139
  2 H s       :     0.640409  s :     0.640409
      pz      :     0.014317  p :     0.042841
      px      :     0.013082
      py      :     0.015443
  3 H s       :     0.885677  s :     0.885677
      pz      :     0.012213  p :     0.019900
      px      :     0.004066
      py      :     0.003621
  4 H s       :     0.869287  s :     0.869287
      pz      :     0.005534  p :     0.021010
      px      :     0.004307
      py      :     0.011169
  5 H s       :     0.889229  s :     0.889229
      pz      :     0.003835  p :     0.018949
      px      :     0.011557
      py      :     0.003557


                     *******************************
                     * LOEWDIN POPULATION ANALYSIS *
                     *******************************

----------------------
LOEWDIN ATOMIC CHARGES
----------------------
   0 C :   -0.426160
   1 O :   -0.054256
   2 H :    0.194872
   3 H :    0.089061
   4 H :    0.100806
   5 H :    0.095678

-------------------------------
LOEWDIN REDUCED ORBITAL CHARGES
-------------------------------
  0 C s       :     2.848057  s :     2.848057
      pz      :     1.053676  p :     3.051459
      px      :     1.013907
      py      :     0.983875
      dz2     :     0.126683  d :     0.456985
      dxz     :     0.041614
      dyz     :     0.084064
      dx2y2   :     0.129675
      dxy     :     0.074949
      f0      :     0.005258  f :     0.069659
      f+1     :     0.008233
      f-1     :     0.010119
      f+2     :     0.010545
      f-2     :     0.013422
      f+3     :     0.008589
      f-3     :     0.013494
  1 O s       :     3.359970  s :     3.359970
      pz      :     1.697700  p :     4.606358
      px      :     1.644139
      py      :     1.264520
      dz2     :     0.012650  d :     0.082244
      dxz     :     0.009729
      dyz     :     0.016628
      dx2y2   :     0.020607
      dxy     :     0.022630
      f0      :     0.000429  f :     0.005684
      f+1     :     0.000498
      f-1     :     0.000780
      f+2     :     0.000717
      f-2     :     0.001192
      f+3     :     0.001308
      f-3     :     0.000759
  2 H s       :     0.664629  s :     0.664629
      pz      :     0.042185  p :     0.140499
      px      :     0.043892
      py      :     0.054422
  3 H s       :     0.848622  s :     0.848622
      pz      :     0.036665  p :     0.062317
      px      :     0.013347
      py      :     0.012304
  4 H s       :     0.836192  s :     0.836192
      pz      :     0.017822  p :     0.063003
      px      :     0.014068
      py      :     0.031112
  5 H s       :     0.846410  s :     0.846410
      pz      :     0.012464  p :     0.057912
      px      :     0.033516
      py      :     0.011931


                      *****************************
                      * MAYER POPULATION ANALYSIS *
                      *****************************

  NA   - Mulliken gross atomic population
  ZA   - Total nuclear charge
  QA   - Mulliken gross atomic charge
  VA   - Mayer's total valence
  BVA  - Mayer's bonded valence
  FA   - Mayer's free valence

  ATOM       NA         ZA         QA         VA         BVA        FA
  0 C      6.1499     6.0000    -0.1499     3.9525     3.9525     0.0000
  1 O      8.4628     8.0000    -0.4628     1.8732     1.8732     0.0000
  2 H      0.6833     1.0000     0.3167     0.9051     0.9051     0.0000
  3 H      0.9056     1.0000     0.0944     0.9571     0.9571     0.0000
  4 H      0.8903     1.0000     0.1097     0.9597     0.9597     0.0000
  5 H      0.9082     1.0000     0.0918     0.9666     0.9666    -0.0000

  Mayer bond orders larger than 0.1
B(  0-C ,  1-O ) :   1.0018 B(  0-C ,  3-H ) :   0.9776 B(  0-C ,  4-H ) :   0.9743 
B(  0-C ,  5-H ) :   0.9908 B(  1-O ,  2-H ) :   0.8957 


------------------
HIRSHFELD ANALYSIS
------------------

Total integrated alpha density =      9.000582652
Total integrated beta density  =      9.000582652

  ATOM     CHARGE      SPIN    
   0 C    0.000102    0.000000
   1 O   -0.246860    0.000000
   2 H    0.165112    0.000000
   3 H    0.021455    0.000000
   4 H    0.036509    0.000000
   5 H    0.022517    0.000000

  TOTAL  -0.001165    0.000000

-------
TIMINGS
-------

Total SCF time: 0 days 0 hours 0 min 29 sec 

Total time                  ....      29.511 sec
Sum of individual times     ....      25.901 sec  ( 87.8%)

Fock matrix formation       ....      17.797 sec  ( 60.3%)
  XC integration            ....       3.897 sec  ( 21.9% of F)
    Basis function eval.    ....       0.051 sec  (  1.3% of XC)
    Density eval.           ....       0.060 sec  (  1.5% of XC)
    XC-Functional eval.     ....       0.101 sec  (  2.6% of XC)
    XC-Potential eval.      ....       0.060 sec  (  1.5% of XC)
Diagonalization             ....       1.863 sec  (  6.3%)
Density matrix formation    ....       1.085 sec  (  3.7%)
Population analysis         ....       0.725 sec  (  2.5%)
Initial guess               ....       0.127 sec  (  0.4%)
Orbital Transformation      ....       0.000 sec  (  0.0%)
Orbital Orthonormalization  ....       0.000 sec  (  0.0%)
DIIS solution               ....       0.339 sec  (  1.1%)
SOSCF solution              ....       0.821 sec  (  2.8%)
Grid generation             ....       3.143 sec  ( 10.7%)


-------------------------------------------------------------------------------
                          DFT DISPERSION CORRECTION                            
                                                                               
                              DFTD3 V3.1  Rev 1                                
                              USING zero damping                               
-------------------------------------------------------------------------------
The omegaB97X-D3 functional is recognized. Fit by Chai et al.
Active option DFTDOPT                   ...         3   

molecular C6(AA) [au] = 208.615146 


            DFT-D V3
 parameters
 s6 scaling factor         :     1.0000 
 rs6 scaling factor        :     1.2810 
 s8 scaling factor         :     1.0000 
 rs8 scaling factor        :     1.0940 
 Damping factor alpha6     :    14.0000 
 Damping factor alpha8     :    16.0000 
 ad hoc parameters k1-k3   :    16.0000     1.3333    -4.0000 

 Edisp/kcal,au: -0.117035145973  -0.000186507357 
 E6   /kcal   :  -0.022530447 
 E8   /kcal   :  -0.094504699 
 % E8         :  80.748990327 

-------------------------   ----------------
Dispersion correction           -0.000186507
-------------------------   ----------------


-------------------------   --------------------
FINAL SINGLE POINT ENERGY      -115.730086691837
-------------------------   --------------------


                            ***************************************
                            *     ORCA property calculations      *
                            ***************************************

                                    ---------------------
                                    Active property flags
                                    ---------------------
   (+) Dipole Moment


------------------------------------------------------------------------------
                       ORCA ELECTRIC PROPERTIES CALCULATION
------------------------------------------------------------------------------

Dipole Moment Calculation                       ... on
Quadrupole Moment Calculation                   ... off
Polarizability Calculation                      ... off
GBWName                                         ... 198_charges.gbw
Electron density file                           ... 198_charges.scfp.tmp
The origin for moment calculation is the CENTER OF MASS  = (-4.784533, 12.162798 -22.763329)

-------------
DIPOLE MOMENT
-------------
                                X             Y             Z
Electronic contribution:     -1.09737       1.05793      -0.83164
Nuclear contribution   :      1.61954      -0.89037       1.21513
                        -----------------------------------------
Total Dipole Moment    :      0.52216       0.16755       0.38349
                        -----------------------------------------
Magnitude (a.u.)       :      0.66917
Magnitude (Debye)      :      1.70090



--------------------
Rotational spectrum 
--------------------
 
Rotational constants in cm-1:     4.172751     0.907679     0.870655 
Rotational constants in MHz : 125095.942468 27211.543818 26101.584195 

 Dipole components along the rotational axes: 
x,y,z [a.u.] :    -0.308038    -0.593164     0.032548 
x,y,z [Debye]:    -0.782969    -1.507703     0.082730 

 
------------------------------------------------------------------------------
                      ORCA CHELPG CHARGES GENERATION
------------------------------------------------------------------------------

GBW file                           ... 198_charges.gbw

Reading the GBW file               ... done

Grid spacing                       ...     0.300000
Point Cut-Off                      ...     2.800000
Van-der-Waals Radii                ...        COSMO
Total charge                       ...            0


Number of points X direction       ...           24
Number of points Y direction       ...           27
Number of points Z direction       ...           24
Maximum number of possible points  ...        15552
Final number of points             ...         5806


CHELPG Charges            
--------------------------------
  0   C   :       0.068903
  1   O   :      -0.568949
  2   H   :       0.390292
  3   H   :       0.018883
  4   H   :       0.085092
  5   H   :       0.005779
--------------------------------
Total charge:    -0.000000
--------------------------------

CHELPG charges calculated...

Timings for individual parts in CHELPG calculation:
Grid generation                 ...        0.001 sec (=   0.000 min)
Potential calculation           ...        0.596 sec (=   0.010 min)
Fit to the potential            ...        0.001 sec (=   0.000 min)
------------------------------------------------------------------------------


Timings for individual modules:

Sum of individual times         ...       39.341 sec (=   0.656 min)
GTO integral calculation        ...        5.537 sec (=   0.092 min)  14.1 %
SCF iterations                  ...       32.603 sec (=   0.543 min)  82.9 %
CHELPG charge generation        ...        1.201 sec (=   0.020 min)   3.1 %
                             ****ORCA TERMINATED NORMALLY****
TOTAL RUN TIME: 0 days 0 hours 0 minutes 42 seconds 137 msec
