
                                 *****************
                                 * O   R   C   A *
                                 *****************

           --- An Ab Initio, DFT and Semiempirical electronic structure package ---

                  #######################################################
                  #                        -***-                        #
                  #          Department of theory and spectroscopy      #
                  #               Directorship: Frank Neese             #
                  #        Max Planck Institute fuer Kohlenforschung    #
                  #                Kaiser Wilhelm Platz 1               #
                  #                 D-45470 Muelheim/Ruhr               #
                  #                      Germany                        #
                  #                                                     #
                  #                  All rights reserved                #
                  #                        -***-                        #
                  #######################################################


                         Program Version 4.1.2  - RELEASE  -


 With contributions from (in alphabetic order):
   Daniel Aravena         : Magnetic Properties
   Michael Atanasov       : Ab Initio Ligand Field Theory
   Alexander A. Auer      : GIAO ZORA
   Ute Becker             : Parallelization
   Giovanni Bistoni       : ED, Open-shell LED
   Martin Brehm           : Molecular dynamics
   Dmytro Bykov           : SCF Hessian
   Vijay G. Chilkuri      : MRCI spin determinant printing
   Dipayan Datta          : RHF DLPNO-CCSD density
   Achintya Kumar Dutta   : EOM-CC, STEOM-CC
   Dmitry Ganyushin       : Spin-Orbit,Spin-Spin,Magnetic field MRCI
   Miquel Garcia          : C-PCM Hessian
   Yang Guo               : DLPNO-NEVPT2, CIM, IAO-localization
   Andreas Hansen         : Spin unrestricted coupled pair/coupled cluster methods
   Benjamin Helmich-Paris : CASSCF linear response (MC-RPA)
   Lee Huntington         : MR-EOM, pCC
   Robert Izsak           : Overlap fitted RIJCOSX, COSX-SCS-MP3, EOM
   Christian Kollmar      : KDIIS, OOCD, Brueckner-CCSD(T), CCSD density
   Simone Kossmann        : Meta GGA functionals, TD-DFT gradient, OOMP2, MP2 Hessian
   Martin Krupicka        : AUTO-CI
   Lucas Lang             : DCDCAS
   Dagmar Lenk            : GEPOL surface, SMD
   Dimitrios Liakos       : Extrapolation schemes; parallel MDCI
   Dimitrios Manganas     : ROCIS; embedding schemes
   Dimitrios Pantazis     : SARC Basis sets
   Taras Petrenko         : DFT Hessian,TD-DFT gradient, ASA, ECA, R-Raman, ABS, FL, XAS/XES, NRVS
   Peter Pinski           : DLPNO-MP2, DLPNO-MP2 Gradient
   Christoph Reimann      : Effective Core Potentials
   Marius Retegan         : Local ZFS, SOC
   Christoph Riplinger    : Optimizer, TS searches, QM/MM, DLPNO-CCSD(T), (RO)-DLPNO pert. Triples
   Tobias Risthaus        : Range-separated hybrids, TD-DFT gradient, RPA, STAB
   Michael Roemelt        : Restricted open shell CIS
   Masaaki Saitow         : Open-shell DLPNO
   Barbara Sandhoefer     : DKH picture change effects
   Avijit Sen             : IP-ROCIS
   Kantharuban Sivalingam : CASSCF convergence, NEVPT2, FIC-MRCI
   Bernardo de Souza      : ESD, SOC TD-DFT
   Georgi Stoychev        : AutoAux, RI-MP2 NMR
   Willem Van den Heuvel  : Paramagnetic NMR
   Boris Wezisla          : Elementary symmetry handling
   Frank Wennmohs         : Technical directorship


 We gratefully acknowledge several colleagues who have allowed us to
 interface, adapt or use parts of their codes:
   Stefan Grimme, W. Hujo, H. Kruse,             : VdW corrections, initial TS optimization,
                  C. Bannwarth                     DFT functionals, gCP, sTDA/sTD-DF
   Ed Valeev                                     : LibInt (2-el integral package), F12 methods
   Garnet Chan, S. Sharma, J. Yang, R. Olivares  : DMRG
   Ulf Ekstrom                                   : XCFun DFT Library
   Mihaly Kallay                                 : mrcc  (arbitrary order and MRCC methods)
   Andreas Klamt, Michael Diedenhofen            : otool_cosmo (COSMO solvation model)
   Jiri Pittner, Ondrej Demel                    : Mk-CCSD
   Frank Weinhold                                : gennbo (NPA and NBO analysis)
   Christopher J. Cramer and Donald G. Truhlar   : smd solvation model
   Lars Goerigk                                  : TD-DFT with DH, B97 family of functionals
   V. Asgeirsson, H. Jonsson                     : NEB implementation
   FAccTs GmbH                                   : IRC, NEB, NEB-TS, Multilevel


 Your calculation uses the libint2 library for the computation of 2-el integrals
 For citations please refer to: http://libint.valeyev.net

 This ORCA versions uses:
   CBLAS   interface :  Fast vector & matrix operations
   LAPACKE interface :  Fast linear algebra routines
   SCALAPACK package :  Parallel linear algebra routines


Your calculation utilizes the atom-pairwise dispersion correction
with the zero-damping scheme (D30)
Cite in your paper:
S.Grimme, J.Antony, S.Ehrlich and H.Krieg, J.Chem.Phys., 132, (2010), 154104 
   

XCFun DFT library Copyright 2009-2010 Ulf Ekstrom and contributors.
See http://admol.org/xcfun for more information. This is free soft-
ware; see the source code for copying conditions. There is ABSOLUTELY
NO WARRANTY; not even for MERCHANTABILITY or FITNESS FOR A PARTICULAR
PURPOSE. For details see the documentation. Scientific users of this 
library should cite U. Ekstrom, L. Visscher, R. Bast, A. J. Thorvald-
sen and K. Ruud; J.Chem.Theor.Comp. 2010, DOI: 10.1021/ct100117s
XCFun Version 0.99 
----- Orbital basis set information -----
Your calculation utilizes the basis: def2-TZVP
   F. Weigend and R. Ahlrichs, Phys. Chem. Chem. Phys. 7, 3297 (2005).

================================================================================
                                        WARNINGS
                       Please study these warnings very carefully!
================================================================================


INFO   : the flag for use of LIBINT has been found!

Your calculation utilizes the atom-pairwise dispersion correction
with the zero-damping scheme (D30)
Cite in your paper:
S.Grimme, J.Antony, S.Ehrlich and H.Krieg, J.Chem.Phys., 132, (2010), 154104 
   

XCFun DFT library Copyright 2009-2010 Ulf Ekstrom and contributors.
See http://admol.org/xcfun for more information. This is free soft-
ware; see the source code for copying conditions. There is ABSOLUTELY
NO WARRANTY; not even for MERCHANTABILITY or FITNESS FOR A PARTICULAR
PURPOSE. For details see the documentation. Scientific users of this 
library should cite U. Ekstrom, L. Visscher, R. Bast, A. J. Thorvald-
sen and K. Ruud; J.Chem.Theor.Comp. 2010, DOI: 10.1021/ct100117s
XCFun Version 0.99 
----- Orbital basis set information -----
Your calculation utilizes the basis: def2-TZVP
   F. Weigend and R. Ahlrichs, Phys. Chem. Chem. Phys. 7, 3297 (2005).

================================================================================
                                        WARNINGS
                       Please study these warnings very carefully!
================================================================================


WARNING: MOInp is set but Guess=PModel. MOInp will be ignored!
         To read the initial guess from a file you must also specify
         'MORead' in the simple input or 'Guess MORead' in the %scf block


INFO   : the flag for use of LIBINT has been found!

Your calculation utilizes the atom-pairwise dispersion correction
with the zero-damping scheme (D30)
Cite in your paper:
S.Grimme, J.Antony, S.Ehrlich and H.Krieg, J.Chem.Phys., 132, (2010), 154104 
   

XCFun DFT library Copyright 2009-2010 Ulf Ekstrom and contributors.
See http://admol.org/xcfun for more information. This is free soft-
ware; see the source code for copying conditions. There is ABSOLUTELY
NO WARRANTY; not even for MERCHANTABILITY or FITNESS FOR A PARTICULAR
PURPOSE. For details see the documentation. Scientific users of this 
library should cite U. Ekstrom, L. Visscher, R. Bast, A. J. Thorvald-
sen and K. Ruud; J.Chem.Theor.Comp. 2010, DOI: 10.1021/ct100117s
XCFun Version 0.99 
----- Orbital basis set information -----
Your calculation utilizes the basis: def2-TZVP
   F. Weigend and R. Ahlrichs, Phys. Chem. Chem. Phys. 7, 3297 (2005).

================================================================================
                                        WARNINGS
                       Please study these warnings very carefully!
================================================================================


WARNING: MOInp is set but Guess=PModel. MOInp will be ignored!
         To read the initial guess from a file you must also specify
         'MORead' in the simple input or 'Guess MORead' in the %scf block


INFO   : the flag for use of LIBINT has been found!

================================================================================
                                       INPUT FILE
================================================================================
NAME = 22-202.in
|  1> #Run DFT-D3 single point of the dimer
|  2> ! wB97X-D3 def2-TZVP TIGHTSCF CHELPG PMODEL PAL8
|  3> 
|  4> %base "22-202_DFT_AB"
|  5> 
|  6> %scf
|  7> MaxIter 1000
|  8> end
|  9> 
| 10> * xyz 0 1
| 11>   C                      1.849405             10.403174            -6.975823           
| 12>   O                      2.478847             9.152996             -7.261366           
| 13>   H                      1.801508             8.464641             -7.105804           
| 14>   H                      1.309623             10.282888            -6.056580           
| 15>   H                      2.652118             11.175749            -6.874183           
| 16>   H                      1.064721             10.693394            -7.711019           
| 17>   C                      5.865347             9.167918             -8.360008           
| 18>   O                      5.500343             8.493549             -7.201196           
| 19>   H                      4.539778             8.361218             -7.270459           
| 20>   H                      5.527229             10.237435            -8.308055           
| 21>   H                      6.944993             9.086587             -8.452698           
| 22>   H                      5.493211             8.733666             -9.272044           
| 23> *
| 24> 
| 25> #Run DFT-D3 single point of the molecule with dimer basis set
| 26> $new_job
| 27> %base "22-202_DFT_A"
| 28> ! wB97X-D3 def2-TZVP TIGHTSCF CHELPG PMODEL
| 29> 
| 30> %scf
| 31> MaxIter 1000
| 32> end
| 33> 
| 34> * xyz 0 1
| 35>   C                      1.849405             10.403174            -6.975823           
| 36>   O                      2.478847             9.152996             -7.261366           
| 37>   H                      1.801508             8.464641             -7.105804           
| 38>   H                      1.309623             10.282888            -6.056580           
| 39>   H                      2.652118             11.175749            -6.874183           
| 40>   H                      1.064721             10.693394            -7.711019           
| 41>   C                    : 5.865347             9.167918             -8.360008           
| 42>   O                    : 5.500343             8.493549             -7.201196           
| 43>   H                    : 4.539778             8.361218             -7.270459           
| 44>   H                    : 5.527229             10.237435            -8.308055           
| 45>   H                    : 6.944993             9.086587             -8.452698           
| 46>   H                    : 5.493211             8.733666             -9.272044           
| 47> *
| 48> 
| 49> #Run DFT-D3 single point of the particle with dimer basis set
| 50> $new_job
| 51> %base "22-202_DFT_B"
| 52> ! wB97X-D3 def2-TZVP TIGHTSCF CHELPG PMODEL
| 53> 
| 54> %scf
| 55> MaxIter 1000
| 56> end
| 57> 
| 58> * xyz 0 1
| 59>   C                    : 1.849405             10.403174            -6.975823           
| 60>   O                    : 2.478847             9.152996             -7.261366           
| 61>   H                    : 1.801508             8.464641             -7.105804           
| 62>   H                    : 1.309623             10.282888            -6.056580           
| 63>   H                    : 2.652118             11.175749            -6.874183           
| 64>   H                    : 1.064721             10.693394            -7.711019           
| 65>   C                      5.865347             9.167918             -8.360008           
| 66>   O                      5.500343             8.493549             -7.201196           
| 67>   H                      4.539778             8.361218             -7.270459           
| 68>   H                      5.527229             10.237435            -8.308055           
| 69>   H                      6.944993             9.086587             -8.452698           
| 70>   H                      5.493211             8.733666             -9.272044           
| 71> *
| 72> 
| 73>                          ****END OF INPUT****
================================================================================


                 $$$$$$$$$$$$$$$$$$$$$$$$$$$$$$$$$$$$$$$$$$$$$$ 
                 $ THERE ARE  3 JOBS TO BE PROCESSED THIS RUN $
                 $$$$$$$$$$$$$$$$$$$$$$$$$$$$$$$$$$$$$$$$$$$$$$ 




                 $$$$$$$$$$$$$$$$  JOB NUMBER  1 $$$$$$$$$$$$$$


                       ****************************
                       * Single Point Calculation *
                       ****************************

---------------------------------
CARTESIAN COORDINATES (ANGSTROEM)
---------------------------------
  C      1.849405   10.403174   -6.975823
  O      2.478847    9.152996   -7.261366
  H      1.801508    8.464641   -7.105804
  H      1.309623   10.282888   -6.056580
  H      2.652118   11.175749   -6.874183
  H      1.064721   10.693394   -7.711019
  C      5.865347    9.167918   -8.360008
  O      5.500343    8.493549   -7.201196
  H      4.539778    8.361218   -7.270459
  H      5.527229   10.237435   -8.308055
  H      6.944993    9.086587   -8.452698
  H      5.493211    8.733666   -9.272044

----------------------------
CARTESIAN COORDINATES (A.U.)
----------------------------
  NO LB      ZA    FRAG     MASS         X           Y           Z
   0 C     6.0000    0    12.011    3.494869   19.659150  -13.182395
   1 O     8.0000    0    15.999    4.684342   17.296656  -13.721993
   2 H     1.0000    0     1.008    3.404357   15.995853  -13.428024
   3 H     1.0000    0     1.008    2.474829   19.431842  -11.445278
   4 H     1.0000    0     1.008    5.011777   21.119105  -12.990323
   5 H     1.0000    0     1.008    2.012031   20.207586  -14.571714
   6 C     6.0000    0    12.011   11.083900   17.324854  -15.798126
   7 O     8.0000    0    15.999   10.394142   16.050482  -13.608288
   8 H     1.0000    0     1.008    8.578937   15.800412  -13.739176
   9 H     1.0000    0     1.008   10.444949   19.345948  -15.699949
  10 H     1.0000    0     1.008   13.124135   17.171161  -15.973284
  11 H     1.0000    0     1.008   10.380664   16.504237  -17.521624

--------------------------------
INTERNAL COORDINATES (ANGSTROEM)
--------------------------------
 C      0   0   0     0.000000000000     0.00000000     0.00000000
 O      1   0   0     1.428522687218     0.00000000     0.00000000
 H      2   1   0     0.978171898385   106.19809484     0.00000000
 H      1   2   3     1.072772586511   107.14909984    45.26397619
 H      1   2   3     1.118727393333   107.84057797   164.98469667
 H      1   2   3     1.113763793033   113.98725502   290.89466375
 C      2   1   3     3.560283578628   118.49815519   178.86006881
 O      7   2   1     1.389549106553    59.38729085   120.62158886
 H      8   7   2     0.972108006322   105.43855150    19.30746839
 H      7   2   1     1.122893365116    72.74046241   353.53092305
 H      7   2   1     1.086665382248   166.18017953   105.75789124
 H      7   2   1     1.076508089749    86.03950778   242.63392004

---------------------------
INTERNAL COORDINATES (A.U.)
---------------------------
 C      0   0   0     0.000000000000     0.00000000     0.00000000
 O      1   0   0     2.699516654936     0.00000000     0.00000000
 H      2   1   0     1.848476999845   106.19809484     0.00000000
 H      1   2   3     2.027246392484   107.14909984    45.26397619
 H      1   2   3     2.114088391915   107.84057797   164.98469667
 H      1   2   3     2.104708546710   113.98725502   290.89466375
 C      2   1   3     6.727960922704   118.49815519   178.86006881
 O      7   2   1     2.625867261019    59.38729085   120.62158886
 H      8   7   2     1.837017904540   105.43855150    19.30746839
 H      7   2   1     2.121960937667    72.74046241   353.53092305
 H      7   2   1     2.053499971662   166.18017953   105.75789124
 H      7   2   1     2.034305470577    86.03950778   242.63392004

---------------------
BASIS SET INFORMATION
---------------------
There are 3 groups of distinct atoms

 Group   1 Type C   : 11s6p2d1f contracted to 5s3p2d1f pattern {62111/411/11/1}
 Group   2 Type O   : 11s6p2d1f contracted to 5s3p2d1f pattern {62111/411/11/1}
 Group   3 Type H   : 5s1p contracted to 3s1p pattern {311/1}

Atom   0C    basis set group =>   1
Atom   1O    basis set group =>   2
Atom   2H    basis set group =>   3
Atom   3H    basis set group =>   3
Atom   4H    basis set group =>   3
Atom   5H    basis set group =>   3
Atom   6C    basis set group =>   1
Atom   7O    basis set group =>   2
Atom   8H    basis set group =>   3
Atom   9H    basis set group =>   3
Atom  10H    basis set group =>   3
Atom  11H    basis set group =>   3


           ************************************************************
           *        Program running with 8 parallel MPI-processes     *
           *              working on a common directory               *
           ************************************************************
------------------------------------------------------------------------------
                           ORCA GTO INTEGRAL CALCULATION
------------------------------------------------------------------------------

                         BASIS SET STATISTICS AND STARTUP INFO

 # of primitive gaussian shells          ...  128
 # of primitive gaussian functions       ...  248
 # of contracted shells                  ...   76
 # of contracted basis functions         ...  172
 Highest angular momentum                ...    3
 Maximum contraction depth               ...    6
 Integral package used                   ... LIBINT
 Integral threshhold            Thresh   ...  2.500e-11
 Primitive cut-off              TCut     ...  2.500e-12


------------------------------ INTEGRAL EVALUATION ----------------------------


 * One electron integrals 
 Pre-screening matrix                    ... done
 Shell pair data                         ... done (   0.001 sec)



           ************************************************************
           *        Program running with 8 parallel MPI-processes     *
           *              working on a common directory               *
           ************************************************************
-------------------------------------------------------------------------------
                                 ORCA SCF
-------------------------------------------------------------------------------

------------
SCF SETTINGS
------------
Hamiltonian:
 Density Functional     Method          .... DFT(GTOs)
 Exchange Functional    Exchange        .... WB97X-D3
 Correlation Functional Correlation     .... WB97X-D3
 Gradients option       PostSCFGGA      .... off
 Hybrid DFT is turned on
   Fraction HF Exchange ScalHFX         ....  0.195728
   Scaling of DF-GGA-X  ScalDFX         ....  0.000000
   Scaling of DF-GGA-C  ScalDFC         ....  1.000000
   Scaling of DF-LDA-C  ScalLDAC        ....  1.000000
   Perturbative correction              ....  0.000000
   Density functional embedding theory  .... OFF
 Long-range corrected/Screened/Range-Separated Hybrid DFT is turned on
   Amount of maximum screened exact exchange              ....  0.804272
   Range separation parameter mu (erf(mu*r12)/r12)        ....  0.250000


General Settings:
 Integral files         IntName         .... 22-202_DFT_AB
 Hartree-Fock type      HFTyp           .... RHF
 Total Charge           Charge          ....    0
 Multiplicity           Mult            ....    1
 Number of Electrons    NEL             ....   36
 Basis Dimension        Dim             ....  172
 Nuclear Repulsion      ENuc            ....    126.2514300075 Eh

Convergence Acceleration:
 DIIS                   CNVDIIS         .... on
   Start iteration      DIISMaxIt       ....    12
   Startup error        DIISStart       ....  0.200000
   # of expansion vecs  DIISMaxEq       ....     5
   Bias factor          DIISBfac        ....   1.050
   Max. coefficient     DIISMaxC        ....  10.000
 Newton-Raphson         CNVNR           .... off
 SOSCF                  CNVSOSCF        .... on
   Start iteration      SOSCFMaxIt      ....   150
   Startup grad/error   SOSCFStart      ....  0.003300
 Level Shifting         CNVShift        .... on
   Level shift para.    LevelShift      ....    0.2500
   Turn off err/grad.   ShiftErr        ....    0.0010
 Zerner damping         CNVZerner       .... off
 Static damping         CNVDamp         .... on
   Fraction old density DampFac         ....    0.7000
   Max. Damping (<1)    DampMax         ....    0.9800
   Min. Damping (>=0)   DampMin         ....    0.0000
   Turn off err/grad.   DampErr         ....    0.1000
 Fernandez-Rico         CNVRico         .... off

SCF Procedure:
 Maximum # iterations   MaxIter         ....  1000
 SCF integral mode      SCFMode         .... Direct
   Integral package                     .... LIBINT
 Reset frequency        DirectResetFreq ....    20
 Integral Threshold     Thresh          ....  2.500e-11 Eh
 Primitive CutOff       TCut            ....  2.500e-12 Eh

Convergence Tolerance:
 Convergence Check Mode ConvCheckMode   .... Total+1el-Energy
 Convergence forced     ConvForced      .... 0
 Energy Change          TolE            ....  1.000e-08 Eh
 1-El. energy change                    ....  1.000e-05 Eh
 Orbital Gradient       TolG            ....  1.000e-05
 Orbital Rotation angle TolX            ....  1.000e-05
 DIIS Error             TolErr          ....  5.000e-07


Diagonalization of the overlap matrix:
Smallest eigenvalue                        ... 1.515e-03
Time for diagonalization                   ...    0.004 sec
Threshold for overlap eigenvalues          ... 1.000e-08
Number of eigenvalues below threshold      ... 0
Time for construction of square roots      ...    0.005 sec
Total time needed                          ...    0.009 sec

-------------------
DFT GRID GENERATION
-------------------

General Integration Accuracy     IntAcc      ...  4.340
Radial Grid Type                 RadialGrid  ... Gauss-Chebyshev
Angular Grid (max. acc.)         AngularGrid ... Lebedev-110
Angular grid pruning method      GridPruning ... 3 (G Style)
Weight generation scheme         WeightScheme... Becke
Basis function cutoff            BFCut       ...    1.0000e-11
Integration weight cutoff        WCut        ...    1.0000e-14
Grids for H and He will be reduced by one unit

# of grid points (after initial pruning)     ...  13096 (   0.0 sec)
# of grid points (after weights+screening)   ...  12482 (   0.0 sec)
nearest neighbour list constructed           ...    0.0 sec
Grid point re-assignment to atoms done       ...    0.0 sec
Grid point division into batches done        ...    0.0 sec
Reduced shell lists constructed in    0.0 sec

Total number of grid points                  ...    12482
Total number of batches                      ...      200
Average number of points per batch           ...       62
Average number of grid points per atom       ...     1040
Average number of shells per batch           ...    56.92 (74.90%)
Average number of basis functions per batch  ...   127.62 (74.19%)
Average number of large shells per batch     ...    47.42 (83.31%)
Average number of large basis fcns per batch ...   105.12 (82.37%)
Maximum spatial batch extension              ...   2.98,  4.45,  4.98 au
Average spatial batch extension              ...   0.19,  0.22,  0.22 au

Time for grid setup =    0.036 sec

------------------------------
INITIAL GUESS: MODEL POTENTIAL
------------------------------
Loading Hartree-Fock densities                     ... done
Calculating cut-offs                               ... done
Setting up the integral package                    ... done
Initializing the effective Hamiltonian             ... done
Starting the Coulomb interaction                   ... done (   0.0 sec)
Reading the grid                                   ... done
Mapping shells                                     ... done
Starting the XC term evaluation                    ... done (   0.0 sec)
  promolecular density results
     # of electrons  =     35.998686824
     EX              =    -28.857020490
     EC              =     -1.153277216
     EX+EC           =    -30.010297706
Transforming the Hamiltonian                       ... done (   0.0 sec)
Diagonalizing the Hamiltonian                      ... done (   0.0 sec)
Back transforming the eigenvectors                 ... done (   0.0 sec)
Now organizing SCF variables                       ... done
                      ------------------
                      INITIAL GUESS DONE (   0.1 sec)
                      ------------------
--------------
SCF ITERATIONS
--------------
ITER       Energy         Delta-E        Max-DP      RMS-DP      [F,P]     Damp
               ***  Starting incremental Fock matrix formation  ***
  0   -231.3090752410   0.000000000000 0.03545265  0.00103447  0.2419934 0.7000
  1   -231.3797862670  -0.070711026065 0.02257875  0.00073574  0.1208920 0.7000
                               ***Turning on DIIS***
  2   -231.4124085594  -0.032622292391 0.03531173  0.00133708  0.0474050 0.0000
  3   -231.4653147366  -0.052906177226 0.01723341  0.00047976  0.0581769 0.0000
  4   -231.4740149200  -0.008700183336 0.00419463  0.00009537  0.0062939 0.0000
                      *** Initiating the SOSCF procedure ***
                           *** Shutting down DIIS ***
                      *** Re-Reading the Fockian *** 
                      *** Removing any level shift *** 
ITER      Energy       Delta-E        Grad      Rot      Max-DP    RMS-DP
  5   -231.47419621  -0.0001812898  0.000431  0.000431  0.000824  0.000034
               *** Restarting incremental Fock matrix formation ***
  6   -231.47421397  -0.0000177619  0.000131  0.000178  0.000635  0.000021
  7   -231.47421570  -0.0000017268  0.000048  0.000096  0.000327  0.000010
  8   -231.47421584  -0.0000001431  0.000024  0.000020  0.000046  0.000001
  9   -231.47421587  -0.0000000254  0.000012  0.000009  0.000022  0.000001
 10   -231.47421587  -0.0000000039  0.000003  0.000003  0.000007  0.000000
                  ***Gradient check signals convergence***
              ***Rediagonalizing the Fockian in SOSCF/NRSCF***

               *****************************************************
               *                     SUCCESS                       *
               *           SCF CONVERGED AFTER  11 CYCLES          *
               *****************************************************

Setting up the final grid:

General Integration Accuracy     IntAcc      ...  4.670
Radial Grid Type                 RadialGrid  ... Gauss-Chebyshev
Angular Grid (max. acc.)         AngularGrid ... Lebedev-302
Angular grid pruning method      GridPruning ... 3 (G Style)
Weight generation scheme         WeightScheme... Becke
Basis function cutoff            BFCut       ...    1.0000e-11
Integration weight cutoff        WCut        ...    1.0000e-14
Grids for H and He will be reduced by one unit

# of grid points (after initial pruning)     ...  52000 (   0.0 sec)
# of grid points (after weights+screening)   ...  49077 (   0.0 sec)
nearest neighbour list constructed           ...    0.0 sec
Grid point re-assignment to atoms done       ...    0.0 sec
Grid point division into batches done        ...    0.2 sec
Reduced shell lists constructed in    0.2 sec

Total number of grid points                  ...    49077
Total number of batches                      ...      772
Average number of points per batch           ...       63
Average number of grid points per atom       ...     4090
Average number of shells per batch           ...    56.83 (74.77%)
Average number of basis functions per batch  ...   126.66 (73.64%)
Average number of large shells per batch     ...    46.99 (82.69%)
Average number of large basis fcns per batch ...   104.44 (82.45%)
Maximum spatial batch extension              ...   2.57,  3.09,  4.28 au
Average spatial batch extension              ...   0.13,  0.14,  0.15 au

Final grid set up in    0.3 sec
Final integration                            ... done (   0.1 sec)
Change in XC energy                          ...    -0.000352856
Integrated number of electrons               ...    36.000039104
Previous integrated no of electrons          ...    36.000756921

----------------
TOTAL SCF ENERGY
----------------

Total Energy       :         -231.47456873 Eh           -6298.74324 eV

Components:
Nuclear Repulsion  :          126.25143001 Eh            3435.47607 eV
Electronic Energy  :         -357.72599873 Eh           -9734.21930 eV
One Electron Energy:         -565.42856421 Eh          -15386.09345 eV
Two Electron Energy:          207.70256548 Eh            5651.87414 eV

Virial components:
Potential Energy   :         -461.91562977 Eh          -12569.36330 eV
Kinetic Energy     :          230.44106104 Eh            6270.62006 eV
Virial Ratio       :            2.00448491


DFT components:
N(Alpha)           :       18.000019552210 electrons
N(Beta)            :       18.000019552210 electrons
N(Total)           :       36.000039104420 electrons
E(XC)              :      -21.297512378146 Eh       
DFET-embed. en.    :        0.000000000000 Eh       

---------------
SCF CONVERGENCE
---------------

  Last Energy change         ...   -3.7937e-10  Tolerance :   1.0000e-08
  Last MAX-Density change    ...    2.6232e-06  Tolerance :   1.0000e-07
  Last RMS-Density change    ...    8.5813e-08  Tolerance :   5.0000e-09
  Last Orbital Gradient      ...    1.2436e-06  Tolerance :   1.0000e-05
  Last Orbital Rotation      ...    1.4514e-06  Tolerance :   1.0000e-05

             **** THE GBW FILE WAS UPDATED (22-202_DFT_AB.gbw) ****
             **** DENSITY FILE WAS UPDATED (22-202_DFT_AB.scfp.tmp) ****
             **** ENERGY FILE WAS UPDATED (22-202_DFT_AB.en.tmp) ****
----------------
ORBITAL ENERGIES
----------------

  NO   OCC          E(Eh)            E(eV) 
   0   2.0000     -19.251710      -523.8657 
   1   2.0000     -19.207231      -522.6553 
   2   2.0000     -10.329340      -281.0756 
   3   2.0000     -10.293644      -280.1043 
   4   2.0000      -1.149021       -31.2665 
   5   2.0000      -1.119986       -30.4764 
   6   2.0000      -0.804769       -21.8989 
   7   2.0000      -0.773311       -21.0429 
   8   2.0000      -0.627008       -17.0618 
   9   2.0000      -0.594700       -16.1826 
  10   2.0000      -0.548879       -14.9358 
  11   2.0000      -0.539169       -14.6715 
  12   2.0000      -0.528346       -14.3770 
  13   2.0000      -0.505209       -13.7474 
  14   2.0000      -0.459115       -12.4932 
  15   2.0000      -0.413391       -11.2489 
  16   2.0000      -0.389429       -10.5969 
  17   2.0000      -0.351571        -9.5667 
  18   0.0000       0.094364         2.5678 
  19   0.0000       0.140388         3.8201 
  20   0.0000       0.147949         4.0259 
  21   0.0000       0.182412         4.9637 
  22   0.0000       0.188945         5.1415 
  23   0.0000       0.198503         5.4015 
  24   0.0000       0.213639         5.8134 
  25   0.0000       0.216708         5.8969 
  26   0.0000       0.240056         6.5323 
  27   0.0000       0.262791         7.1509 
  28   0.0000       0.281067         7.6482 
  29   0.0000       0.315244         8.5782 
  30   0.0000       0.326630         8.8880 
  31   0.0000       0.334114         9.0917 
  32   0.0000       0.398084        10.8324 
  33   0.0000       0.416082        11.3222 
  34   0.0000       0.444341        12.0911 
  35   0.0000       0.476245        12.9593 
  36   0.0000       0.483204        13.1486 
  37   0.0000       0.499532        13.5930 
  38   0.0000       0.519970        14.1491 
  39   0.0000       0.548336        14.9210 
  40   0.0000       0.561127        15.2690 
  41   0.0000       0.568598        15.4723 
  42   0.0000       0.570852        15.5337 
  43   0.0000       0.578770        15.7491 
  44   0.0000       0.583633        15.8814 
  45   0.0000       0.608359        16.5543 
  46   0.0000       0.644535        17.5387 
  47   0.0000       0.690880        18.7998 
  48   0.0000       0.713964        19.4279 
  49   0.0000       0.765231        20.8230 
  50   0.0000       0.789285        21.4775 
  51   0.0000       0.798856        21.7380 
  52   0.0000       0.838937        22.8286 
  53   0.0000       0.845259        23.0007 
  54   0.0000       0.880684        23.9646 
  55   0.0000       0.920727        25.0543 
  56   0.0000       0.980076        26.6692 
  57   0.0000       1.011048        27.5120 
  58   0.0000       1.027287        27.9539 
  59   0.0000       1.077667        29.3248 
  60   0.0000       1.103176        30.0189 
  61   0.0000       1.137234        30.9457 
  62   0.0000       1.369666        37.2705 
  63   0.0000       1.418800        38.6075 
  64   0.0000       1.468110        39.9493 
  65   0.0000       1.520253        41.3682 
  66   0.0000       1.539783        41.8996 
  67   0.0000       1.570422        42.7334 
  68   0.0000       1.589463        43.2515 
  69   0.0000       1.600968        43.5646 
  70   0.0000       1.621763        44.1304 
  71   0.0000       1.644088        44.7379 
  72   0.0000       1.651798        44.9477 
  73   0.0000       1.658084        45.1188 
  74   0.0000       1.675900        45.6036 
  75   0.0000       1.703004        46.3411 
  76   0.0000       1.715704        46.6867 
  77   0.0000       1.757767        47.8313 
  78   0.0000       1.769401        48.1478 
  79   0.0000       1.853818        50.4449 
  80   0.0000       1.974297        53.7233 
  81   0.0000       1.985216        54.0205 
  82   0.0000       2.012785        54.7707 
  83   0.0000       2.042989        55.5925 
  84   0.0000       2.045997        55.6744 
  85   0.0000       2.086343        56.7723 
  86   0.0000       2.105786        57.3013 
  87   0.0000       2.118443        57.6458 
  88   0.0000       2.140492        58.2458 
  89   0.0000       2.176068        59.2138 
  90   0.0000       2.229791        60.6757 
  91   0.0000       2.294325        62.4318 
  92   0.0000       2.305545        62.7371 
  93   0.0000       2.332801        63.4787 
  94   0.0000       2.359894        64.2160 
  95   0.0000       2.370372        64.5011 
  96   0.0000       2.388968        65.0071 
  97   0.0000       2.440356        66.4055 
  98   0.0000       2.461105        66.9701 
  99   0.0000       2.466914        67.1281 
 100   0.0000       2.480254        67.4911 
 101   0.0000       2.521775        68.6210 
 102   0.0000       2.605344        70.8950 
 103   0.0000       2.615112        71.1608 
 104   0.0000       2.624296        71.4107 
 105   0.0000       2.663202        72.4694 
 106   0.0000       2.678286        72.8799 
 107   0.0000       2.741714        74.6058 
 108   0.0000       2.814684        76.5914 
 109   0.0000       2.849358        77.5350 
 110   0.0000       2.859253        77.8042 
 111   0.0000       2.895176        78.7817 
 112   0.0000       2.912014        79.2399 
 113   0.0000       2.935080        79.8676 
 114   0.0000       3.000644        81.6517 
 115   0.0000       3.053296        83.0844 
 116   0.0000       3.095595        84.2354 
 117   0.0000       3.122355        84.9636 
 118   0.0000       3.173451        86.3540 
 119   0.0000       3.203282        87.1657 
 120   0.0000       3.277722        89.1913 
 121   0.0000       3.341556        90.9284 
 122   0.0000       3.392304        92.3093 
 123   0.0000       3.412537        92.8598 
 124   0.0000       3.425624        93.2160 
 125   0.0000       3.460360        94.1612 
 126   0.0000       3.466880        94.3386 
 127   0.0000       3.537534        96.2612 
 128   0.0000       3.592924        97.7684 
 129   0.0000       3.612808        98.3095 
 130   0.0000       3.647632        99.2571 
 131   0.0000       3.661631        99.6381 
 132   0.0000       3.672796        99.9419 
 133   0.0000       3.699828       100.6775 
 134   0.0000       3.964023       107.8665 
 135   0.0000       4.051513       110.2473 
 136   0.0000       4.163233       113.2873 
 137   0.0000       4.201232       114.3213 
 138   0.0000       4.288144       116.6863 
 139   0.0000       4.356606       118.5493 
 140   0.0000       4.426724       120.4573 
 141   0.0000       4.455068       121.2286 
 142   0.0000       4.565576       124.2356 
 143   0.0000       4.570428       124.3677 
 144   0.0000       5.334859       145.1689 
 145   0.0000       5.393065       146.7528 
 146   0.0000       5.412269       147.2753 
 147   0.0000       5.479973       149.1176 
 148   0.0000       5.515594       150.0869 
 149   0.0000       5.579386       151.8228 
 150   0.0000       5.764983       156.8732 
 151   0.0000       5.780072       157.2838 
 152   0.0000       5.845003       159.0506 
 153   0.0000       5.888047       160.2219 
 154   0.0000       5.944337       161.7536 
 155   0.0000       6.053924       164.7356 
 156   0.0000       6.277491       170.8192 
 157   0.0000       6.360442       173.0764 
 158   0.0000       6.516445       177.3215 
 159   0.0000       6.564621       178.6324 
 160   0.0000       6.752236       183.7377 
 161   0.0000       6.775083       184.3594 
 162   0.0000       6.795732       184.9213 
 163   0.0000       6.846203       186.2947 
 164   0.0000       7.033494       191.3911 
 165   0.0000       7.065073       192.2504 
 166   0.0000       7.185100       195.5165 
 167   0.0000       7.259640       197.5449 
 168   0.0000      22.317936       607.3019 
 169   0.0000      22.492122       612.0418 
 170   0.0000      43.672081      1188.3777 
 171   0.0000      43.744987      1190.3616 

                    ********************************
                    * MULLIKEN POPULATION ANALYSIS *
                    ********************************

-----------------------
MULLIKEN ATOMIC CHARGES
-----------------------
   0 C :   -0.164255
   1 O :   -0.498902
   2 H :    0.323440
   3 H :    0.115441
   4 H :    0.130429
   5 H :    0.108694
   6 C :   -0.143164
   7 O :   -0.475822
   8 H :    0.317940
   9 H :    0.082786
  10 H :    0.110987
  11 H :    0.092426
Sum of atomic charges:    0.0000000

--------------------------------
MULLIKEN REDUCED ORBITAL CHARGES
--------------------------------
  0 C s       :     3.240318  s :     3.240318
      pz      :     1.041224  p :     2.824742
      px      :     0.995983
      py      :     0.787535
      dz2     :     0.007732  d :     0.091785
      dxz     :     0.014874
      dyz     :     0.023367
      dx2y2   :     0.019060
      dxy     :     0.026753
      f0      :     0.000819  f :     0.007410
      f+1     :     0.000937
      f-1     :     0.000867
      f+2     :     0.000647
      f-2     :     0.001096
      f+3     :     0.001050
      f-3     :     0.001993
  1 O s       :     3.797788  s :     3.797788
      pz      :     1.886599  p :     4.670018
      px      :     1.542332
      py      :     1.241086
      dz2     :     0.004141  d :     0.029511
      dxz     :     0.003184
      dyz     :     0.003675
      dx2y2   :     0.003831
      dxy     :     0.014680
      f0      :     0.000225  f :     0.001586
      f+1     :     0.000210
      f-1     :     0.000370
      f+2     :     0.000056
      f-2     :     0.000192
      f+3     :     0.000266
      f-3     :     0.000267
  2 H s       :     0.631684  s :     0.631684
      pz      :     0.016036  p :     0.044876
      px      :     0.014412
      py      :     0.014428
  3 H s       :     0.864681  s :     0.864681
      pz      :     0.010318  p :     0.019878
      px      :     0.006307
      py      :     0.003253
  4 H s       :     0.849994  s :     0.849994
      pz      :     0.003896  p :     0.019577
      px      :     0.008066
      py      :     0.007615
  5 H s       :     0.872414  s :     0.872414
      pz      :     0.007510  p :     0.018891
      px      :     0.008067
      py      :     0.003314
  6 C s       :     3.210069  s :     3.210069
      pz      :     0.801073  p :     2.822602
      px      :     1.062668
      py      :     0.958861
      dz2     :     0.035676  d :     0.102363
      dxz     :     0.017499
      dyz     :     0.016363
      dx2y2   :     0.024125
      dxy     :     0.008700
      f0      :     0.001996  f :     0.008130
      f+1     :     0.001265
      f-1     :     0.001813
      f+2     :     0.001388
      f-2     :     0.000740
      f+3     :     0.000648
      f-3     :     0.000279
  7 O s       :     3.792976  s :     3.792976
      pz      :     1.523761  p :     4.649901
      px      :     1.372250
      py      :     1.753890
      dz2     :     0.009840  d :     0.031303
      dxz     :     0.004469
      dyz     :     0.006941
      dx2y2   :     0.008334
      dxy     :     0.001719
      f0      :     0.000185  f :     0.001642
      f+1     :     0.000240
      f-1     :     0.000351
      f+2     :     0.000162
      f-2     :     0.000185
      f+3     :     0.000369
      f-3     :     0.000151
  8 H s       :     0.634185  s :     0.634185
      pz      :     0.011330  p :     0.047875
      px      :     0.021889
      py      :     0.014656
  9 H s       :     0.898656  s :     0.898656
      pz      :     0.002889  p :     0.018558
      px      :     0.004090
      py      :     0.011579
 10 H s       :     0.868700  s :     0.868700
      pz      :     0.003576  p :     0.020312
      px      :     0.012843
      py      :     0.003894
 11 H s       :     0.887450  s :     0.887450
      pz      :     0.009900  p :     0.020124
      px      :     0.005242
      py      :     0.004982


                     *******************************
                     * LOEWDIN POPULATION ANALYSIS *
                     *******************************

----------------------
LOEWDIN ATOMIC CHARGES
----------------------
   0 C :   -0.371062
   1 O :   -0.096741
   2 H :    0.181502
   3 H :    0.093990
   4 H :    0.117709
   5 H :    0.100442
   6 C :   -0.413195
   7 O :   -0.067278
   8 H :    0.167729
   9 H :    0.095525
  10 H :    0.103795
  11 H :    0.087583

-------------------------------
LOEWDIN REDUCED ORBITAL CHARGES
-------------------------------
  0 C s       :     2.873756  s :     2.873756
      pz      :     1.098612  p :     3.046399
      px      :     1.052388
      py      :     0.895400
      dz2     :     0.050015  d :     0.396524
      dxz     :     0.077992
      dyz     :     0.077710
      dx2y2   :     0.062857
      dxy     :     0.127950
      f0      :     0.005517  f :     0.054382
      f+1     :     0.003682
      f-1     :     0.008744
      f+2     :     0.008504
      f-2     :     0.005793
      f+3     :     0.010326
      f-3     :     0.011817
  1 O s       :     3.384232  s :     3.384232
      pz      :     1.794136  p :     4.639900
      px      :     1.555291
      py      :     1.290473
      dz2     :     0.008409  d :     0.068218
      dxz     :     0.004465
      dyz     :     0.011920
      dx2y2   :     0.012214
      dxy     :     0.031209
      f0      :     0.000376  f :     0.004391
      f+1     :     0.000296
      f-1     :     0.000692
      f+2     :     0.000230
      f-2     :     0.000657
      f+3     :     0.000801
      f-3     :     0.001340
  2 H s       :     0.668562  s :     0.668562
      pz      :     0.043998  p :     0.149935
      px      :     0.060169
      py      :     0.045768
  3 H s       :     0.841849  s :     0.841849
      pz      :     0.033194  p :     0.064161
      px      :     0.019658
      py      :     0.011309
  4 H s       :     0.826213  s :     0.826213
      pz      :     0.011705  p :     0.056079
      px      :     0.023961
      py      :     0.020413
  5 H s       :     0.841875  s :     0.841875
      pz      :     0.023009  p :     0.057682
      px      :     0.023905
      py      :     0.010768
  6 C s       :     2.857743  s :     2.857743
      pz      :     0.934689  p :     3.057210
      px      :     1.090518
      py      :     1.032004
      dz2     :     0.155881  d :     0.436762
      dxz     :     0.063032
      dyz     :     0.094040
      dx2y2   :     0.097115
      dxy     :     0.026694
      f0      :     0.012236  f :     0.061480
      f+1     :     0.010521
      f-1     :     0.013585
      f+2     :     0.009425
      f-2     :     0.009456
      f+3     :     0.004247
      f-3     :     0.002011
  7 O s       :     3.359788  s :     3.359788
      pz      :     1.559342  p :     4.628501
      px      :     1.371853
      py      :     1.697305
      dz2     :     0.023295  d :     0.074024
      dxz     :     0.011602
      dyz     :     0.015740
      dx2y2   :     0.017874
      dxy     :     0.005514
      f0      :     0.000929  f :     0.004966
      f+1     :     0.000964
      f-1     :     0.000830
      f+2     :     0.000701
      f-2     :     0.000610
      f+3     :     0.000734
      f-3     :     0.000198
  8 H s       :     0.675448  s :     0.675448
      pz      :     0.033356  p :     0.156823
      px      :     0.082522
      py      :     0.040944
  9 H s       :     0.849549  s :     0.849549
      pz      :     0.008703  p :     0.054926
      px      :     0.013244
      py      :     0.032980
 10 H s       :     0.836467  s :     0.836467
      pz      :     0.010544  p :     0.059738
      px      :     0.036942
      py      :     0.012253
 11 H s       :     0.849391  s :     0.849391
      pz      :     0.029651  p :     0.063026
      px      :     0.017077
      py      :     0.016298


                      *****************************
                      * MAYER POPULATION ANALYSIS *
                      *****************************

  NA   - Mulliken gross atomic population
  ZA   - Total nuclear charge
  QA   - Mulliken gross atomic charge
  VA   - Mayer's total valence
  BVA  - Mayer's bonded valence
  FA   - Mayer's free valence

  ATOM       NA         ZA         QA         VA         BVA        FA
  0 C      6.1643     6.0000    -0.1643     3.9004     3.9004     0.0000
  1 O      8.4989     8.0000    -0.4989     1.8778     1.8778     0.0000
  2 H      0.6766     1.0000     0.3234     0.9038     0.9038     0.0000
  3 H      0.8846     1.0000     0.1154     0.9623     0.9623     0.0000
  4 H      0.8696     1.0000     0.1304     0.9652     0.9652    -0.0000
  5 H      0.8913     1.0000     0.1087     0.9546     0.9546     0.0000
  6 C      6.1432     6.0000    -0.1432     3.9541     3.9541     0.0000
  7 O      8.4758     8.0000    -0.4758     1.8870     1.8870     0.0000
  8 H      0.6821     1.0000     0.3179     0.9311     0.9311     0.0000
  9 H      0.9172     1.0000     0.0828     0.9606     0.9606     0.0000
 10 H      0.8890     1.0000     0.1110     0.9584     0.9584     0.0000
 11 H      0.9076     1.0000     0.0924     0.9574     0.9574     0.0000

  Mayer bond orders larger than 0.1
B(  0-C ,  1-O ) :   0.9632 B(  0-C ,  3-H ) :   0.9837 B(  0-C ,  4-H ) :   0.9737 
B(  0-C ,  5-H ) :   0.9657 B(  1-O ,  2-H ) :   0.8903 B(  6-C ,  7-O ) :   1.0126 
B(  6-C ,  9-H ) :   0.9771 B(  6-C , 10-H ) :   0.9760 B(  6-C , 11-H ) :   0.9782 
B(  7-O ,  8-H ) :   0.8861 

-------
TIMINGS
-------

Total SCF time: 0 days 0 hours 0 min 17 sec 

Total time                  ....      17.609 sec
Sum of individual times     ....      17.077 sec  ( 97.0%)

Fock matrix formation       ....      16.383 sec  ( 93.0%)
  XC integration            ....       6.605 sec  ( 40.3% of F)
    Basis function eval.    ....       0.062 sec  (  0.9% of XC)
    Density eval.           ....       0.093 sec  (  1.4% of XC)
    XC-Functional eval.     ....       0.121 sec  (  1.8% of XC)
    XC-Potential eval.      ....       0.072 sec  (  1.1% of XC)
Diagonalization             ....       0.051 sec  (  0.3%)
Density matrix formation    ....       0.005 sec  (  0.0%)
Population analysis         ....       0.120 sec  (  0.7%)
Initial guess               ....       0.099 sec  (  0.6%)
Orbital Transformation      ....       0.000 sec  (  0.0%)
Orbital Orthonormalization  ....       0.000 sec  (  0.0%)
DIIS solution               ....       0.032 sec  (  0.2%)
SOSCF solution              ....       0.075 sec  (  0.4%)
Grid generation             ....       0.312 sec  (  1.8%)


-------------------------------------------------------------------------------
                          DFT DISPERSION CORRECTION                            
                                                                               
                              DFTD3 V3.1  Rev 1                                
                              USING zero damping                               
-------------------------------------------------------------------------------
The omegaB97X-D3 functional is recognized. Fit by Chai et al.
Active option DFTDOPT                   ...         3   

molecular C6(AA) [au] = 834.931195 


            DFT-D V3
 parameters
 s6 scaling factor         :     1.0000 
 rs6 scaling factor        :     1.2810 
 s8 scaling factor         :     1.0000 
 rs8 scaling factor        :     1.0940 
 Damping factor alpha6     :    14.0000 
 Damping factor alpha8     :    16.0000 
 ad hoc parameters k1-k3   :    16.0000     1.3333    -4.0000 

 Edisp/kcal,au: -1.042804291608  -0.001661814241 
 E6   /kcal   :  -0.500873724 
 E8   /kcal   :  -0.541930568 
 % E8         :  51.968578571 

-------------------------   ----------------
Dispersion correction           -0.001661814
-------------------------   ----------------


-------------------------   --------------------
FINAL SINGLE POINT ENERGY      -231.476230541020
-------------------------   --------------------


                            ***************************************
                            *     ORCA property calculations      *
                            ***************************************

                                    ---------------------
                                    Active property flags
                                    ---------------------
   (+) Dipole Moment


------------------------------------------------------------------------------
                       ORCA ELECTRIC PROPERTIES CALCULATION
------------------------------------------------------------------------------

Dipole Moment Calculation                       ... on
Quadrupole Moment Calculation                   ... off
Polarizability Calculation                      ... off
GBWName                                         ... 22-202_DFT_AB.gbw
Electron density file                           ... 22-202_DFT_AB.scfp.tmp
The origin for moment calculation is the CENTER OF MASS  = ( 7.368788, 17.546915 -14.069573)

-------------
DIPOLE MOMENT
-------------
                                X             Y             Z
Electronic contribution:      0.41177      -2.30655       1.19273
Nuclear contribution   :     -1.74419       2.56834      -1.39011
                        -----------------------------------------
Total Dipole Moment    :     -1.33242       0.26179      -0.19738
                        -----------------------------------------
Magnitude (a.u.)       :      1.37217
Magnitude (Debye)      :      3.48778



--------------------
Rotational spectrum 
--------------------
 
Rotational constants in cm-1:     0.532913     0.070153     0.066479 
Rotational constants in MHz : 15976.333271  2103.124168  1992.975411 

 Dipole components along the rotational axes: 
x,y,z [a.u.] :     1.285875    -0.152544     0.453985 
x,y,z [Debye]:     3.268435    -0.387735     1.153938 

 
------------------------------------------------------------------------------
                      ORCA CHELPG CHARGES GENERATION
------------------------------------------------------------------------------

GBW file                           ... 22-202_DFT_AB.gbw

Reading the GBW file               ... done

Grid spacing                       ...     0.300000
Point Cut-Off                      ...     2.800000
Van-der-Waals Radii                ...        COSMO
Total charge                       ...            0


Number of points X direction       ...           38
Number of points Y direction       ...           28
Number of points Z direction       ...           29
Maximum number of possible points  ...        30856
Final number of points             ...        10105


CHELPG Charges            
--------------------------------
  0   C   :      -0.153875
  1   O   :      -0.487236
  2   H   :       0.384241
  3   H   :       0.080881
  4   H   :       0.143646
  5   H   :       0.078084
  6   C   :       0.080532
  7   O   :      -0.556238
  8   H   :       0.337861
  9   H   :       0.024866
 10   H   :       0.057409
 11   H   :       0.009830
--------------------------------
Total charge:    -0.000000
--------------------------------

CHELPG charges calculated...

Timings for individual parts in CHELPG calculation:
Grid generation                 ...        0.001 sec (=   0.000 min)
Potential calculation           ...        2.188 sec (=   0.036 min)
Fit to the potential            ...        0.003 sec (=   0.000 min)
------------------------------------------------------------------------------


Timings for individual modules:

Sum of individual times         ...       27.145 sec (=   0.452 min)
GTO integral calculation        ...        4.750 sec (=   0.079 min)  17.5 %
SCF iterations                  ...       20.167 sec (=   0.336 min)  74.3 %
CHELPG charge generation        ...        2.228 sec (=   0.037 min)   8.2 %


                 $$$$$$$$$$$$$$$$  JOB NUMBER  2 $$$$$$$$$$$$$$


                       ****************************
                       * Single Point Calculation *
                       ****************************

---------------------------------
CARTESIAN COORDINATES (ANGSTROEM)
---------------------------------
  C      1.849405   10.403174   -6.975823
  O      2.478847    9.152996   -7.261366
  H      1.801508    8.464641   -7.105804
  H      1.309623   10.282888   -6.056580
  H      2.652118   11.175749   -6.874183
  H      1.064721   10.693394   -7.711019
  C      5.865347    9.167918   -8.360008
  O      5.500343    8.493549   -7.201196
  H      4.539778    8.361218   -7.270459
  H      5.527229   10.237435   -8.308055
  H      6.944993    9.086587   -8.452698
  H      5.493211    8.733666   -9.272044

----------------------------
CARTESIAN COORDINATES (A.U.)
----------------------------
  NO LB      ZA    FRAG     MASS         X           Y           Z
   0 C     6.0000    0    12.011    3.494869   19.659150  -13.182395
   1 O     8.0000    0    15.999    4.684342   17.296656  -13.721993
   2 H     1.0000    0     1.008    3.404357   15.995853  -13.428024
   3 H     1.0000    0     1.008    2.474829   19.431842  -11.445278
   4 H     1.0000    0     1.008    5.011777   21.119105  -12.990323
   5 H     1.0000    0     1.008    2.012031   20.207586  -14.571714
   6 C     0.0000    0     0.000   11.083900   17.324854  -15.798126
   7 O     0.0000    0     0.000   10.394142   16.050482  -13.608288
   8 H     0.0000    0     0.000    8.578937   15.800412  -13.739176
   9 H     0.0000    0     0.000   10.444949   19.345948  -15.699949
  10 H     0.0000    0     0.000   13.124135   17.171161  -15.973284
  11 H     0.0000    0     0.000   10.380664   16.504237  -17.521624

--------------------------------
INTERNAL COORDINATES (ANGSTROEM)
--------------------------------
 C      0   0   0     0.000000000000     0.00000000     0.00000000
 O      1   0   0     1.428522687218     0.00000000     0.00000000
 H      2   1   0     0.978171898385   106.19809484     0.00000000
 H      1   2   3     1.072772586511   107.14909984    45.26397619
 H      1   2   3     1.118727393333   107.84057797   164.98469667
 H      1   2   3     1.113763793033   113.98725502   290.89466375
 C      2   1   3     3.560283578628   118.49815519   178.86006881
 O      7   2   1     1.389549106553    59.38729085   120.62158886
 H      8   7   2     0.972108006322   105.43855150    19.30746839
 H      7   2   1     1.122893365116    72.74046241   353.53092305
 H      7   2   1     1.086665382248   166.18017953   105.75789124
 H      7   2   1     1.076508089749    86.03950778   242.63392004

---------------------------
INTERNAL COORDINATES (A.U.)
---------------------------
 C      0   0   0     0.000000000000     0.00000000     0.00000000
 O      1   0   0     2.699516654936     0.00000000     0.00000000
 H      2   1   0     1.848476999845   106.19809484     0.00000000
 H      1   2   3     2.027246392484   107.14909984    45.26397619
 H      1   2   3     2.114088391915   107.84057797   164.98469667
 H      1   2   3     2.104708546710   113.98725502   290.89466375
 C      2   1   3     6.727960922704   118.49815519   178.86006881
 O      7   2   1     2.625867261019    59.38729085   120.62158886
 H      8   7   2     1.837017904540   105.43855150    19.30746839
 H      7   2   1     2.121960937667    72.74046241   353.53092305
 H      7   2   1     2.053499971662   166.18017953   105.75789124
 H      7   2   1     2.034305470577    86.03950778   242.63392004

---------------------
BASIS SET INFORMATION
---------------------
There are 3 groups of distinct atoms

 Group   1 Type C   : 11s6p2d1f contracted to 5s3p2d1f pattern {62111/411/11/1}
 Group   2 Type O   : 11s6p2d1f contracted to 5s3p2d1f pattern {62111/411/11/1}
 Group   3 Type H   : 5s1p contracted to 3s1p pattern {311/1}

Atom   0C    basis set group =>   1
Atom   1O    basis set group =>   2
Atom   2H    basis set group =>   3
Atom   3H    basis set group =>   3
Atom   4H    basis set group =>   3
Atom   5H    basis set group =>   3
Atom   6C    basis set group =>   1
Atom   7O    basis set group =>   2
Atom   8H    basis set group =>   3
Atom   9H    basis set group =>   3
Atom  10H    basis set group =>   3
Atom  11H    basis set group =>   3


           ************************************************************
           *        Program running with 8 parallel MPI-processes     *
           *              working on a common directory               *
           ************************************************************
------------------------------------------------------------------------------
                           ORCA GTO INTEGRAL CALCULATION
------------------------------------------------------------------------------

                         BASIS SET STATISTICS AND STARTUP INFO

 # of primitive gaussian shells          ...  128
 # of primitive gaussian functions       ...  248
 # of contracted shells                  ...   76
 # of contracted basis functions         ...  172
 Highest angular momentum                ...    3
 Maximum contraction depth               ...    6
 Integral package used                   ... LIBINT
 Integral threshhold            Thresh   ...  2.500e-11
 Primitive cut-off              TCut     ...  2.500e-12


------------------------------ INTEGRAL EVALUATION ----------------------------


 * One electron integrals 
 Pre-screening matrix                    ... done
 Shell pair data                         ... done (   0.001 sec)



           ************************************************************
           *        Program running with 8 parallel MPI-processes     *
           *              working on a common directory               *
           ************************************************************
-------------------------------------------------------------------------------
                                 ORCA SCF
-------------------------------------------------------------------------------

------------
SCF SETTINGS
------------
Hamiltonian:
 Density Functional     Method          .... DFT(GTOs)
 Exchange Functional    Exchange        .... WB97X-D3
 Correlation Functional Correlation     .... WB97X-D3
 Gradients option       PostSCFGGA      .... off
 Hybrid DFT is turned on
   Fraction HF Exchange ScalHFX         ....  0.195728
   Scaling of DF-GGA-X  ScalDFX         ....  0.000000
   Scaling of DF-GGA-C  ScalDFC         ....  1.000000
   Scaling of DF-LDA-C  ScalLDAC        ....  1.000000
   Perturbative correction              ....  0.000000
   Density functional embedding theory  .... OFF
 Long-range corrected/Screened/Range-Separated Hybrid DFT is turned on
   Amount of maximum screened exact exchange              ....  0.804272
   Range separation parameter mu (erf(mu*r12)/r12)        ....  0.250000


General Settings:
 Integral files         IntName         .... 22-202_DFT_A
 Hartree-Fock type      HFTyp           .... RHF
 Total Charge           Charge          ....    0
 Multiplicity           Mult            ....    1
 Number of Electrons    NEL             ....   18
 Basis Dimension        Dim             ....  172
 Nuclear Repulsion      ENuc            ....     40.0447953888 Eh

Convergence Acceleration:
 DIIS                   CNVDIIS         .... on
   Start iteration      DIISMaxIt       ....    12
   Startup error        DIISStart       ....  0.200000
   # of expansion vecs  DIISMaxEq       ....     5
   Bias factor          DIISBfac        ....   1.050
   Max. coefficient     DIISMaxC        ....  10.000
 Newton-Raphson         CNVNR           .... off
 SOSCF                  CNVSOSCF        .... on
   Start iteration      SOSCFMaxIt      ....   150
   Startup grad/error   SOSCFStart      ....  0.003300
 Level Shifting         CNVShift        .... on
   Level shift para.    LevelShift      ....    0.2500
   Turn off err/grad.   ShiftErr        ....    0.0010
 Zerner damping         CNVZerner       .... off
 Static damping         CNVDamp         .... on
   Fraction old density DampFac         ....    0.7000
   Max. Damping (<1)    DampMax         ....    0.9800
   Min. Damping (>=0)   DampMin         ....    0.0000
   Turn off err/grad.   DampErr         ....    0.1000
 Fernandez-Rico         CNVRico         .... off

SCF Procedure:
 Maximum # iterations   MaxIter         ....  1000
 SCF integral mode      SCFMode         .... Direct
   Integral package                     .... LIBINT
 Reset frequency        DirectResetFreq ....    20
 Integral Threshold     Thresh          ....  2.500e-11 Eh
 Primitive CutOff       TCut            ....  2.500e-12 Eh

Convergence Tolerance:
 Convergence Check Mode ConvCheckMode   .... Total+1el-Energy
 Convergence forced     ConvForced      .... 0
 Energy Change          TolE            ....  1.000e-08 Eh
 1-El. energy change                    ....  1.000e-05 Eh
 Orbital Gradient       TolG            ....  1.000e-05
 Orbital Rotation angle TolX            ....  1.000e-05
 DIIS Error             TolErr          ....  5.000e-07


Diagonalization of the overlap matrix:
Smallest eigenvalue                        ... 1.515e-03
Time for diagonalization                   ...    0.004 sec
Threshold for overlap eigenvalues          ... 1.000e-08
Number of eigenvalues below threshold      ... 0
Time for construction of square roots      ...    0.005 sec
Total time needed                          ...    0.009 sec

-------------------
DFT GRID GENERATION
-------------------

General Integration Accuracy     IntAcc      ...  4.340
Radial Grid Type                 RadialGrid  ... Gauss-Chebyshev
Angular Grid (max. acc.)         AngularGrid ... Lebedev-110
Angular grid pruning method      GridPruning ... 3 (G Style)
Weight generation scheme         WeightScheme... Becke
Basis function cutoff            BFCut       ...    1.0000e-11
Integration weight cutoff        WCut        ...    1.0000e-14
Grids for H and He will be reduced by one unit

# of grid points (after initial pruning)     ...  13096 (   0.0 sec)
# of grid points (after weights+screening)   ...  12482 (   0.0 sec)
nearest neighbour list constructed           ...    0.0 sec
Grid point re-assignment to atoms done       ...    0.0 sec
Grid point division into batches done        ...    0.0 sec
Reduced shell lists constructed in    0.0 sec

Total number of grid points                  ...    12482
Total number of batches                      ...      200
Average number of points per batch           ...       62
Average number of grid points per atom       ...     1040
Average number of shells per batch           ...    56.92 (74.90%)
Average number of basis functions per batch  ...   127.62 (74.19%)
Average number of large shells per batch     ...    47.42 (83.31%)
Average number of large basis fcns per batch ...   105.12 (82.37%)
Maximum spatial batch extension              ...   2.98,  4.45,  4.98 au
Average spatial batch extension              ...   0.19,  0.22,  0.22 au

Time for grid setup =    0.037 sec

------------------------------
INITIAL GUESS: MODEL POTENTIAL
------------------------------
Loading Hartree-Fock densities                     ... done
Calculating cut-offs                               ... done
Setting up the integral package                    ... done
Initializing the effective Hamiltonian             ... done
Starting the Coulomb interaction                   ... done (   0.0 sec)
Reading the grid                                   ... done
Mapping shells                                     ... done
Starting the XC term evaluation                    ... done (   0.0 sec)
  promolecular density results
     # of electrons  =     17.999813675
     EX              =    -14.417667426
     EC              =     -0.573886848
     EX+EC           =    -14.991554274
Transforming the Hamiltonian                       ... done (   0.0 sec)
Diagonalizing the Hamiltonian                      ... done (   0.0 sec)
Back transforming the eigenvectors                 ... done (   0.0 sec)
Now organizing SCF variables                       ... done
                      ------------------
                      INITIAL GUESS DONE (   0.1 sec)
                      ------------------
--------------
SCF ITERATIONS
--------------
ITER       Energy         Delta-E        Max-DP      RMS-DP      [F,P]     Damp
               ***  Starting incremental Fock matrix formation  ***
  0   -115.6493467221   0.000000000000 0.03651337  0.00075113  0.2398616 0.7000
  1   -115.6855846134  -0.036237891295 0.02262692  0.00053168  0.1185105 0.7000
                               ***Turning on DIIS***
  2   -115.7021123001  -0.016527686737 0.03426337  0.00095277  0.0448241 0.0000
  3   -115.7289664410  -0.026854140846 0.01807324  0.00035109  0.0615348 0.0000
  4   -115.7334271230  -0.004460681983 0.00412460  0.00006952  0.0062004 0.0000
                      *** Initiating the SOSCF procedure ***
                           *** Shutting down DIIS ***
                      *** Re-Reading the Fockian *** 
                      *** Removing any level shift *** 
ITER      Energy       Delta-E        Grad      Rot      Max-DP    RMS-DP
  5   -115.73352256  -0.0000954332  0.000433  0.000433  0.000761  0.000024
               *** Restarting incremental Fock matrix formation ***
  6   -115.73353121  -0.0000086491  0.000141  0.000166  0.000451  0.000015
  7   -115.73353205  -0.0000008428  0.000040  0.000078  0.000200  0.000006
  8   -115.73353212  -0.0000000721  0.000013  0.000012  0.000022  0.000001
  9   -115.73353212  -0.0000000029  0.000008  0.000006  0.000010  0.000000
                  ***Gradient check signals convergence***
              ***Rediagonalizing the Fockian in SOSCF/NRSCF***

               *****************************************************
               *                     SUCCESS                       *
               *           SCF CONVERGED AFTER  10 CYCLES          *
               *****************************************************

Setting up the final grid:

General Integration Accuracy     IntAcc      ...  4.670
Radial Grid Type                 RadialGrid  ... Gauss-Chebyshev
Angular Grid (max. acc.)         AngularGrid ... Lebedev-302
Angular grid pruning method      GridPruning ... 3 (G Style)
Weight generation scheme         WeightScheme... Becke
Basis function cutoff            BFCut       ...    1.0000e-11
Integration weight cutoff        WCut        ...    1.0000e-14
Grids for H and He will be reduced by one unit

# of grid points (after initial pruning)     ...  52000 (   0.0 sec)
# of grid points (after weights+screening)   ...  49077 (   0.0 sec)
nearest neighbour list constructed           ...    0.0 sec
Grid point re-assignment to atoms done       ...    0.0 sec
Grid point division into batches done        ...    0.2 sec
Reduced shell lists constructed in    0.2 sec

Total number of grid points                  ...    49077
Total number of batches                      ...      772
Average number of points per batch           ...       63
Average number of grid points per atom       ...     4090
Average number of shells per batch           ...    56.83 (74.77%)
Average number of basis functions per batch  ...   126.66 (73.64%)
Average number of large shells per batch     ...    46.99 (82.69%)
Average number of large basis fcns per batch ...   104.44 (82.45%)
Maximum spatial batch extension              ...   2.57,  3.09,  4.28 au
Average spatial batch extension              ...   0.13,  0.14,  0.15 au

Final grid set up in    0.4 sec
Final integration                            ... done (   0.1 sec)
Change in XC energy                          ...    -0.000203162
Integrated number of electrons               ...    18.000023550
Previous integrated no of electrons          ...    18.000892176

----------------
TOTAL SCF ENERGY
----------------

Total Energy       :         -115.73373529 Eh           -3149.27504 eV

Components:
Nuclear Repulsion  :           40.04479539 Eh            1089.67428 eV
Electronic Energy  :         -155.77853068 Eh           -4238.94932 eV
One Electron Energy:         -236.53845429 Eh           -6436.53857 eV
Two Electron Energy:           80.75992361 Eh            2197.58924 eV

Virial components:
Potential Energy   :         -230.89998052 Eh           -6283.10790 eV
Kinetic Energy     :          115.16624523 Eh            3133.83285 eV
Virial Ratio       :            2.00492757


DFT components:
N(Alpha)           :        9.000011774913 electrons
N(Beta)            :        9.000011774913 electrons
N(Total)           :       18.000023549826 electrons
E(XC)              :      -10.635532489542 Eh       
DFET-embed. en.    :        0.000000000000 Eh       

---------------
SCF CONVERGENCE
---------------

  Last Energy change         ...   -1.3060e-09  Tolerance :   1.0000e-08
  Last MAX-Density change    ...    2.5818e-06  Tolerance :   1.0000e-07
  Last RMS-Density change    ...    7.2671e-08  Tolerance :   5.0000e-09
  Last Orbital Gradient      ...    1.6492e-06  Tolerance :   1.0000e-05
  Last Orbital Rotation      ...    1.3488e-06  Tolerance :   1.0000e-05

             **** THE GBW FILE WAS UPDATED (22-202_DFT_A.gbw) ****
             **** DENSITY FILE WAS UPDATED (22-202_DFT_A.scfp.tmp) ****
             **** ENERGY FILE WAS UPDATED (22-202_DFT_A.en.tmp) ****
----------------
ORBITAL ENERGIES
----------------

  NO   OCC          E(Eh)            E(eV) 
   0   2.0000     -19.231901      -523.3266 
   1   2.0000     -10.317102      -280.7426 
   2   2.0000      -1.130030       -30.7497 
   3   2.0000      -0.791158       -21.5285 
   4   2.0000      -0.609918       -16.5967 
   5   2.0000      -0.535581       -14.5739 
   6   2.0000      -0.523637       -14.2489 
   7   2.0000      -0.439256       -11.9528 
   8   2.0000      -0.371761       -10.1161 
   9   0.0000       0.097887         2.6636 
  10   0.0000       0.122267         3.3271 
  11   0.0000       0.151747         4.1293 
  12   0.0000       0.184749         5.0273 
  13   0.0000       0.197252         5.3675 
  14   0.0000       0.206087         5.6079 
  15   0.0000       0.214715         5.8427 
  16   0.0000       0.226324         6.1586 
  17   0.0000       0.244162         6.6440 
  18   0.0000       0.295121         8.0307 
  19   0.0000       0.299366         8.1462 
  20   0.0000       0.329229         8.9588 
  21   0.0000       0.347587         9.4583 
  22   0.0000       0.353522         9.6198 
  23   0.0000       0.372698        10.1416 
  24   0.0000       0.412554        11.2262 
  25   0.0000       0.455396        12.3920 
  26   0.0000       0.477015        12.9802 
  27   0.0000       0.489619        13.3232 
  28   0.0000       0.526632        14.3304 
  29   0.0000       0.550240        14.9728 
  30   0.0000       0.560288        15.2462 
  31   0.0000       0.581780        15.8310 
  32   0.0000       0.598005        16.2725 
  33   0.0000       0.619454        16.8562 
  34   0.0000       0.655829        17.8460 
  35   0.0000       0.669299        18.2125 
  36   0.0000       0.704466        19.1695 
  37   0.0000       0.748549        20.3691 
  38   0.0000       0.789530        21.4842 
  39   0.0000       0.811975        22.0950 
  40   0.0000       0.826383        22.4870 
  41   0.0000       0.862928        23.4815 
  42   0.0000       0.891330        24.2543 
  43   0.0000       0.983747        26.7691 
  44   0.0000       1.018231        27.7075 
  45   0.0000       1.026653        27.9366 
  46   0.0000       1.061606        28.8878 
  47   0.0000       1.117153        30.3993 
  48   0.0000       1.170344        31.8467 
  49   0.0000       1.179551        32.0972 
  50   0.0000       1.211992        32.9800 
  51   0.0000       1.242073        33.7985 
  52   0.0000       1.245414        33.8894 
  53   0.0000       1.370931        37.3049 
  54   0.0000       1.402096        38.1530 
  55   0.0000       1.425945        38.8019 
  56   0.0000       1.467598        39.9354 
  57   0.0000       1.521782        41.4098 
  58   0.0000       1.559176        42.4273 
  59   0.0000       1.566388        42.6236 
  60   0.0000       1.590693        43.2849 
  61   0.0000       1.626298        44.2538 
  62   0.0000       1.635875        44.5144 
  63   0.0000       1.693237        46.0753 
  64   0.0000       1.737915        47.2911 
  65   0.0000       1.785178        48.5772 
  66   0.0000       1.842855        50.1466 
  67   0.0000       1.950779        53.0834 
  68   0.0000       1.975464        53.7551 
  69   0.0000       2.001481        54.4631 
  70   0.0000       2.017526        54.8997 
  71   0.0000       2.056976        55.9732 
  72   0.0000       2.105605        57.2964 
  73   0.0000       2.135681        58.1148 
  74   0.0000       2.176209        59.2176 
  75   0.0000       2.202239        59.9260 
  76   0.0000       2.222557        60.4788 
  77   0.0000       2.247627        61.1610 
  78   0.0000       2.256841        61.4118 
  79   0.0000       2.317540        63.0635 
  80   0.0000       2.347626        63.8821 
  81   0.0000       2.354004        64.0557 
  82   0.0000       2.380872        64.7868 
  83   0.0000       2.470346        67.2215 
  84   0.0000       2.483013        67.5662 
  85   0.0000       2.574643        70.0596 
  86   0.0000       2.615331        71.1668 
  87   0.0000       2.618800        71.2612 
  88   0.0000       2.639974        71.8373 
  89   0.0000       2.649788        72.1044 
  90   0.0000       2.722615        74.0861 
  91   0.0000       2.734872        74.4196 
  92   0.0000       2.827327        76.9355 
  93   0.0000       2.860541        77.8393 
  94   0.0000       2.878557        78.3295 
  95   0.0000       2.908611        79.1473 
  96   0.0000       2.958218        80.4972 
  97   0.0000       2.998366        81.5897 
  98   0.0000       3.089778        84.0771 
  99   0.0000       3.111928        84.6799 
 100   0.0000       3.123667        84.9993 
 101   0.0000       3.176601        86.4397 
 102   0.0000       3.221659        87.6658 
 103   0.0000       3.291166        89.5572 
 104   0.0000       3.300768        89.8185 
 105   0.0000       3.315682        90.2243 
 106   0.0000       3.365182        91.5713 
 107   0.0000       3.404526        92.6419 
 108   0.0000       3.436575        93.5140 
 109   0.0000       3.450094        93.8818 
 110   0.0000       3.480357        94.7053 
 111   0.0000       3.580148        97.4208 
 112   0.0000       3.607043        98.1526 
 113   0.0000       3.625634        98.6585 
 114   0.0000       3.660419        99.6051 
 115   0.0000       3.733555       101.5952 
 116   0.0000       3.782213       102.9192 
 117   0.0000       3.981036       108.3295 
 118   0.0000       4.114116       111.9508 
 119   0.0000       4.176187       113.6398 
 120   0.0000       4.187444       113.9461 
 121   0.0000       4.286113       116.6311 
 122   0.0000       4.296771       116.9211 
 123   0.0000       4.302826       117.0858 
 124   0.0000       4.368621       118.8762 
 125   0.0000       4.437490       120.7502 
 126   0.0000       4.535251       123.4104 
 127   0.0000       4.562506       124.1521 
 128   0.0000       4.580487       124.6414 
 129   0.0000       4.591188       124.9326 
 130   0.0000       4.626823       125.9023 
 131   0.0000       5.049070       137.3922 
 132   0.0000       5.072833       138.0388 
 133   0.0000       5.154653       140.2653 
 134   0.0000       5.340214       145.3146 
 135   0.0000       5.358223       145.8047 
 136   0.0000       5.417102       147.4068 
 137   0.0000       5.452018       148.3569 
 138   0.0000       5.535760       150.6357 
 139   0.0000       5.782384       157.3467 
 140   0.0000       5.798317       157.7802 
 141   0.0000       5.839370       158.8973 
 142   0.0000       5.884062       160.1135 
 143   0.0000       5.964552       162.3037 
 144   0.0000       6.105906       166.1501 
 145   0.0000       6.297460       171.3626 
 146   0.0000       6.538991       177.9350 
 147   0.0000       6.663782       181.3307 
 148   0.0000       6.765867       184.1086 
 149   0.0000       6.776226       184.3905 
 150   0.0000       6.799423       185.0217 
 151   0.0000       6.870964       186.9684 
 152   0.0000       7.056066       192.0053 
 153   0.0000       7.148732       194.5269 
 154   0.0000       7.210852       196.2173 
 155   0.0000       7.325728       199.3432 
 156   0.0000       7.512766       204.4328 
 157   0.0000       8.098395       220.3685 
 158   0.0000       8.940796       243.2914 
 159   0.0000       9.349004       254.3993 
 160   0.0000       9.583656       260.7845 
 161   0.0000       9.600368       261.2393 
 162   0.0000       9.832739       267.5624 
 163   0.0000       9.932352       270.2730 
 164   0.0000       9.981829       271.6194 
[...]
  82   0.0000       2.427195        66.0473 
  83   0.0000       2.449471        66.6535 
  84   0.0000       2.504052        68.1387 
  85   0.0000       2.520540        68.5874 
  86   0.0000       2.553083        69.4729 
  87   0.0000       2.604266        70.8657 
  88   0.0000       2.643592        71.9358 
  89   0.0000       2.655933        72.2716 
  90   0.0000       2.671529        72.6960 
  91   0.0000       2.711608        73.7866 
  92   0.0000       2.822769        76.8115 
  93   0.0000       2.826739        76.9195 
  94   0.0000       2.872315        78.1597 
  95   0.0000       2.896243        78.8108 
  96   0.0000       2.915668        79.3394 
  97   0.0000       3.031822        82.5001 
  98   0.0000       3.038696        82.6871 
  99   0.0000       3.098456        84.3133 
 100   0.0000       3.110454        84.6398 
 101   0.0000       3.159710        85.9801 
 102   0.0000       3.178407        86.4888 
 103   0.0000       3.238401        88.1214 
 104   0.0000       3.290814        89.5476 
 105   0.0000       3.322419        90.4076 
 106   0.0000       3.377612        91.9095 
 107   0.0000       3.397900        92.4616 
 108   0.0000       3.413988        92.8993 
 109   0.0000       3.445470        93.7560 
 110   0.0000       3.517999        95.7296 
 111   0.0000       3.597270        97.8867 
 112   0.0000       3.622250        98.5664 
 113   0.0000       3.643227        99.1372 
 114   0.0000       3.654017        99.4309 
 115   0.0000       3.680632       100.1551 
 116   0.0000       3.771993       102.6412 
 117   0.0000       4.014646       109.2441 
 118   0.0000       4.071318       110.7862 
 119   0.0000       4.162061       113.2554 
 120   0.0000       4.183472       113.8381 
 121   0.0000       4.261033       115.9486 
 122   0.0000       4.265403       116.0675 
 123   0.0000       4.287260       116.6623 
 124   0.0000       4.334389       117.9447 
 125   0.0000       4.436275       120.7172 
 126   0.0000       4.516832       122.9093 
 127   0.0000       4.543536       123.6359 
 128   0.0000       4.551805       123.8609 
 129   0.0000       4.559990       124.0836 
 130   0.0000       4.615094       125.5831 
 131   0.0000       4.992347       135.8487 
 132   0.0000       5.056149       137.5848 
 133   0.0000       5.077436       138.1641 
 134   0.0000       5.263756       143.2341 
 135   0.0000       5.369887       146.1221 
 136   0.0000       5.453900       148.4082 
 137   0.0000       5.483733       149.2200 
 138   0.0000       5.555968       151.1856 
 139   0.0000       5.789538       157.5413 
 140   0.0000       5.820807       158.3922 
 141   0.0000       5.835575       158.7941 
 142   0.0000       5.866127       159.6254 
 143   0.0000       6.030693       164.1035 
 144   0.0000       6.033141       164.1701 
 145   0.0000       6.336047       172.4126 
 146   0.0000       6.540026       177.9631 
 147   0.0000       6.591051       179.3516 
 148   0.0000       6.690834       182.0668 
 149   0.0000       6.765343       184.0943 
 150   0.0000       6.805302       185.1817 
 151   0.0000       6.823688       185.6820 
 152   0.0000       7.039307       191.5493 
 153   0.0000       7.040652       191.5859 
 154   0.0000       7.189618       195.6395 
 155   0.0000       7.233749       196.8403 
 156   0.0000       7.377092       200.7409 
 157   0.0000       7.985844       217.3059 
 158   0.0000       8.858337       241.0476 
 159   0.0000       9.351387       254.4642 
 160   0.0000       9.512069       258.8366 
 161   0.0000       9.546834       259.7826 
 162   0.0000       9.763977       265.6913 
 163   0.0000       9.865120       268.4436 
 164   0.0000       9.922833       270.0140 
 165   0.0000      10.060780       273.7677 
 166   0.0000      11.137460       303.0657 
 167   0.0000      19.105931       519.8988 
 168   0.0000      22.475086       611.5782 
 169   0.0000      43.716587      1189.5888 
 170   0.0000      65.827356      1791.2534 
 171   0.0000     126.435345      3440.4806 

                    ********************************
                    * MULLIKEN POPULATION ANALYSIS *
                    ********************************

-----------------------
MULLIKEN ATOMIC CHARGES
-----------------------
   0 C :   -0.001532
   1 O :   -0.002457
   2 H :   -0.000364
   3 H :    0.000155
   4 H :   -0.000094
   5 H :   -0.000013
   6 C :   -0.162954
   7 O :   -0.462011
   8 H :    0.313092
   9 H :    0.096818
  10 H :    0.119805
  11 H :    0.099557
Sum of atomic charges:    0.0000000

--------------------------------
MULLIKEN REDUCED ORBITAL CHARGES
--------------------------------
  0 C s       :     0.000622  s :     0.000622
      pz      :     0.000115  p :     0.000926
      px      :     0.000215
      py      :     0.000595
      dz2     :     0.000013  d :    -0.000015
      dxz     :    -0.000001
      dyz     :    -0.000002
      dx2y2   :    -0.000017
      dxy     :    -0.000008
      f0      :     0.000000  f :    -0.000001
      f+1     :    -0.000000
      f-1     :     0.000000
      f+2     :     0.000000
      f-2     :     0.000000
      f+3     :     0.000000
      f-3     :    -0.000001
  1 O s       :    -0.000796  s :    -0.000796
      pz      :    -0.000001  p :     0.003306
      px      :     0.003217
      py      :     0.000090
      dz2     :    -0.000015  d :    -0.000052
      dxz     :     0.000003
      dyz     :    -0.000001
      dx2y2   :    -0.000017
      dxy     :    -0.000021
      f0      :     0.000000  f :    -0.000001
      f+1     :    -0.000000
      f-1     :    -0.000000
      f+2     :    -0.000000
      f-2     :     0.000000
      f+3     :    -0.000000
      f-3     :    -0.000000
  2 H s       :     0.000367  s :     0.000367
      pz      :    -0.000001  p :    -0.000003
      px      :    -0.000003
      py      :     0.000000
  3 H s       :    -0.000155  s :    -0.000155
      pz      :    -0.000000  p :     0.000000
      px      :     0.000001
      py      :    -0.000000
  4 H s       :     0.000093  s :     0.000093
      pz      :    -0.000000  p :     0.000000
      px      :    -0.000000
      py      :     0.000001
  5 H s       :     0.000014  s :     0.000014
      pz      :    -0.000000  p :    -0.000000
      px      :    -0.000000
      py      :    -0.000000
  6 C s       :     3.220130  s :     3.220130
      pz      :     0.796744  p :     2.833358
      px      :     1.074533
      py      :     0.962081
      dz2     :     0.034638  d :     0.101361
      dxz     :     0.017903
      dyz     :     0.016275
      dx2y2   :     0.023415
      dxy     :     0.009130
      f0      :     0.001994  f :     0.008105
      f+1     :     0.001241
      f-1     :     0.001816
      f+2     :     0.001373
      f-2     :     0.000754
      f+3     :     0.000652
      f-3     :     0.000275
  7 O s       :     3.797120  s :     3.797120
      pz      :     1.524715  p :     4.630949
      px      :     1.349062
      py      :     1.757172
      dz2     :     0.010074  d :     0.032261
      dxz     :     0.004520
      dyz     :     0.006948
      dx2y2   :     0.008900
      dxy     :     0.001820
      f0      :     0.000185  f :     0.001681
      f+1     :     0.000252
      f-1     :     0.000348
      f+2     :     0.000164
      f-2     :     0.000184
      f+3     :     0.000391
      f-3     :     0.000158
  8 H s       :     0.641043  s :     0.641043
      pz      :     0.011932  p :     0.045865
      px      :     0.018411
      py      :     0.015522
  9 H s       :     0.884658  s :     0.884658
      pz      :     0.002853  p :     0.018525
      px      :     0.004025
      py      :     0.011647
 10 H s       :     0.859722  s :     0.859722
      pz      :     0.003565  p :     0.020473
      px      :     0.012986
      py      :     0.003922
 11 H s       :     0.880352  s :     0.880352
      pz      :     0.009923  p :     0.020091
      px      :     0.005196
      py      :     0.004972


                     *******************************
                     * LOEWDIN POPULATION ANALYSIS *
                     *******************************

----------------------
LOEWDIN ATOMIC CHARGES
----------------------
   0 C :   -0.001503
   1 O :   -0.010900
   2 H :   -0.000892
   3 H :   -0.000021
   4 H :   -0.000242
   5 H :   -0.000033
   6 C :   -0.408370
   7 O :   -0.056397
   8 H :    0.181512
   9 H :    0.099436
  10 H :    0.107848
  11 H :    0.089563

-------------------------------
LOEWDIN REDUCED ORBITAL CHARGES
-------------------------------
  0 C s       :     0.000250  s :     0.000250
      pz      :     0.000104  p :     0.001238
      px      :     0.000630
      py      :     0.000504
      dz2     :     0.000004  d :     0.000014
      dxz     :     0.000004
      dyz     :     0.000002
      dx2y2   :     0.000003
      dxy     :     0.000001
      f0      :     0.000000  f :     0.000001
      f+1     :     0.000000
      f-1     :     0.000000
      f+2     :     0.000000
      f-2     :     0.000000
      f+3     :     0.000000
      f-3     :     0.000000
  1 O s       :     0.001292  s :     0.001292
      pz      :     0.000240  p :     0.009391
      px      :     0.007849
      py      :     0.001302
      dz2     :     0.000055  d :     0.000211
      dxz     :     0.000006
      dyz     :     0.000000
      dx2y2   :     0.000089
      dxy     :     0.000061
      f0      :     0.000000  f :     0.000006
      f+1     :     0.000002
      f-1     :     0.000000
      f+2     :     0.000000
      f-2     :     0.000000
      f+3     :     0.000001
      f-3     :     0.000002
  2 H s       :     0.000889  s :     0.000889
      pz      :     0.000000  p :     0.000004
      px      :     0.000001
      py      :     0.000002
  3 H s       :     0.000020  s :     0.000020
      pz      :     0.000001  p :     0.000001
      px      :     0.000000
      py      :     0.000000
  4 H s       :     0.000241  s :     0.000241
      pz      :     0.000000  p :     0.000001
      px      :     0.000001
      py      :     0.000000
  5 H s       :     0.000032  s :     0.000032
      pz      :     0.000000  p :     0.000001
      px      :     0.000000
      py      :     0.000000
  6 C s       :     2.857916  s :     2.857916
      pz      :     0.930740  p :     3.055909
      px      :     1.093110
      py      :     1.032059
      dz2     :     0.154568  d :     0.433183
      dxz     :     0.062324
      dyz     :     0.094182
      dx2y2   :     0.095377
      dxy     :     0.026732
      f0      :     0.012263  f :     0.061362
      f+1     :     0.010427
      f-1     :     0.013638
      f+2     :     0.009439
      f-2     :     0.009393
      f+3     :     0.004219
      f-3     :     0.001984
  7 O s       :     3.361822  s :     3.361822
      pz      :     1.561950  p :     4.613844
      px      :     1.352530
      py      :     1.699364
      dz2     :     0.023699  d :     0.075687
      dxz     :     0.011690
      dyz     :     0.015799
      dx2y2   :     0.018891
      dxy     :     0.005607
      f0      :     0.000939  f :     0.005045
      f+1     :     0.000995
      f-1     :     0.000822
      f+2     :     0.000705
      f-2     :     0.000610
      f+3     :     0.000775
      f-3     :     0.000200
  8 H s       :     0.666504  s :     0.666504
      pz      :     0.033847  p :     0.151983
      px      :     0.076608
      py      :     0.041528
  9 H s       :     0.845288  s :     0.845288
      pz      :     0.008627  p :     0.055276
      px      :     0.013245
      py      :     0.033404
 10 H s       :     0.832093  s :     0.832093
      pz      :     0.010429  p :     0.060059
      px      :     0.037437
      py      :     0.012194
 11 H s       :     0.847139  s :     0.847139
      pz      :     0.029870  p :     0.063299
      px      :     0.017104
      py      :     0.016325


                      *****************************
                      * MAYER POPULATION ANALYSIS *
                      *****************************

  NA   - Mulliken gross atomic population
  ZA   - Total nuclear charge
  QA   - Mulliken gross atomic charge
  VA   - Mayer's total valence
  BVA  - Mayer's bonded valence
  FA   - Mayer's free valence

  ATOM       NA         ZA         QA         VA         BVA        FA
  0 C      0.0015     0.0000    -0.0015     0.0031     0.0031     0.0000
  1 O      0.0025     0.0000    -0.0025     0.0049     0.0049    -0.0000
  2 H      0.0004     0.0000    -0.0004     0.0007     0.0007    -0.0000
  3 H     -0.0002     0.0000     0.0002    -0.0003    -0.0003    -0.0000
  4 H      0.0001     0.0000    -0.0001     0.0002     0.0002     0.0000
  5 H      0.0000     0.0000    -0.0000     0.0000     0.0000     0.0000
  6 C      6.1630     6.0000    -0.1630     3.9371     3.9371     0.0000
  7 O      8.4620     8.0000    -0.4620     1.9010     1.9010     0.0000
  8 H      0.6869     1.0000     0.3131     0.9189     0.9189     0.0000
  9 H      0.9032     1.0000     0.0968     0.9592     0.9592    -0.0000
 10 H      0.8802     1.0000     0.1198     0.9605     0.9605     0.0000
 11 H      0.9004     1.0000     0.0996     0.9551     0.9551     0.0000

  Mayer bond orders larger than 0.1
B(  6-C ,  7-O ) :   1.0013 B(  6-C ,  9-H ) :   0.9756 B(  6-C , 10-H ) :   0.9753 
B(  6-C , 11-H ) :   0.9758 B(  7-O ,  8-H ) :   0.9050 

-------
TIMINGS
-------

Total SCF time: 0 days 0 hours 0 min 9 sec 

Total time                  ....       9.067 sec
Sum of individual times     ....       8.793 sec  ( 97.0%)

Fock matrix formation       ....       8.265 sec  ( 91.2%)
  XC integration            ....       1.145 sec  ( 13.9% of F)
    Basis function eval.    ....       0.058 sec  (  5.1% of XC)
    Density eval.           ....       0.056 sec  (  4.8% of XC)
    XC-Functional eval.     ....       0.080 sec  (  7.0% of XC)
    XC-Potential eval.      ....       0.065 sec  (  5.6% of XC)
Diagonalization             ....       0.049 sec  (  0.5%)
Density matrix formation    ....       0.004 sec  (  0.0%)
Population analysis         ....       0.032 sec  (  0.4%)
Initial guess               ....       0.097 sec  (  1.1%)
Orbital Transformation      ....       0.000 sec  (  0.0%)
Orbital Orthonormalization  ....       0.000 sec  (  0.0%)
DIIS solution               ....       0.023 sec  (  0.3%)
SOSCF solution              ....       0.023 sec  (  0.3%)
Grid generation             ....       0.299 sec  (  3.3%)


-------------------------------------------------------------------------------
                          DFT DISPERSION CORRECTION                            
                                                                               
                              DFTD3 V3.1  Rev 1                                
                              USING zero damping                               
-------------------------------------------------------------------------------
The omegaB97X-D3 functional is recognized. Fit by Chai et al.
Active option DFTDOPT                   ...         3   

molecular C6(AA) [au] = 208.696022 


            DFT-D V3
 parameters
 s6 scaling factor         :     1.0000 
 rs6 scaling factor        :     1.2810 
 s8 scaling factor         :     1.0000 
 rs8 scaling factor        :     1.0940 
 Damping factor alpha6     :    14.0000 
 Damping factor alpha8     :    16.0000 
 ad hoc parameters k1-k3   :    16.0000     1.3333    -4.0000 

 Edisp/kcal,au: -0.141457092349  -0.000225426202 
 E6   /kcal   :  -0.027003078 
 E8   /kcal   :  -0.114454014 
 % E8         :  80.910763909 

-------------------------   ----------------
Dispersion correction           -0.000225426
-------------------------   ----------------


-------------------------   --------------------
FINAL SINGLE POINT ENERGY      -115.735285571705
-------------------------   --------------------


                            ***************************************
                            *     ORCA property calculations      *
                            ***************************************

                                    ---------------------
                                    Active property flags
                                    ---------------------
   (+) Dipole Moment


------------------------------------------------------------------------------
                       ORCA ELECTRIC PROPERTIES CALCULATION
------------------------------------------------------------------------------

Dipole Moment Calculation                       ... on
Quadrupole Moment Calculation                   ... off
Polarizability Calculation                      ... off
GBWName                                         ... 22-202_DFT_B.gbw
Electron density file                           ... 22-202_DFT_B.scfp.tmp
The origin for moment calculation is the CENTER OF MASS  = (10.682651, 16.673516 -14.696579)

-------------
DIPOLE MOMENT
-------------
                                X             Y             Z
Electronic contribution:     -0.34450      -0.91408       1.55958
Nuclear contribution   :     -0.10250       1.05144      -2.05066
                        -----------------------------------------
Total Dipole Moment    :     -0.44700       0.13737      -0.49109
                        -----------------------------------------
Magnitude (a.u.)       :      0.67812
Magnitude (Debye)      :      1.72364



--------------------
Rotational spectrum 
--------------------
 
Rotational constants in cm-1:     4.232608     0.857013     0.828009 
Rotational constants in MHz : 126890.399136 25692.605245 24823.096283 

 Dipole components along the rotational axes: 
x,y,z [a.u.] :    -0.327150     0.579453     0.130588 
x,y,z [Debye]:    -0.831549     1.472853     0.331929 

 
------------------------------------------------------------------------------
                      ORCA CHELPG CHARGES GENERATION
------------------------------------------------------------------------------

GBW file                           ... 22-202_DFT_B.gbw

Reading the GBW file               ... done

Grid spacing                       ...     0.300000
Point Cut-Off                      ...     2.800000
Van-der-Waals Radii                ...        COSMO
Total charge                       ...            0


Number of points X direction       ...           38
Number of points Y direction       ...           28
Number of points Z direction       ...           29
Maximum number of possible points  ...        30856
Final number of points             ...         6002


CHELPG Charges            
--------------------------------
  0   C   :       0.008326
  1   O   :       0.000101
  2   H   :       0.002842
  3   H   :      -0.023068
  4   H   :       0.008634
  5   H   :      -0.000935
  6   C   :       0.056889
  7   O   :      -0.566223
  8   H   :       0.388416
  9   H   :       0.016389
 10   H   :       0.086628
 11   H   :       0.022000
--------------------------------
Total charge:    -0.000000
--------------------------------

CHELPG charges calculated...

Timings for individual parts in CHELPG calculation:
Grid generation                 ...        0.001 sec (=   0.000 min)
Potential calculation           ...        1.266 sec (=   0.021 min)
Fit to the potential            ...        0.002 sec (=   0.000 min)
------------------------------------------------------------------------------


Timings for individual modules:

Sum of individual times         ...       12.717 sec (=   0.212 min)
GTO integral calculation        ...        0.801 sec (=   0.013 min)   6.3 %
SCF iterations                  ...       10.611 sec (=   0.177 min)  83.4 %
CHELPG charge generation        ...        1.306 sec (=   0.022 min)  10.3 %



                             ****ORCA TERMINATED NORMALLY****
TOTAL RUN TIME: 0 days 0 hours 1 minutes 5 seconds 777 msec
