
                                 *****************
                                 * O   R   C   A *
                                 *****************

           --- An Ab Initio, DFT and Semiempirical electronic structure package ---

                  #######################################################
                  #                        -***-                        #
                  #          Department of theory and spectroscopy      #
                  #               Directorship: Frank Neese             #
                  #        Max Planck Institute fuer Kohlenforschung    #
                  #                Kaiser Wilhelm Platz 1               #
                  #                 D-45470 Muelheim/Ruhr               #
                  #                      Germany                        #
                  #                                                     #
                  #                  All rights reserved                #
                  #                        -***-                        #
                  #######################################################


                         Program Version 4.1.2  - RELEASE  -


 With contributions from (in alphabetic order):
   Daniel Aravena         : Magnetic Properties
   Michael Atanasov       : Ab Initio Ligand Field Theory
   Alexander A. Auer      : GIAO ZORA
   Ute Becker             : Parallelization
   Giovanni Bistoni       : ED, Open-shell LED
   Martin Brehm           : Molecular dynamics
   Dmytro Bykov           : SCF Hessian
   Vijay G. Chilkuri      : MRCI spin determinant printing
   Dipayan Datta          : RHF DLPNO-CCSD density
   Achintya Kumar Dutta   : EOM-CC, STEOM-CC
   Dmitry Ganyushin       : Spin-Orbit,Spin-Spin,Magnetic field MRCI
   Miquel Garcia          : C-PCM Hessian
   Yang Guo               : DLPNO-NEVPT2, CIM, IAO-localization
   Andreas Hansen         : Spin unrestricted coupled pair/coupled cluster methods
   Benjamin Helmich-Paris : CASSCF linear response (MC-RPA)
   Lee Huntington         : MR-EOM, pCC
   Robert Izsak           : Overlap fitted RIJCOSX, COSX-SCS-MP3, EOM
   Christian Kollmar      : KDIIS, OOCD, Brueckner-CCSD(T), CCSD density
   Simone Kossmann        : Meta GGA functionals, TD-DFT gradient, OOMP2, MP2 Hessian
   Martin Krupicka        : AUTO-CI
   Lucas Lang             : DCDCAS
   Dagmar Lenk            : GEPOL surface, SMD
   Dimitrios Liakos       : Extrapolation schemes; parallel MDCI
   Dimitrios Manganas     : ROCIS; embedding schemes
   Dimitrios Pantazis     : SARC Basis sets
   Taras Petrenko         : DFT Hessian,TD-DFT gradient, ASA, ECA, R-Raman, ABS, FL, XAS/XES, NRVS
   Peter Pinski           : DLPNO-MP2, DLPNO-MP2 Gradient
   Christoph Reimann      : Effective Core Potentials
   Marius Retegan         : Local ZFS, SOC
   Christoph Riplinger    : Optimizer, TS searches, QM/MM, DLPNO-CCSD(T), (RO)-DLPNO pert. Triples
   Tobias Risthaus        : Range-separated hybrids, TD-DFT gradient, RPA, STAB
   Michael Roemelt        : Restricted open shell CIS
   Masaaki Saitow         : Open-shell DLPNO
   Barbara Sandhoefer     : DKH picture change effects
   Avijit Sen             : IP-ROCIS
   Kantharuban Sivalingam : CASSCF convergence, NEVPT2, FIC-MRCI
   Bernardo de Souza      : ESD, SOC TD-DFT
   Georgi Stoychev        : AutoAux, RI-MP2 NMR
   Willem Van den Heuvel  : Paramagnetic NMR
   Boris Wezisla          : Elementary symmetry handling
   Frank Wennmohs         : Technical directorship


 We gratefully acknowledge several colleagues who have allowed us to
 interface, adapt or use parts of their codes:
   Stefan Grimme, W. Hujo, H. Kruse,             : VdW corrections, initial TS optimization,
                  C. Bannwarth                     DFT functionals, gCP, sTDA/sTD-DF
   Ed Valeev                                     : LibInt (2-el integral package), F12 methods
   Garnet Chan, S. Sharma, J. Yang, R. Olivares  : DMRG
   Ulf Ekstrom                                   : XCFun DFT Library
   Mihaly Kallay                                 : mrcc  (arbitrary order and MRCC methods)
   Andreas Klamt, Michael Diedenhofen            : otool_cosmo (COSMO solvation model)
   Jiri Pittner, Ondrej Demel                    : Mk-CCSD
   Frank Weinhold                                : gennbo (NPA and NBO analysis)
   Christopher J. Cramer and Donald G. Truhlar   : smd solvation model
   Lars Goerigk                                  : TD-DFT with DH, B97 family of functionals
   V. Asgeirsson, H. Jonsson                     : NEB implementation
   FAccTs GmbH                                   : IRC, NEB, NEB-TS, Multilevel


 Your calculation uses the libint2 library for the computation of 2-el integrals
 For citations please refer to: http://libint.valeyev.net

 This ORCA versions uses:
   CBLAS   interface :  Fast vector & matrix operations
   LAPACKE interface :  Fast linear algebra routines
   SCALAPACK package :  Parallel linear algebra routines


Your calculation utilizes the atom-pairwise dispersion correction
with the zero-damping scheme (D30)
Cite in your paper:
S.Grimme, J.Antony, S.Ehrlich and H.Krieg, J.Chem.Phys., 132, (2010), 154104 
   

XCFun DFT library Copyright 2009-2010 Ulf Ekstrom and contributors.
See http://admol.org/xcfun for more information. This is free soft-
ware; see the source code for copying conditions. There is ABSOLUTELY
NO WARRANTY; not even for MERCHANTABILITY or FITNESS FOR A PARTICULAR
PURPOSE. For details see the documentation. Scientific users of this 
library should cite U. Ekstrom, L. Visscher, R. Bast, A. J. Thorvald-
sen and K. Ruud; J.Chem.Theor.Comp. 2010, DOI: 10.1021/ct100117s
XCFun Version 0.99 
----- Orbital basis set information -----
Your calculation utilizes the basis: def2-TZVP
   F. Weigend and R. Ahlrichs, Phys. Chem. Chem. Phys. 7, 3297 (2005).

================================================================================
                                        WARNINGS
                       Please study these warnings very carefully!
================================================================================


INFO   : the flag for use of LIBINT has been found!

Your calculation utilizes the atom-pairwise dispersion correction
with the zero-damping scheme (D30)
Cite in your paper:
S.Grimme, J.Antony, S.Ehrlich and H.Krieg, J.Chem.Phys., 132, (2010), 154104 
   

XCFun DFT library Copyright 2009-2010 Ulf Ekstrom and contributors.
See http://admol.org/xcfun for more information. This is free soft-
ware; see the source code for copying conditions. There is ABSOLUTELY
NO WARRANTY; not even for MERCHANTABILITY or FITNESS FOR A PARTICULAR
PURPOSE. For details see the documentation. Scientific users of this 
library should cite U. Ekstrom, L. Visscher, R. Bast, A. J. Thorvald-
sen and K. Ruud; J.Chem.Theor.Comp. 2010, DOI: 10.1021/ct100117s
XCFun Version 0.99 
----- Orbital basis set information -----
Your calculation utilizes the basis: def2-TZVP
   F. Weigend and R. Ahlrichs, Phys. Chem. Chem. Phys. 7, 3297 (2005).

================================================================================
                                        WARNINGS
                       Please study these warnings very carefully!
================================================================================


WARNING: MOInp is set but Guess=PModel. MOInp will be ignored!
         To read the initial guess from a file you must also specify
         'MORead' in the simple input or 'Guess MORead' in the %scf block


INFO   : the flag for use of LIBINT has been found!

Your calculation utilizes the atom-pairwise dispersion correction
with the zero-damping scheme (D30)
Cite in your paper:
S.Grimme, J.Antony, S.Ehrlich and H.Krieg, J.Chem.Phys., 132, (2010), 154104 
   

XCFun DFT library Copyright 2009-2010 Ulf Ekstrom and contributors.
See http://admol.org/xcfun for more information. This is free soft-
ware; see the source code for copying conditions. There is ABSOLUTELY
NO WARRANTY; not even for MERCHANTABILITY or FITNESS FOR A PARTICULAR
PURPOSE. For details see the documentation. Scientific users of this 
library should cite U. Ekstrom, L. Visscher, R. Bast, A. J. Thorvald-
sen and K. Ruud; J.Chem.Theor.Comp. 2010, DOI: 10.1021/ct100117s
XCFun Version 0.99 
----- Orbital basis set information -----
Your calculation utilizes the basis: def2-TZVP
   F. Weigend and R. Ahlrichs, Phys. Chem. Chem. Phys. 7, 3297 (2005).

================================================================================
                                        WARNINGS
                       Please study these warnings very carefully!
================================================================================


WARNING: MOInp is set but Guess=PModel. MOInp will be ignored!
         To read the initial guess from a file you must also specify
         'MORead' in the simple input or 'Guess MORead' in the %scf block


INFO   : the flag for use of LIBINT has been found!

================================================================================
                                       INPUT FILE
================================================================================
NAME = 17-184.in
|  1> #Run DFT-D3 single point of the dimer
|  2> ! wB97X-D3 def2-TZVP TIGHTSCF CHELPG PMODEL PAL8
|  3> 
|  4> %base "17-184_DFT_AB"
|  5> 
|  6> %scf
|  7> MaxIter 1000
|  8> end
|  9> 
| 10> * xyz 0 1
| 11>   C                      1.133517             -8.147447            -8.000697           
| 12>   O                      0.016639             -8.043199            -7.114052           
| 13>   H                      -0.528439            -7.307788            -7.373907           
| 14>   H                      0.753661             -8.090303            -9.044656           
| 15>   H                      1.848554             -7.316792            -7.822672           
| 16>   H                      1.715743             -9.115010            -7.891691           
| 17>   C                      -1.600842            -5.000788            -8.804165           
| 18>   O                      -0.381449            -5.523532            -8.272271           
| 19>   H                      -0.007835            -4.842861            -7.780753           
| 20>   H                      -2.168721            -4.542545            -8.038148           
| 21>   H                      -1.578042            -4.119260            -9.487249           
| 22>   H                      -2.114779            -5.756708            -9.394685           
| 23> *
| 24> 
| 25> #Run DFT-D3 single point of the molecule with dimer basis set
| 26> $new_job
| 27> %base "17-184_DFT_A"
| 28> ! wB97X-D3 def2-TZVP TIGHTSCF CHELPG PMODEL
| 29> 
| 30> %scf
| 31> MaxIter 1000
| 32> end
| 33> 
| 34> * xyz 0 1
| 35>   C                      1.133517             -8.147447            -8.000697           
| 36>   O                      0.016639             -8.043199            -7.114052           
| 37>   H                      -0.528439            -7.307788            -7.373907           
| 38>   H                      0.753661             -8.090303            -9.044656           
| 39>   H                      1.848554             -7.316792            -7.822672           
| 40>   H                      1.715743             -9.115010            -7.891691           
| 41>   C                    : -1.600842            -5.000788            -8.804165           
| 42>   O                    : -0.381449            -5.523532            -8.272271           
| 43>   H                    : -0.007835            -4.842861            -7.780753           
| 44>   H                    : -2.168721            -4.542545            -8.038148           
| 45>   H                    : -1.578042            -4.119260            -9.487249           
| 46>   H                    : -2.114779            -5.756708            -9.394685           
| 47> *
| 48> 
| 49> #Run DFT-D3 single point of the particle with dimer basis set
| 50> $new_job
| 51> %base "17-184_DFT_B"
| 52> ! wB97X-D3 def2-TZVP TIGHTSCF CHELPG PMODEL
| 53> 
| 54> %scf
| 55> MaxIter 1000
| 56> end
| 57> 
| 58> * xyz 0 1
| 59>   C                    : 1.133517             -8.147447            -8.000697           
| 60>   O                    : 0.016639             -8.043199            -7.114052           
| 61>   H                    : -0.528439            -7.307788            -7.373907           
| 62>   H                    : 0.753661             -8.090303            -9.044656           
| 63>   H                    : 1.848554             -7.316792            -7.822672           
| 64>   H                    : 1.715743             -9.115010            -7.891691           
| 65>   C                      -1.600842            -5.000788            -8.804165           
| 66>   O                      -0.381449            -5.523532            -8.272271           
| 67>   H                      -0.007835            -4.842861            -7.780753           
| 68>   H                      -2.168721            -4.542545            -8.038148           
| 69>   H                      -1.578042            -4.119260            -9.487249           
| 70>   H                      -2.114779            -5.756708            -9.394685           
| 71> *
| 72> 
| 73>                          ****END OF INPUT****
================================================================================


                 $$$$$$$$$$$$$$$$$$$$$$$$$$$$$$$$$$$$$$$$$$$$$$ 
                 $ THERE ARE  3 JOBS TO BE PROCESSED THIS RUN $
                 $$$$$$$$$$$$$$$$$$$$$$$$$$$$$$$$$$$$$$$$$$$$$$ 




                 $$$$$$$$$$$$$$$$  JOB NUMBER  1 $$$$$$$$$$$$$$


                       ****************************
                       * Single Point Calculation *
                       ****************************

---------------------------------
CARTESIAN COORDINATES (ANGSTROEM)
---------------------------------
  C      1.133517   -8.147447   -8.000697
  O      0.016639   -8.043199   -7.114052
  H     -0.528439   -7.307788   -7.373907
  H      0.753661   -8.090303   -9.044656
  H      1.848554   -7.316792   -7.822672
  H      1.715743   -9.115010   -7.891691
  C     -1.600842   -5.000788   -8.804165
  O     -0.381449   -5.523532   -8.272271
  H     -0.007835   -4.842861   -7.780753
  H     -2.168721   -4.542545   -8.038148
  H     -1.578042   -4.119260   -9.487249
  H     -2.114779   -5.756708   -9.394685

----------------------------
CARTESIAN COORDINATES (A.U.)
----------------------------
  NO LB      ZA    FRAG     MASS         X           Y           Z
   0 C     6.0000    0    12.011    2.142037  -15.396444  -15.119126
   1 O     8.0000    0    15.999    0.031443  -15.199443  -13.443610
   2 H     1.0000    0     1.008   -0.998605  -13.809718  -13.934665
   3 H     1.0000    0     1.008    1.424213  -15.288457  -17.091923
   4 H     1.0000    0     1.008    3.493261  -13.826733  -14.782708
   5 H     1.0000    0     1.008    3.242284  -17.224873  -14.913135
   6 C     6.0000    0    12.011   -3.025153   -9.450120  -16.637461
   7 O     8.0000    0    15.999   -0.720834  -10.437963  -15.632327
   8 H     1.0000    0     1.008   -0.014806   -9.151681  -14.703492
   9 H     1.0000    0     1.008   -4.098289   -8.584166  -15.189898
  10 H     1.0000    0     1.008   -2.982067   -7.784273  -17.928302
  11 H     1.0000    0     1.008   -3.996353  -10.878602  -17.753382

--------------------------------
INTERNAL COORDINATES (ANGSTROEM)
--------------------------------
 C      0   0   0     0.000000000000     0.00000000     0.00000000
 O      1   0   0     1.429833370856     0.00000000     0.00000000
 H      2   1   0     0.951558713916   109.53949142     0.00000000
 H      1   2   3     1.112387707210   108.14818237   311.70302721
 H      1   2   3     1.110386662843   110.42900860    71.36233785
 H      1   2   3     1.134481195120   113.79589918   191.68978101
 C      3   2   1     2.918550177909   162.78772313     1.93011387
 O      7   3   2     1.429367624238    38.28758881   312.20965500
 H      8   7   3     0.918961574584   105.96107328   229.12751933
 H      7   3   2     1.057948604602   100.64866521   202.85082433
 H      7   3   2     1.115443950111   156.53315708   338.86090571
 H      7   3   2     1.088237178546    83.70654239    87.38511219

---------------------------
INTERNAL COORDINATES (A.U.)
---------------------------
 C      0   0   0     0.000000000000     0.00000000     0.00000000
 O      1   0   0     2.701993488059     0.00000000     0.00000000
 H      2   1   0     1.798185369648   109.53949142     0.00000000
 H      1   2   3     2.102108121368   108.14818237   311.70302721
 H      1   2   3     2.098326695531   110.42900860    71.36233785
 H      1   2   3     2.143858762861   113.79589918   191.68978101
 C      3   2   1     5.515260544355   162.78772313     1.93011387
 O      7   3   2     2.701113354504    38.28758881   312.20965500
 H      8   7   3     1.736585703560   105.96107328   229.12751933
 H      7   3   2     1.999233126462   100.64866521   202.85082433
 H      7   3   2     2.107883583450   156.53315708   338.86090571
 H      7   3   2     2.056470236202    83.70654239    87.38511219

---------------------
BASIS SET INFORMATION
---------------------
There are 3 groups of distinct atoms

 Group   1 Type C   : 11s6p2d1f contracted to 5s3p2d1f pattern {62111/411/11/1}
 Group   2 Type O   : 11s6p2d1f contracted to 5s3p2d1f pattern {62111/411/11/1}
 Group   3 Type H   : 5s1p contracted to 3s1p pattern {311/1}

Atom   0C    basis set group =>   1
Atom   1O    basis set group =>   2
Atom   2H    basis set group =>   3
Atom   3H    basis set group =>   3
Atom   4H    basis set group =>   3
Atom   5H    basis set group =>   3
Atom   6C    basis set group =>   1
Atom   7O    basis set group =>   2
Atom   8H    basis set group =>   3
Atom   9H    basis set group =>   3
Atom  10H    basis set group =>   3
Atom  11H    basis set group =>   3


           ************************************************************
           *        Program running with 8 parallel MPI-processes     *
           *              working on a common directory               *
           ************************************************************
------------------------------------------------------------------------------
                           ORCA GTO INTEGRAL CALCULATION
------------------------------------------------------------------------------

                         BASIS SET STATISTICS AND STARTUP INFO

 # of primitive gaussian shells          ...  128
 # of primitive gaussian functions       ...  248
 # of contracted shells                  ...   76
 # of contracted basis functions         ...  172
 Highest angular momentum                ...    3
 Maximum contraction depth               ...    6
 Integral package used                   ... LIBINT
 Integral threshhold            Thresh   ...  2.500e-11
 Primitive cut-off              TCut     ...  2.500e-12


------------------------------ INTEGRAL EVALUATION ----------------------------


 * One electron integrals 
 Pre-screening matrix                    ... done
 Shell pair data                         ... done (   0.001 sec)



           ************************************************************
           *        Program running with 8 parallel MPI-processes     *
           *              working on a common directory               *
           ************************************************************
-------------------------------------------------------------------------------
                                 ORCA SCF
-------------------------------------------------------------------------------

------------
SCF SETTINGS
------------
Hamiltonian:
 Density Functional     Method          .... DFT(GTOs)
 Exchange Functional    Exchange        .... WB97X-D3
 Correlation Functional Correlation     .... WB97X-D3
 Gradients option       PostSCFGGA      .... off
 Hybrid DFT is turned on
   Fraction HF Exchange ScalHFX         ....  0.195728
   Scaling of DF-GGA-X  ScalDFX         ....  0.000000
   Scaling of DF-GGA-C  ScalDFC         ....  1.000000
   Scaling of DF-LDA-C  ScalLDAC        ....  1.000000
   Perturbative correction              ....  0.000000
   Density functional embedding theory  .... OFF
 Long-range corrected/Screened/Range-Separated Hybrid DFT is turned on
   Amount of maximum screened exact exchange              ....  0.804272
   Range separation parameter mu (erf(mu*r12)/r12)        ....  0.250000


General Settings:
 Integral files         IntName         .... 17-184_DFT_AB
 Hartree-Fock type      HFTyp           .... RHF
 Total Charge           Charge          ....    0
 Multiplicity           Mult            ....    1
 Number of Electrons    NEL             ....   36
 Basis Dimension        Dim             ....  172
 Nuclear Repulsion      ENuc            ....    130.3890444063 Eh

Convergence Acceleration:
 DIIS                   CNVDIIS         .... on
   Start iteration      DIISMaxIt       ....    12
   Startup error        DIISStart       ....  0.200000
   # of expansion vecs  DIISMaxEq       ....     5
   Bias factor          DIISBfac        ....   1.050
   Max. coefficient     DIISMaxC        ....  10.000
 Newton-Raphson         CNVNR           .... off
 SOSCF                  CNVSOSCF        .... on
   Start iteration      SOSCFMaxIt      ....   150
   Startup grad/error   SOSCFStart      ....  0.003300
 Level Shifting         CNVShift        .... on
   Level shift para.    LevelShift      ....    0.2500
   Turn off err/grad.   ShiftErr        ....    0.0010
 Zerner damping         CNVZerner       .... off
 Static damping         CNVDamp         .... on
   Fraction old density DampFac         ....    0.7000
   Max. Damping (<1)    DampMax         ....    0.9800
   Min. Damping (>=0)   DampMin         ....    0.0000
   Turn off err/grad.   DampErr         ....    0.1000
 Fernandez-Rico         CNVRico         .... off

SCF Procedure:
 Maximum # iterations   MaxIter         ....  1000
 SCF integral mode      SCFMode         .... Direct
   Integral package                     .... LIBINT
 Reset frequency        DirectResetFreq ....    20
 Integral Threshold     Thresh          ....  2.500e-11 Eh
 Primitive CutOff       TCut            ....  2.500e-12 Eh

Convergence Tolerance:
 Convergence Check Mode ConvCheckMode   .... Total+1el-Energy
 Convergence forced     ConvForced      .... 0
 Energy Change          TolE            ....  1.000e-08 Eh
 1-El. energy change                    ....  1.000e-05 Eh
 Orbital Gradient       TolG            ....  1.000e-05
 Orbital Rotation angle TolX            ....  1.000e-05
 DIIS Error             TolErr          ....  5.000e-07


Diagonalization of the overlap matrix:
Smallest eigenvalue                        ... 1.602e-03
Time for diagonalization                   ...    0.005 sec
Threshold for overlap eigenvalues          ... 1.000e-08
Number of eigenvalues below threshold      ... 0
Time for construction of square roots      ...    0.010 sec
Total time needed                          ...    0.015 sec

-------------------
DFT GRID GENERATION
-------------------

General Integration Accuracy     IntAcc      ...  4.340
Radial Grid Type                 RadialGrid  ... Gauss-Chebyshev
Angular Grid (max. acc.)         AngularGrid ... Lebedev-110
Angular grid pruning method      GridPruning ... 3 (G Style)
Weight generation scheme         WeightScheme... Becke
Basis function cutoff            BFCut       ...    1.0000e-11
Integration weight cutoff        WCut        ...    1.0000e-14
Grids for H and He will be reduced by one unit

# of grid points (after initial pruning)     ...  13096 (   0.0 sec)
# of grid points (after weights+screening)   ...  12466 (   0.0 sec)
nearest neighbour list constructed           ...    0.0 sec
Grid point re-assignment to atoms done       ...    0.0 sec
Grid point division into batches done        ...    0.0 sec
Reduced shell lists constructed in    0.0 sec

Total number of grid points                  ...    12466
Total number of batches                      ...      201
Average number of points per batch           ...       62
Average number of grid points per atom       ...     1039
Average number of shells per batch           ...    51.63 (67.93%)
Average number of basis functions per batch  ...   114.67 (66.67%)
Average number of large shells per batch     ...    42.59 (82.50%)
Average number of large basis fcns per batch ...    94.22 (82.17%)
Maximum spatial batch extension              ...  15.21, 15.70, 14.77 au
Average spatial batch extension              ...   0.39,  0.41,  0.40 au

Time for grid setup =    0.047 sec

------------------------------
INITIAL GUESS: MODEL POTENTIAL
------------------------------
Loading Hartree-Fock densities                     ... done
Calculating cut-offs                               ... done
Setting up the integral package                    ... done
Initializing the effective Hamiltonian             ... done
Starting the Coulomb interaction                   ... done (   0.0 sec)
Reading the grid                                   ... done
Mapping shells                                     ... done
Starting the XC term evaluation                    ... done (   0.0 sec)
  promolecular density results
     # of electrons  =     36.002122644
     EX              =    -28.862152101
     EC              =     -1.155441148
     EX+EC           =    -30.017593249
Transforming the Hamiltonian                       ... done (   0.0 sec)
Diagonalizing the Hamiltonian                      ... done (   0.0 sec)
Back transforming the eigenvectors                 ... done (   0.0 sec)
Now organizing SCF variables                       ... done
                      ------------------
                      INITIAL GUESS DONE (   0.2 sec)
                      ------------------
--------------
SCF ITERATIONS
--------------
ITER       Energy         Delta-E        Max-DP      RMS-DP      [F,P]     Damp
               ***  Starting incremental Fock matrix formation  ***
  0   -231.3048649812   0.000000000000 0.03649696  0.00102883  0.2502766 0.7000
  1   -231.3734534796  -0.068588498383 0.02141720  0.00073131  0.1242561 0.7000
                               ***Turning on DIIS***
  2   -231.4052744605  -0.031820980934 0.03523393  0.00133181  0.0472866 0.0000
  3   -231.4571346021  -0.051860141546 0.01757739  0.00047870  0.0620631 0.0000
  4   -231.4654610579  -0.008326455873 0.00402510  0.00009625  0.0058595 0.0000
                      *** Initiating the SOSCF procedure ***
                           *** Shutting down DIIS ***
                      *** Re-Reading the Fockian *** 
                      *** Removing any level shift *** 
ITER      Energy       Delta-E        Grad      Rot      Max-DP    RMS-DP
  5   -231.46562891  -0.0001678483  0.000434  0.000434  0.000727  0.000034
               *** Restarting incremental Fock matrix formation ***
  6   -231.46564547  -0.0000165672  0.000146  0.000247  0.000549  0.000022
  7   -231.46564723  -0.0000017566  0.000046  0.000130  0.000262  0.000010
  8   -231.46564738  -0.0000001513  0.000022  0.000022  0.000036  0.000001
  9   -231.46564740  -0.0000000151  0.000008  0.000006  0.000016  0.000001
                  ***Gradient check signals convergence***
              ***Rediagonalizing the Fockian in SOSCF/NRSCF***

               *****************************************************
               *                     SUCCESS                       *
               *           SCF CONVERGED AFTER  10 CYCLES          *
               *****************************************************

Setting up the final grid:

General Integration Accuracy     IntAcc      ...  4.670
Radial Grid Type                 RadialGrid  ... Gauss-Chebyshev
Angular Grid (max. acc.)         AngularGrid ... Lebedev-302
Angular grid pruning method      GridPruning ... 3 (G Style)
Weight generation scheme         WeightScheme... Becke
Basis function cutoff            BFCut       ...    1.0000e-11
Integration weight cutoff        WCut        ...    1.0000e-14
Grids for H and He will be reduced by one unit

# of grid points (after initial pruning)     ...  52000 (   0.0 sec)
# of grid points (after weights+screening)   ...  49041 (   0.0 sec)
nearest neighbour list constructed           ...    0.0 sec
Grid point re-assignment to atoms done       ...    0.0 sec
Grid point division into batches done        ...    0.2 sec
Reduced shell lists constructed in    0.2 sec

Total number of grid points                  ...    49041
Total number of batches                      ...      770
Average number of points per batch           ...       63
Average number of grid points per atom       ...     4087
Average number of shells per batch           ...    48.76 (64.15%)
Average number of basis functions per batch  ...   107.96 (62.77%)
Average number of large shells per batch     ...    39.00 (79.99%)
Average number of large basis fcns per batch ...    86.16 (79.81%)
Maximum spatial batch extension              ...  14.36, 16.49, 13.09 au
Average spatial batch extension              ...   0.29,  0.29,  0.28 au

Final grid set up in    0.3 sec
Final integration                            ... done (   0.1 sec)
Change in XC energy                          ...     0.000015909
Integrated number of electrons               ...    35.999933190
Previous integrated no of electrons          ...    36.002462110

----------------
TOTAL SCF ENERGY
----------------

Total Energy       :         -231.46563149 Eh           -6298.50004 eV

Components:
Nuclear Repulsion  :          130.38904441 Eh            3548.06628 eV
Electronic Energy  :         -361.85467590 Eh           -9846.56632 eV
One Electron Energy:         -573.62185518 Eh          -15609.04423 eV
Two Electron Energy:          211.76717928 Eh            5762.47791 eV

Virial components:
Potential Energy   :         -461.93107915 Eh          -12569.78370 eV
Kinetic Energy     :          230.46544766 Eh            6271.28366 eV
Virial Ratio       :            2.00433984


DFT components:
N(Alpha)           :       17.999966594943 electrons
N(Beta)            :       17.999966594943 electrons
N(Total)           :       35.999933189887 electrons
E(XC)              :      -21.305274838360 Eh       
DFET-embed. en.    :        0.000000000000 Eh       

---------------
SCF CONVERGENCE
---------------

  Last Energy change         ...   -2.5611e-09  Tolerance :   1.0000e-08
  Last MAX-Density change    ...    4.5270e-06  Tolerance :   1.0000e-07
  Last RMS-Density change    ...    1.4603e-07  Tolerance :   5.0000e-09
  Last Orbital Gradient      ...    2.4594e-06  Tolerance :   1.0000e-05
  Last Orbital Rotation      ...    1.9805e-06  Tolerance :   1.0000e-05

             **** THE GBW FILE WAS UPDATED (17-184_DFT_AB.gbw) ****
             **** DENSITY FILE WAS UPDATED (17-184_DFT_AB.scfp.tmp) ****
             **** ENERGY FILE WAS UPDATED (17-184_DFT_AB.en.tmp) ****
----------------
ORBITAL ENERGIES
----------------

  NO   OCC          E(Eh)            E(eV) 
   0   2.0000     -19.256763      -524.0032 
   1   2.0000     -19.198371      -522.4142 
   2   2.0000     -10.329405      -281.0774 
   3   2.0000     -10.302375      -280.3419 
   4   2.0000      -1.169142       -31.8140 
   5   2.0000      -1.103730       -30.0340 
   6   2.0000      -0.821582       -22.3564 
   7   2.0000      -0.768807       -20.9203 
   8   2.0000      -0.646492       -17.5920 
   9   2.0000      -0.587744       -15.9933 
  10   2.0000      -0.559555       -15.2263 
  11   2.0000      -0.532882       -14.5004 
  12   2.0000      -0.516975       -14.0676 
  13   2.0000      -0.504304       -13.7228 
  14   2.0000      -0.469836       -12.7849 
  15   2.0000      -0.410025       -11.1573 
  16   2.0000      -0.389341       -10.5945 
  17   2.0000      -0.347970        -9.4687 
  18   0.0000       0.098859         2.6901 
  19   0.0000       0.136845         3.7237 
  20   0.0000       0.158929         4.3247 
  21   0.0000       0.169389         4.6093 
  22   0.0000       0.189943         5.1686 
  23   0.0000       0.200438         5.4542 
  24   0.0000       0.211881         5.7656 
  25   0.0000       0.215321         5.8592 
  26   0.0000       0.235878         6.4186 
  27   0.0000       0.246775         6.7151 
  28   0.0000       0.301219         8.1966 
  29   0.0000       0.322437         8.7740 
  30   0.0000       0.354896         9.6572 
  31   0.0000       0.373620        10.1667 
  32   0.0000       0.386998        10.5307 
  33   0.0000       0.418435        11.3862 
  34   0.0000       0.432213        11.7611 
  35   0.0000       0.475197        12.9308 
  36   0.0000       0.482480        13.1290 
  37   0.0000       0.488081        13.2814 
  38   0.0000       0.525502        14.2996 
  39   0.0000       0.540728        14.7140 
  40   0.0000       0.556765        15.1503 
  41   0.0000       0.563078        15.3221 
  42   0.0000       0.564352        15.3568 
  43   0.0000       0.574385        15.6298 
  44   0.0000       0.619915        16.8687 
  45   0.0000       0.629455        17.1284 
  46   0.0000       0.656858        17.8740 
  47   0.0000       0.680477        18.5167 
  48   0.0000       0.737115        20.0579 
  49   0.0000       0.761442        20.7199 
  50   0.0000       0.775420        21.1002 
  51   0.0000       0.803204        21.8563 
  52   0.0000       0.837087        22.7783 
  53   0.0000       0.852606        23.2006 
  54   0.0000       0.917899        24.9773 
  55   0.0000       0.960504        26.1366 
  56   0.0000       0.990108        26.9422 
  57   0.0000       1.015782        27.6408 
  58   0.0000       1.059549        28.8318 
  59   0.0000       1.074387        29.2355 
  60   0.0000       1.105315        30.0771 
  61   0.0000       1.146861        31.2077 
  62   0.0000       1.378520        37.5114 
  63   0.0000       1.420879        38.6641 
  64   0.0000       1.493049        40.6279 
  65   0.0000       1.525359        41.5071 
  66   0.0000       1.556025        42.3416 
  67   0.0000       1.581434        43.0330 
  68   0.0000       1.591842        43.3162 
  69   0.0000       1.596668        43.4476 
  70   0.0000       1.617329        44.0098 
  71   0.0000       1.631172        44.3864 
  72   0.0000       1.659033        45.1446 
  73   0.0000       1.672791        45.5190 
  74   0.0000       1.699266        46.2394 
  75   0.0000       1.706082        46.4249 
  76   0.0000       1.714757        46.6609 
  77   0.0000       1.742720        47.4218 
  78   0.0000       1.807417        49.1823 
  79   0.0000       1.852818        50.4177 
  80   0.0000       1.962968        53.4151 
  81   0.0000       1.991951        54.2038 
  82   0.0000       2.013093        54.7790 
  83   0.0000       2.028387        55.1952 
  84   0.0000       2.032348        55.3030 
  85   0.0000       2.071881        56.3787 
  86   0.0000       2.096315        57.0436 
  87   0.0000       2.146216        58.4015 
  88   0.0000       2.149907        58.5019 
  89   0.0000       2.199217        59.8437 
  90   0.0000       2.244054        61.0638 
  91   0.0000       2.298085        62.5341 
  92   0.0000       2.313843        62.9629 
  93   0.0000       2.348306        63.9006 
  94   0.0000       2.362862        64.2967 
  95   0.0000       2.391900        65.0869 
  96   0.0000       2.426745        66.0351 
  97   0.0000       2.444762        66.5253 
  98   0.0000       2.455667        66.8221 
  99   0.0000       2.480521        67.4984 
 100   0.0000       2.502548        68.0978 
 101   0.0000       2.517237        68.4975 
 102   0.0000       2.578575        70.1666 
 103   0.0000       2.610438        71.0336 
 104   0.0000       2.642789        71.9139 
 105   0.0000       2.695932        73.3600 
 106   0.0000       2.723307        74.1050 
 107   0.0000       2.791953        75.9729 
 108   0.0000       2.795335        76.0649 
 109   0.0000       2.852319        77.6155 
 110   0.0000       2.905676        79.0675 
 111   0.0000       2.909693        79.1768 
 112   0.0000       2.928190        79.6801 
 113   0.0000       2.992284        81.4242 
 114   0.0000       3.030242        82.4571 
 115   0.0000       3.061200        83.2995 
 116   0.0000       3.090838        84.1060 
 117   0.0000       3.129978        85.1710 
 118   0.0000       3.163287        86.0774 
 119   0.0000       3.172650        86.3322 
 120   0.0000       3.266062        88.8741 
 121   0.0000       3.290551        89.5405 
 122   0.0000       3.319850        90.3377 
 123   0.0000       3.398668        92.4825 
 124   0.0000       3.452623        93.9506 
 125   0.0000       3.469656        94.4141 
 126   0.0000       3.502710        95.3136 
 127   0.0000       3.523132        95.8693 
 128   0.0000       3.546527        96.5059 
 129   0.0000       3.623898        98.6113 
 130   0.0000       3.631593        98.8207 
 131   0.0000       3.664661        99.7205 
 132   0.0000       3.668464        99.8240 
 133   0.0000       3.713000       101.0359 
 134   0.0000       4.035138       109.8017 
 135   0.0000       4.062659       110.5506 
 136   0.0000       4.176775       113.6558 
 137   0.0000       4.221464       114.8719 
 138   0.0000       4.274881       116.3254 
 139   0.0000       4.297740       116.9475 
 140   0.0000       4.422885       120.3528 
 141   0.0000       4.493644       122.2783 
 142   0.0000       4.584687       124.7557 
 143   0.0000       4.607744       125.3831 
 144   0.0000       5.342157       145.3675 
 145   0.0000       5.365465       146.0017 
 146   0.0000       5.431605       147.8015 
 147   0.0000       5.446970       148.2196 
 148   0.0000       5.552290       151.0855 
 149   0.0000       5.594609       152.2371 
 150   0.0000       5.766169       156.9054 
 151   0.0000       5.777323       157.2090 
 152   0.0000       5.818693       158.3347 
 153   0.0000       5.840251       158.9213 
 154   0.0000       5.974485       162.5740 
 155   0.0000       5.981783       162.7726 
 156   0.0000       6.400943       174.1785 
 157   0.0000       6.446178       175.4094 
 158   0.0000       6.547979       178.1796 
 159   0.0000       6.572227       178.8394 
 160   0.0000       6.749849       183.6727 
 161   0.0000       6.769714       184.2133 
 162   0.0000       6.794467       184.8868 
 163   0.0000       6.836011       186.0173 
 164   0.0000       7.044262       191.6841 
 165   0.0000       7.098451       193.1587 
 166   0.0000       7.235154       196.8786 
 167   0.0000       7.276572       198.0056 
 168   0.0000      22.298828       606.7820 
 169   0.0000      22.381733       609.0379 
 170   0.0000      43.661470      1188.0890 
 171   0.0000      43.768314      1190.9964 

                    ********************************
                    * MULLIKEN POPULATION ANALYSIS *
                    ********************************

-----------------------
MULLIKEN ATOMIC CHARGES
-----------------------
   0 C :   -0.148201
   1 O :   -0.495583
   2 H :    0.315601
   3 H :    0.103190
   4 H :    0.088424
   5 H :    0.116613
   6 C :   -0.182861
   7 O :   -0.484650
   8 H :    0.321501
   9 H :    0.121432
  10 H :    0.108708
  11 H :    0.135826
Sum of atomic charges:    0.0000000

--------------------------------
MULLIKEN REDUCED ORBITAL CHARGES
--------------------------------
  0 C s       :     3.226140  s :     3.226140
      pz      :     0.905701  p :     2.818677
      px      :     0.848658
      py      :     1.064317
      dz2     :     0.031974  d :     0.095978
      dxz     :     0.012405
      dyz     :     0.007910
      dx2y2   :     0.012438
      dxy     :     0.031250
      f0      :     0.000784  f :     0.007406
      f+1     :     0.002480
      f-1     :     0.000165
      f+2     :     0.000735
      f-2     :     0.001372
      f+3     :     0.001146
      f-3     :     0.000724
  1 O s       :     3.777464  s :     3.777464
      pz      :     1.667197  p :     4.688673
      px      :     1.404039
      py      :     1.617437
      dz2     :     0.005144  d :     0.027825
      dxz     :     0.008417
      dyz     :     0.004073
      dx2y2   :     0.003990
      dxy     :     0.006201
      f0      :     0.000208  f :     0.001621
      f+1     :     0.000243
      f-1     :     0.000053
      f+2     :     0.000265
      f-2     :     0.000267
      f+3     :     0.000379
      f-3     :     0.000207
  2 H s       :     0.631865  s :     0.631865
      pz      :     0.014255  p :     0.052534
      px      :     0.015588
      py      :     0.022691
  3 H s       :     0.877954  s :     0.877954
      pz      :     0.011084  p :     0.018856
      px      :     0.003945
      py      :     0.003827
  4 H s       :     0.892327  s :     0.892327
      pz      :     0.003519  p :     0.019249
      px      :     0.007140
      py      :     0.008590
  5 H s       :     0.864976  s :     0.864976
      pz      :     0.003059  p :     0.018411
      px      :     0.005451
      py      :     0.009901
  6 C s       :     3.222136  s :     3.222136
      pz      :     1.037026  p :     2.862345
      px      :     0.789061
      py      :     1.036258
      dz2     :     0.011909  d :     0.091113
      dxz     :     0.020258
      dyz     :     0.019734
      dx2y2   :     0.018173
      dxy     :     0.021040
      f0      :     0.000279  f :     0.007266
      f+1     :     0.001577
      f-1     :     0.000309
      f+2     :     0.001236
      f-2     :     0.001412
      f+3     :     0.001385
      f-3     :     0.001068
  7 O s       :     3.789361  s :     3.789361
      pz      :     1.680182  p :     4.663872
      px      :     1.443051
      py      :     1.540638
      dz2     :     0.002902  d :     0.029771
      dxz     :     0.003854
      dyz     :     0.007528
      dx2y2   :     0.006133
      dxy     :     0.009356
      f0      :     0.000327  f :     0.001646
      f+1     :     0.000208
      f-1     :     0.000081
      f+2     :     0.000304
      f-2     :     0.000419
      f+3     :     0.000205
      f-3     :     0.000100
  8 H s       :     0.626445  s :     0.626445
      pz      :     0.019284  p :     0.052054
      px      :     0.015346
      py      :     0.017424
  9 H s       :     0.857492  s :     0.857492
      pz      :     0.008450  p :     0.021076
      px      :     0.005920
      py      :     0.006706
 10 H s       :     0.871389  s :     0.871389
      pz      :     0.008042  p :     0.019903
      px      :     0.002588
      py      :     0.009273
 11 H s       :     0.843616  s :     0.843616
      pz      :     0.007267  p :     0.020558
      px      :     0.005354
      py      :     0.007936


                     *******************************
                     * LOEWDIN POPULATION ANALYSIS *
                     *******************************

----------------------
LOEWDIN ATOMIC CHARGES
----------------------
   0 C :   -0.392052
   1 O :   -0.096927
   2 H :    0.144053
   3 H :    0.097014
   4 H :    0.091131
   5 H :    0.110261
   6 C :   -0.373812
   7 O :   -0.038952
   8 H :    0.148128
   9 H :    0.093403
  10 H :    0.104617
  11 H :    0.113136

-------------------------------
LOEWDIN REDUCED ORBITAL CHARGES
-------------------------------
  0 C s       :     2.884304  s :     2.884304
      pz      :     0.997975  p :     3.053170
      px      :     0.947425
      py      :     1.107770
      dz2     :     0.126332  d :     0.401108
      dxz     :     0.083820
      dyz     :     0.022936
      dx2y2   :     0.049683
      dxy     :     0.118336
      f0      :     0.003975  f :     0.053470
      f+1     :     0.014529
      f-1     :     0.003454
      f+2     :     0.010771
      f-2     :     0.009223
      f+3     :     0.007216
      f-3     :     0.004303
  1 O s       :     3.361302  s :     3.361302
      pz      :     1.657529  p :     4.665420
      px      :     1.428380
      py      :     1.579511
      dz2     :     0.013108  d :     0.065954
      dxz     :     0.018526
      dyz     :     0.006611
      dx2y2   :     0.009930
      dxy     :     0.017778
      f0      :     0.000521  f :     0.004251
      f+1     :     0.000790
      f-1     :     0.000146
      f+2     :     0.000765
      f-2     :     0.000876
      f+3     :     0.000765
      f-3     :     0.000387
  2 H s       :     0.682492  s :     0.682492
      pz      :     0.046004  p :     0.173455
      px      :     0.048437
      py      :     0.079014
  3 H s       :     0.845507  s :     0.845507
      pz      :     0.032799  p :     0.057480
      px      :     0.012436
      py      :     0.012244
  4 H s       :     0.851207  s :     0.851207
      pz      :     0.010959  p :     0.057662
      px      :     0.020433
      py      :     0.026270
  5 H s       :     0.836242  s :     0.836242
      pz      :     0.009458  p :     0.053497
      px      :     0.014960
      py      :     0.029079
  6 C s       :     2.853887  s :     2.853887
      pz      :     1.086512  p :     3.067066
      px      :     0.900367
      py      :     1.080187
      dz2     :     0.037376  d :     0.399954
      dxz     :     0.095399
      dyz     :     0.097443
      dx2y2   :     0.075092
      dxy     :     0.094643
      f0      :     0.005117  f :     0.052906
      f+1     :     0.011914
      f-1     :     0.003205
      f+2     :     0.006468
      f-2     :     0.007227
      f+3     :     0.009586
      f-3     :     0.009388
  7 O s       :     3.351699  s :     3.351699
      pz      :     1.614370  p :     4.613782
      px      :     1.456412
      py      :     1.543000
      dz2     :     0.006865  d :     0.068813
      dxz     :     0.013443
      dyz     :     0.014009
      dx2y2   :     0.014166
      dxy     :     0.020330
      f0      :     0.000642  f :     0.004657
      f+1     :     0.000552
      f-1     :     0.000176
      f+2     :     0.000756
      f-2     :     0.000904
      f+3     :     0.001023
      f-3     :     0.000605
  8 H s       :     0.674057  s :     0.674057
      pz      :     0.060173  p :     0.177814
      px      :     0.044595
      py      :     0.073047
  9 H s       :     0.838552  s :     0.838552
      pz      :     0.027355  p :     0.068044
      px      :     0.020255
      py      :     0.020435
 10 H s       :     0.836659  s :     0.836659
      pz      :     0.022818  p :     0.058724
      px      :     0.008650
      py      :     0.027256
 11 H s       :     0.825603  s :     0.825603
      pz      :     0.020825  p :     0.061261
      px      :     0.015630
      py      :     0.024806


                      *****************************
                      * MAYER POPULATION ANALYSIS *
                      *****************************

  NA   - Mulliken gross atomic population
  ZA   - Total nuclear charge
  QA   - Mulliken gross atomic charge
  VA   - Mayer's total valence
  BVA  - Mayer's bonded valence
  FA   - Mayer's free valence

  ATOM       NA         ZA         QA         VA         BVA        FA
  0 C      6.1482     6.0000    -0.1482     3.9277     3.9277     0.0000
  1 O      8.4956     8.0000    -0.4956     1.8603     1.8603     0.0000
  2 H      0.6844     1.0000     0.3156     0.9432     0.9432     0.0000
  3 H      0.8968     1.0000     0.1032     0.9674     0.9674     0.0000
  4 H      0.9116     1.0000     0.0884     0.9635     0.9635    -0.0000
  5 H      0.8834     1.0000     0.1166     0.9597     0.9597     0.0000
  6 C      6.1829     6.0000    -0.1829     3.8953     3.8953     0.0000
  7 O      8.4846     8.0000    -0.4846     1.9154     1.9154     0.0000
  8 H      0.6785     1.0000     0.3215     0.9120     0.9120    -0.0000
  9 H      0.8786     1.0000     0.1214     0.9575     0.9575     0.0000
 10 H      0.8913     1.0000     0.1087     0.9538     0.9538     0.0000
 11 H      0.8642     1.0000     0.1358     0.9657     0.9657    -0.0000

  Mayer bond orders larger than 0.1
B(  0-C ,  1-O ) :   0.9903 B(  0-C ,  3-H ) :   0.9848 B(  0-C ,  4-H ) :   0.9790 
B(  0-C ,  5-H ) :   0.9675 B(  1-O ,  2-H ) :   0.8828 B(  6-C ,  7-O ) :   0.9633 
B(  6-C ,  9-H ) :   0.9783 B(  6-C , 10-H ) :   0.9656 B(  6-C , 11-H ) :   0.9768 
B(  7-O ,  8-H ) :   0.8985 

-------
TIMINGS
-------

Total SCF time: 0 days 0 hours 0 min 16 sec 

Total time                  ....      16.314 sec
Sum of individual times     ....      15.994 sec  ( 98.0%)

Fock matrix formation       ....      15.427 sec  ( 94.6%)
  XC integration            ....       6.444 sec  ( 41.8% of F)
    Basis function eval.    ....       0.065 sec  (  1.0% of XC)
    Density eval.           ....       0.068 sec  (  1.0% of XC)
    XC-Functional eval.     ....       0.093 sec  (  1.4% of XC)
    XC-Potential eval.      ....       0.077 sec  (  1.2% of XC)
Diagonalization             ....       0.065 sec  (  0.4%)
Density matrix formation    ....       0.005 sec  (  0.0%)
Population analysis         ....       0.017 sec  (  0.1%)
Initial guess               ....       0.124 sec  (  0.8%)
Orbital Transformation      ....       0.000 sec  (  0.0%)
Orbital Orthonormalization  ....       0.000 sec  (  0.0%)
DIIS solution               ....       0.026 sec  (  0.2%)
SOSCF solution              ....       0.029 sec  (  0.2%)
Grid generation             ....       0.301 sec  (  1.8%)


-------------------------------------------------------------------------------
                          DFT DISPERSION CORRECTION                            
                                                                               
                              DFTD3 V3.1  Rev 1                                
                              USING zero damping                               
-------------------------------------------------------------------------------
The omegaB97X-D3 functional is recognized. Fit by Chai et al.
Active option DFTDOPT                   ...         3   

molecular C6(AA) [au] = 834.987075 


            DFT-D V3
 parameters
 s6 scaling factor         :     1.0000 
 rs6 scaling factor        :     1.2810 
 s8 scaling factor         :     1.0000 
 rs8 scaling factor        :     1.0940 
 Damping factor alpha6     :    14.0000 
 Damping factor alpha8     :    16.0000 
 ad hoc parameters k1-k3   :    16.0000     1.3333    -4.0000 

 Edisp/kcal,au: -1.265385393469  -0.002016519767 
 E6   /kcal   :  -0.531195297 
 E8   /kcal   :  -0.734190097 
 % E8         :  58.021066207 

-------------------------   ----------------
Dispersion correction           -0.002016520
-------------------------   ----------------


-------------------------   --------------------
FINAL SINGLE POINT ENERGY      -231.467648009379
-------------------------   --------------------


                            ***************************************
                            *     ORCA property calculations      *
                            ***************************************

                                    ---------------------
                                    Active property flags
                                    ---------------------
   (+) Dipole Moment


------------------------------------------------------------------------------
                       ORCA ELECTRIC PROPERTIES CALCULATION
------------------------------------------------------------------------------

Dipole Moment Calculation                       ... on
Quadrupole Moment Calculation                   ... off
Polarizability Calculation                      ... off
GBWName                                         ... 17-184_DFT_AB.gbw
Electron density file                           ... 17-184_DFT_AB.scfp.tmp
The origin for moment calculation is the CENTER OF MASS  = (-0.399452, -12.576085 -15.197587)

-------------
DIPOLE MOMENT
-------------
                                X             Y             Z
Electronic contribution:      0.09555      -0.69438       1.82577
Nuclear contribution   :     -0.36392       2.01192      -2.33139
                        -----------------------------------------
Total Dipole Moment    :     -0.26836       1.31754      -0.50562
                        -----------------------------------------
Magnitude (a.u.)       :      1.43652
Magnitude (Debye)      :      3.65134



--------------------
Rotational spectrum 
--------------------
 
Rotational constants in cm-1:     0.582483     0.081561     0.077220 
Rotational constants in MHz : 17462.414849  2445.134969  2314.997800 

 Dipole components along the rotational axes: 
x,y,z [a.u.] :    -1.349715    -0.458039    -0.179048 
x,y,z [Debye]:    -3.430702    -1.164243    -0.455104 

 
------------------------------------------------------------------------------
                      ORCA CHELPG CHARGES GENERATION
------------------------------------------------------------------------------

GBW file                           ... 17-184_DFT_AB.gbw

Reading the GBW file               ... done

Grid spacing                       ...     0.300000
Point Cut-Off                      ...     2.800000
Van-der-Waals Radii                ...        COSMO
Total charge                       ...            0


Number of points X direction       ...           32
Number of points Y direction       ...           35
Number of points Z direction       ...           26
Maximum number of possible points  ...        29120
Final number of points             ...         9811


CHELPG Charges            
--------------------------------
  0   C   :       0.130064
  1   O   :      -0.646518
  2   H   :       0.410483
  3   H   :       0.013684
  4   H   :      -0.010828
  5   H   :       0.056441
  6   C   :      -0.134368
  7   O   :      -0.517455
  8   H   :       0.415599
  9   H   :       0.075175
 10   H   :       0.067032
 11   H   :       0.140691
--------------------------------
Total charge:    -0.000000
--------------------------------

CHELPG charges calculated...

Timings for individual parts in CHELPG calculation:
Grid generation                 ...        0.001 sec (=   0.000 min)
Potential calculation           ...        2.184 sec (=   0.036 min)
Fit to the potential            ...        0.003 sec (=   0.000 min)
------------------------------------------------------------------------------


Timings for individual modules:

Sum of individual times         ...       24.619 sec (=   0.410 min)
GTO integral calculation        ...        3.867 sec (=   0.064 min)  15.7 %
SCF iterations                  ...       18.533 sec (=   0.309 min)  75.3 %
CHELPG charge generation        ...        2.219 sec (=   0.037 min)   9.0 %


                 $$$$$$$$$$$$$$$$  JOB NUMBER  2 $$$$$$$$$$$$$$


                       ****************************
                       * Single Point Calculation *
                       ****************************

---------------------------------
CARTESIAN COORDINATES (ANGSTROEM)
---------------------------------
  C      1.133517   -8.147447   -8.000697
  O      0.016639   -8.043199   -7.114052
  H     -0.528439   -7.307788   -7.373907
  H      0.753661   -8.090303   -9.044656
  H      1.848554   -7.316792   -7.822672
  H      1.715743   -9.115010   -7.891691
  C     -1.600842   -5.000788   -8.804165
  O     -0.381449   -5.523532   -8.272271
  H     -0.007835   -4.842861   -7.780753
  H     -2.168721   -4.542545   -8.038148
  H     -1.578042   -4.119260   -9.487249
  H     -2.114779   -5.756708   -9.394685

----------------------------
CARTESIAN COORDINATES (A.U.)
----------------------------
  NO LB      ZA    FRAG     MASS         X           Y           Z
   0 C     6.0000    0    12.011    2.142037  -15.396444  -15.119126
   1 O     8.0000    0    15.999    0.031443  -15.199443  -13.443610
   2 H     1.0000    0     1.008   -0.998605  -13.809718  -13.934665
   3 H     1.0000    0     1.008    1.424213  -15.288457  -17.091923
   4 H     1.0000    0     1.008    3.493261  -13.826733  -14.782708
   5 H     1.0000    0     1.008    3.242284  -17.224873  -14.913135
   6 C     0.0000    0     0.000   -3.025153   -9.450120  -16.637461
   7 O     0.0000    0     0.000   -0.720834  -10.437963  -15.632327
   8 H     0.0000    0     0.000   -0.014806   -9.151681  -14.703492
   9 H     0.0000    0     0.000   -4.098289   -8.584166  -15.189898
  10 H     0.0000    0     0.000   -2.982067   -7.784273  -17.928302
  11 H     0.0000    0     0.000   -3.996353  -10.878602  -17.753382

--------------------------------
INTERNAL COORDINATES (ANGSTROEM)
--------------------------------
 C      0   0   0     0.000000000000     0.00000000     0.00000000
 O      1   0   0     1.429833370856     0.00000000     0.00000000
 H      2   1   0     0.951558713916   109.53949142     0.00000000
 H      1   2   3     1.112387707210   108.14818237   311.70302721
 H      1   2   3     1.110386662843   110.42900860    71.36233785
 H      1   2   3     1.134481195120   113.79589918   191.68978101
 C      3   2   1     2.918550177909   162.78772313     1.93011387
 O      7   3   2     1.429367624238    38.28758881   312.20965500
 H      8   7   3     0.918961574584   105.96107328   229.12751933
 H      7   3   2     1.057948604602   100.64866521   202.85082433
 H      7   3   2     1.115443950111   156.53315708   338.86090571
 H      7   3   2     1.088237178546    83.70654239    87.38511219

---------------------------
INTERNAL COORDINATES (A.U.)
---------------------------
 C      0   0   0     0.000000000000     0.00000000     0.00000000
 O      1   0   0     2.701993488059     0.00000000     0.00000000
 H      2   1   0     1.798185369648   109.53949142     0.00000000
 H      1   2   3     2.102108121368   108.14818237   311.70302721
 H      1   2   3     2.098326695531   110.42900860    71.36233785
 H      1   2   3     2.143858762861   113.79589918   191.68978101
 C      3   2   1     5.515260544355   162.78772313     1.93011387
 O      7   3   2     2.701113354504    38.28758881   312.20965500
 H      8   7   3     1.736585703560   105.96107328   229.12751933
 H      7   3   2     1.999233126462   100.64866521   202.85082433
 H      7   3   2     2.107883583450   156.53315708   338.86090571
 H      7   3   2     2.056470236202    83.70654239    87.38511219

---------------------
BASIS SET INFORMATION
---------------------
There are 3 groups of distinct atoms

 Group   1 Type C   : 11s6p2d1f contracted to 5s3p2d1f pattern {62111/411/11/1}
 Group   2 Type O   : 11s6p2d1f contracted to 5s3p2d1f pattern {62111/411/11/1}
 Group   3 Type H   : 5s1p contracted to 3s1p pattern {311/1}

Atom   0C    basis set group =>   1
Atom   1O    basis set group =>   2
Atom   2H    basis set group =>   3
Atom   3H    basis set group =>   3
Atom   4H    basis set group =>   3
Atom   5H    basis set group =>   3
Atom   6C    basis set group =>   1
Atom   7O    basis set group =>   2
Atom   8H    basis set group =>   3
Atom   9H    basis set group =>   3
Atom  10H    basis set group =>   3
Atom  11H    basis set group =>   3


           ************************************************************
           *        Program running with 8 parallel MPI-processes     *
           *              working on a common directory               *
           ************************************************************
------------------------------------------------------------------------------
                           ORCA GTO INTEGRAL CALCULATION
------------------------------------------------------------------------------

                         BASIS SET STATISTICS AND STARTUP INFO

 # of primitive gaussian shells          ...  128
 # of primitive gaussian functions       ...  248
 # of contracted shells                  ...   76
 # of contracted basis functions         ...  172
 Highest angular momentum                ...    3
 Maximum contraction depth               ...    6
 Integral package used                   ... LIBINT
 Integral threshhold            Thresh   ...  2.500e-11
 Primitive cut-off              TCut     ...  2.500e-12


------------------------------ INTEGRAL EVALUATION ----------------------------


 * One electron integrals 
 Pre-screening matrix                    ... done
 Shell pair data                         ... done (   0.001 sec)



           ************************************************************
           *        Program running with 8 parallel MPI-processes     *
           *              working on a common directory               *
           ************************************************************
-------------------------------------------------------------------------------
                                 ORCA SCF
-------------------------------------------------------------------------------

------------
SCF SETTINGS
------------
Hamiltonian:
 Density Functional     Method          .... DFT(GTOs)
 Exchange Functional    Exchange        .... WB97X-D3
 Correlation Functional Correlation     .... WB97X-D3
 Gradients option       PostSCFGGA      .... off
 Hybrid DFT is turned on
   Fraction HF Exchange ScalHFX         ....  0.195728
   Scaling of DF-GGA-X  ScalDFX         ....  0.000000
   Scaling of DF-GGA-C  ScalDFC         ....  1.000000
   Scaling of DF-LDA-C  ScalLDAC        ....  1.000000
   Perturbative correction              ....  0.000000
   Density functional embedding theory  .... OFF
 Long-range corrected/Screened/Range-Separated Hybrid DFT is turned on
   Amount of maximum screened exact exchange              ....  0.804272
   Range separation parameter mu (erf(mu*r12)/r12)        ....  0.250000


General Settings:
 Integral files         IntName         .... 17-184_DFT_A
 Hartree-Fock type      HFTyp           .... RHF
 Total Charge           Charge          ....    0
 Multiplicity           Mult            ....    1
 Number of Electrons    NEL             ....   18
 Basis Dimension        Dim             ....  172
 Nuclear Repulsion      ENuc            ....     39.8879436285 Eh

Convergence Acceleration:
 DIIS                   CNVDIIS         .... on
   Start iteration      DIISMaxIt       ....    12
   Startup error        DIISStart       ....  0.200000
   # of expansion vecs  DIISMaxEq       ....     5
   Bias factor          DIISBfac        ....   1.050
   Max. coefficient     DIISMaxC        ....  10.000
 Newton-Raphson         CNVNR           .... off
 SOSCF                  CNVSOSCF        .... on
   Start iteration      SOSCFMaxIt      ....   150
   Startup grad/error   SOSCFStart      ....  0.003300
 Level Shifting         CNVShift        .... on
   Level shift para.    LevelShift      ....    0.2500
   Turn off err/grad.   ShiftErr        ....    0.0010
 Zerner damping         CNVZerner       .... off
 Static damping         CNVDamp         .... on
   Fraction old density DampFac         ....    0.7000
   Max. Damping (<1)    DampMax         ....    0.9800
   Min. Damping (>=0)   DampMin         ....    0.0000
   Turn off err/grad.   DampErr         ....    0.1000
 Fernandez-Rico         CNVRico         .... off

SCF Procedure:
 Maximum # iterations   MaxIter         ....  1000
 SCF integral mode      SCFMode         .... Direct
   Integral package                     .... LIBINT
 Reset frequency        DirectResetFreq ....    20
 Integral Threshold     Thresh          ....  2.500e-11 Eh
 Primitive CutOff       TCut            ....  2.500e-12 Eh

Convergence Tolerance:
 Convergence Check Mode ConvCheckMode   .... Total+1el-Energy
 Convergence forced     ConvForced      .... 0
 Energy Change          TolE            ....  1.000e-08 Eh
 1-El. energy change                    ....  1.000e-05 Eh
 Orbital Gradient       TolG            ....  1.000e-05
 Orbital Rotation angle TolX            ....  1.000e-05
 DIIS Error             TolErr          ....  5.000e-07


Diagonalization of the overlap matrix:
Smallest eigenvalue                        ... 1.602e-03
Time for diagonalization                   ...    0.004 sec
Threshold for overlap eigenvalues          ... 1.000e-08
Number of eigenvalues below threshold      ... 0
Time for construction of square roots      ...    0.017 sec
Total time needed                          ...    0.021 sec

-------------------
DFT GRID GENERATION
-------------------

General Integration Accuracy     IntAcc      ...  4.340
Radial Grid Type                 RadialGrid  ... Gauss-Chebyshev
Angular Grid (max. acc.)         AngularGrid ... Lebedev-110
Angular grid pruning method      GridPruning ... 3 (G Style)
Weight generation scheme         WeightScheme... Becke
Basis function cutoff            BFCut       ...    1.0000e-11
Integration weight cutoff        WCut        ...    1.0000e-14
Grids for H and He will be reduced by one unit

# of grid points (after initial pruning)     ...  13096 (   0.0 sec)
# of grid points (after weights+screening)   ...  12466 (   0.0 sec)
nearest neighbour list constructed           ...    0.0 sec
Grid point re-assignment to atoms done       ...    0.0 sec
Grid point division into batches done        ...    0.0 sec
Reduced shell lists constructed in    0.0 sec

Total number of grid points                  ...    12466
Total number of batches                      ...      201
Average number of points per batch           ...       62
Average number of grid points per atom       ...     1039
Average number of shells per batch           ...    51.63 (67.93%)
Average number of basis functions per batch  ...   114.67 (66.67%)
Average number of large shells per batch     ...    42.59 (82.50%)
Average number of large basis fcns per batch ...    94.22 (82.17%)
Maximum spatial batch extension              ...  15.21, 15.70, 14.77 au
Average spatial batch extension              ...   0.39,  0.41,  0.40 au

Time for grid setup =    0.077 sec

------------------------------
INITIAL GUESS: MODEL POTENTIAL
------------------------------
Loading Hartree-Fock densities                     ... done
Calculating cut-offs                               ... done
Setting up the integral package                    ... done
Initializing the effective Hamiltonian             ... done
Starting the Coulomb interaction                   ... done (   0.0 sec)
Reading the grid                                   ... done
Mapping shells                                     ... done
Starting the XC term evaluation                    ... done (   0.0 sec)
  promolecular density results
     # of electrons  =     17.997834753
     EX              =    -14.413864121
     EC              =     -0.572947497
     EX+EC           =    -14.986811618
Transforming the Hamiltonian                       ... done (   0.0 sec)
Diagonalizing the Hamiltonian                      ... done (   0.0 sec)
Back transforming the eigenvectors                 ... done (   0.0 sec)
Now organizing SCF variables                       ... done
                      ------------------
                      INITIAL GUESS DONE (   0.2 sec)
                      ------------------
--------------
SCF ITERATIONS
--------------
ITER       Energy         Delta-E        Max-DP      RMS-DP      [F,P]     Damp
               ***  Starting incremental Fock matrix formation  ***
  0   -115.6503282611   0.000000000000 0.03717032  0.00072014  0.2550779 0.7000
  1   -115.6863523179  -0.036024056811 0.02205213  0.00050228  0.1268132 0.7000
                               ***Turning on DIIS***
  2   -115.7026679340  -0.016315616128 0.03119184  0.00089540  0.0485871 0.0000
  3   -115.7291556300  -0.026487695965 0.01721983  0.00033349  0.0618480 0.0000
  4   -115.7336012577  -0.004445627724 0.00404629  0.00006615  0.0059971 0.0000
                      *** Initiating the SOSCF procedure ***
                           *** Shutting down DIIS ***
                      *** Re-Reading the Fockian *** 
                      *** Removing any level shift *** 
ITER      Energy       Delta-E        Grad      Rot      Max-DP    RMS-DP
  5   -115.73368862  -0.0000873606  0.000442  0.000442  0.000636  0.000022
               *** Restarting incremental Fock matrix formation ***
  6   -115.73369646  -0.0000078405  0.000123  0.000170  0.000429  0.000013
  7   -115.73369725  -0.0000007946  0.000043  0.000089  0.000197  0.000006
  8   -115.73369732  -0.0000000642  0.000022  0.000015  0.000040  0.000001
  9   -115.73369733  -0.0000000097  0.000011  0.000009  0.000020  0.000001
                  ***Gradient check signals convergence***
              ***Rediagonalizing the Fockian in SOSCF/NRSCF***

               *****************************************************
               *                     SUCCESS                       *
               *           SCF CONVERGED AFTER  10 CYCLES          *
               *****************************************************

Setting up the final grid:

General Integration Accuracy     IntAcc      ...  4.670
Radial Grid Type                 RadialGrid  ... Gauss-Chebyshev
Angular Grid (max. acc.)         AngularGrid ... Lebedev-302
Angular grid pruning method      GridPruning ... 3 (G Style)
Weight generation scheme         WeightScheme... Becke
Basis function cutoff            BFCut       ...    1.0000e-11
Integration weight cutoff        WCut        ...    1.0000e-14
Grids for H and He will be reduced by one unit

# of grid points (after initial pruning)     ...  52000 (   0.0 sec)
# of grid points (after weights+screening)   ...  49041 (   0.0 sec)
nearest neighbour list constructed           ...    0.0 sec
Grid point re-assignment to atoms done       ...    0.0 sec
Grid point division into batches done        ...    0.2 sec
Reduced shell lists constructed in    0.2 sec

Total number of grid points                  ...    49041
Total number of batches                      ...      770
Average number of points per batch           ...       63
Average number of grid points per atom       ...     4087
Average number of shells per batch           ...    48.76 (64.15%)
Average number of basis functions per batch  ...   107.96 (62.77%)
Average number of large shells per batch     ...    39.00 (79.99%)
Average number of large basis fcns per batch ...    86.16 (79.81%)
Maximum spatial batch extension              ...  14.36, 16.49, 13.09 au
Average spatial batch extension              ...   0.29,  0.29,  0.28 au

Final grid set up in    0.3 sec
Final integration                            ... done (   0.1 sec)
Change in XC energy                          ...    -0.000202447
Integrated number of electrons               ...    17.999957375
Previous integrated no of electrons          ...    18.000389293

----------------
TOTAL SCF ENERGY
----------------

Total Energy       :         -115.73389978 Eh           -3149.27952 eV

Components:
Nuclear Repulsion  :           39.88794363 Eh            1085.40613 eV
Electronic Energy  :         -155.62184341 Eh           -4234.68565 eV
One Electron Energy:         -236.22869252 Eh           -6428.10952 eV
Two Electron Energy:           80.60684911 Eh            2193.42388 eV

Virial components:
Potential Energy   :         -230.85824380 Eh           -6281.97218 eV
Kinetic Energy     :          115.12434402 Eh            3132.69266 eV
Virial Ratio       :            2.00529476


DFT components:
N(Alpha)           :        8.999978687424 electrons
N(Beta)            :        8.999978687424 electrons
N(Total)           :       17.999957374849 electrons
E(XC)              :      -10.628984754211 Eh       
DFET-embed. en.    :        0.000000000000 Eh       

---------------
SCF CONVERGENCE
---------------

  Last Energy change         ...   -2.5785e-09  Tolerance :   1.0000e-08
  Last MAX-Density change    ...    3.4338e-06  Tolerance :   1.0000e-07
  Last RMS-Density change    ...    9.5638e-08  Tolerance :   5.0000e-09
  Last Orbital Gradient      ...    1.7585e-06  Tolerance :   1.0000e-05
  Last Orbital Rotation      ...    1.8209e-06  Tolerance :   1.0000e-05

             **** THE GBW FILE WAS UPDATED (17-184_DFT_A.gbw) ****
             **** DENSITY FILE WAS UPDATED (17-184_DFT_A.scfp.tmp) ****
             **** ENERGY FILE WAS UPDATED (17-184_DFT_A.en.tmp) ****
----------------
ORBITAL ENERGIES
----------------

  NO   OCC          E(Eh)            E(eV) 
   0   2.0000     -19.228967      -523.2468 
   1   2.0000     -10.323342      -280.9124 
   2   2.0000      -1.132445       -30.8154 
   3   2.0000      -0.791368       -21.5342 
   4   2.0000      -0.606667       -16.5082 
   5   2.0000      -0.539300       -14.6751 
   6   2.0000      -0.526144       -14.3171 
   7   2.0000      -0.428904       -11.6711 
   8   2.0000      -0.373398       -10.1607 
   9   0.0000       0.067872         1.8469 
  10   0.0000       0.133776         3.6402 
  11   0.0000       0.148349         4.0368 
  12   0.0000       0.155485         4.2310 
  13   0.0000       0.193809         5.2738 
  14   0.0000       0.199197         5.4204 
  15   0.0000       0.206564         5.6209 
  16   0.0000       0.218638         5.9494 
  17   0.0000       0.251226         6.8362 
  18   0.0000       0.281243         7.6530 
  19   0.0000       0.307260         8.3610 
  20   0.0000       0.320133         8.7113 
  21   0.0000       0.331352         9.0166 
  22   0.0000       0.373392        10.1605 
  23   0.0000       0.385648        10.4940 
  24   0.0000       0.391749        10.6600 
  25   0.0000       0.437947        11.9171 
  26   0.0000       0.462435        12.5835 
  27   0.0000       0.498961        13.5774 
  28   0.0000       0.515664        14.0319 
  29   0.0000       0.534080        14.5330 
  30   0.0000       0.543858        14.7991 
  31   0.0000       0.565608        15.3910 
  32   0.0000       0.595691        16.2096 
  33   0.0000       0.610853        16.6222 
  34   0.0000       0.632837        17.2204 
  35   0.0000       0.704414        19.1681 
  36   0.0000       0.712882        19.3985 
  37   0.0000       0.756405        20.5828 
  38   0.0000       0.785330        21.3699 
  39   0.0000       0.813262        22.1300 
  40   0.0000       0.819723        22.3058 
  41   0.0000       0.837157        22.7802 
  42   0.0000       0.904124        24.6025 
  43   0.0000       0.951156        25.8823 
  44   0.0000       0.986964        26.8567 
  45   0.0000       1.032176        28.0869 
  46   0.0000       1.066712        29.0267 
  47   0.0000       1.103244        30.0208 
  48   0.0000       1.143568        31.1181 
  49   0.0000       1.167052        31.7571 
  50   0.0000       1.201304        32.6891 
  51   0.0000       1.225122        33.3373 
  52   0.0000       1.298656        35.3382 
  53   0.0000       1.340231        36.4695 
  54   0.0000       1.364175        37.1211 
  55   0.0000       1.392673        37.8965 
  56   0.0000       1.459258        39.7084 
  57   0.0000       1.513714        41.1902 
  58   0.0000       1.570735        42.7419 
  59   0.0000       1.596540        43.4441 
  60   0.0000       1.605061        43.6759 
  61   0.0000       1.621580        44.1254 
  62   0.0000       1.649929        44.8969 
  63   0.0000       1.689970        45.9864 
  64   0.0000       1.724878        46.9363 
  65   0.0000       1.786696        48.6185 
  66   0.0000       1.823201        49.6118 
  67   0.0000       1.925233        52.3883 
  68   0.0000       1.947658        52.9985 
  69   0.0000       1.971783        53.6550 
  70   0.0000       1.990998        54.1778 
  71   0.0000       2.028766        55.2055 
  72   0.0000       2.077909        56.5428 
  73   0.0000       2.130575        57.9759 
  74   0.0000       2.209342        60.1193 
  75   0.0000       2.222525        60.4780 
  76   0.0000       2.227003        60.5998 
  77   0.0000       2.250241        61.2322 
  78   0.0000       2.316677        63.0400 
  79   0.0000       2.327998        63.3480 
  80   0.0000       2.355725        64.1025 
  81   0.0000       2.399473        65.2930 
  82   0.0000       2.424936        65.9859 
  83   0.0000       2.460380        66.9504 
  84   0.0000       2.489634        67.7464 
  85   0.0000       2.525460        68.7213 
  86   0.0000       2.552781        69.4647 
  87   0.0000       2.560925        69.6863 
  88   0.0000       2.616211        71.1907 
  89   0.0000       2.629479        71.5518 
  90   0.0000       2.714169        73.8563 
  91   0.0000       2.725554        74.1661 
  92   0.0000       2.819355        76.7185 
  93   0.0000       2.838055        77.2274 
  94   0.0000       2.856084        77.7180 
  95   0.0000       2.900243        78.9196 
  96   0.0000       2.948762        80.2399 
  97   0.0000       3.020357        82.1881 
  98   0.0000       3.066203        83.4356 
  99   0.0000       3.072775        83.6144 
 100   0.0000       3.111510        84.6685 
 101   0.0000       3.149729        85.7085 
 102   0.0000       3.174456        86.3814 
 103   0.0000       3.213507        87.4440 
 104   0.0000       3.246069        88.3300 
 105   0.0000       3.308245        90.0219 
 106   0.0000       3.366847        91.6166 
 107   0.0000       3.376361        91.8755 
 108   0.0000       3.432830        93.4120 
 109   0.0000       3.444299        93.7241 
 110   0.0000       3.487905        94.9107 
 111   0.0000       3.562089        96.9294 
 112   0.0000       3.606162        98.1287 
 113   0.0000       3.643889        99.1553 
 114   0.0000       3.658655        99.5571 
 115   0.0000       3.717438       101.1566 
 116   0.0000       3.846998       104.6821 
 117   0.0000       4.031046       109.6903 
 118   0.0000       4.072822       110.8271 
 119   0.0000       4.096791       111.4794 
 120   0.0000       4.199317       114.2692 
 121   0.0000       4.238422       115.3333 
 122   0.0000       4.268564       116.1535 
 123   0.0000       4.294799       116.8674 
 124   0.0000       4.341604       118.1410 
 125   0.0000       4.402522       119.7987 
 126   0.0000       4.511620       122.7674 
 127   0.0000       4.543200       123.6268 
 128   0.0000       4.560403       124.0949 
 129   0.0000       4.585310       124.7726 
 130   0.0000       4.624345       125.8348 
 131   0.0000       5.050554       137.4326 
 132   0.0000       5.095041       138.6431 
 133   0.0000       5.123052       139.4053 
 134   0.0000       5.337372       145.2373 
 135   0.0000       5.414727       147.3422 
 136   0.0000       5.426740       147.6691 
 137   0.0000       5.524527       150.3300 
 138   0.0000       5.568444       151.5251 
 139   0.0000       5.723081       155.7329 
 140   0.0000       5.792865       157.6319 
 141   0.0000       5.814747       158.2273 
 142   0.0000       5.951043       161.9361 
 143   0.0000       5.972596       162.5226 
 144   0.0000       6.172563       167.9640 
 145   0.0000       6.392275       173.9426 
 146   0.0000       6.531143       177.7214 
 147   0.0000       6.609205       179.8456 
 148   0.0000       6.730988       183.1595 
 149   0.0000       6.754822       183.8081 
 150   0.0000       6.807528       185.2423 
 151   0.0000       6.862556       186.7397 
 152   0.0000       7.062578       192.1825 
 153   0.0000       7.078030       192.6030 
 154   0.0000       7.184549       195.5015 
 155   0.0000       7.244446       197.1314 
 156   0.0000       7.400987       201.3911 
 157   0.0000       8.323753       226.5008 
 158   0.0000       8.881128       241.6678 
 159   0.0000       9.417129       256.2531 
 160   0.0000       9.547312       259.7956 
 161   0.0000       9.582646       260.7570 
 162   0.0000       9.750100       265.3137 
 163   0.0000       9.851128       268.0628 
 164   0.0000       9.927144       270.1313 
 165   0.0000      10.029934       272.9284 
 166   0.0000      11.121149       302.6218 
[...]
  82   0.0000       2.420778        65.8727 
  83   0.0000       2.464815        67.0710 
  84   0.0000       2.516861        68.4873 
  85   0.0000       2.530097        68.8474 
  86   0.0000       2.623590        71.3915 
  87   0.0000       2.632804        71.6422 
  88   0.0000       2.644894        71.9712 
  89   0.0000       2.669176        72.6320 
  90   0.0000       2.709111        73.7187 
  91   0.0000       2.801346        76.2285 
  92   0.0000       2.806789        76.3766 
  93   0.0000       2.901489        78.9535 
  94   0.0000       2.915481        79.3343 
  95   0.0000       2.942132        80.0595 
  96   0.0000       2.998449        81.5919 
  97   0.0000       3.040400        82.7335 
  98   0.0000       3.074279        83.6554 
  99   0.0000       3.087369        84.0116 
 100   0.0000       3.153659        85.8154 
 101   0.0000       3.185179        86.6731 
 102   0.0000       3.191721        86.8511 
 103   0.0000       3.235721        88.0485 
 104   0.0000       3.311241        90.1034 
 105   0.0000       3.339809        90.8808 
 106   0.0000       3.382656        92.0468 
 107   0.0000       3.433246        93.4234 
 108   0.0000       3.479913        94.6933 
 109   0.0000       3.513020        95.5941 
 110   0.0000       3.530130        96.0597 
 111   0.0000       3.563240        96.9607 
 112   0.0000       3.600293        97.9690 
 113   0.0000       3.648014        99.2675 
 114   0.0000       3.659764        99.5873 
 115   0.0000       3.686646       100.3187 
 116   0.0000       3.699234       100.6613 
 117   0.0000       4.053936       110.3132 
 118   0.0000       4.123185       112.1976 
 119   0.0000       4.163018       113.2815 
 120   0.0000       4.192664       114.0882 
 121   0.0000       4.259941       115.9189 
 122   0.0000       4.305799       117.1667 
 123   0.0000       4.309837       117.2766 
 124   0.0000       4.370015       118.9142 
 125   0.0000       4.511001       122.7506 
 126   0.0000       4.540491       123.5530 
 127   0.0000       4.584096       124.7396 
 128   0.0000       4.595522       125.0505 
 129   0.0000       4.616879       125.6317 
 130   0.0000       4.646113       126.4272 
 131   0.0000       5.026805       136.7863 
 132   0.0000       5.063737       137.7913 
 133   0.0000       5.178305       140.9088 
 134   0.0000       5.368039       146.0718 
 135   0.0000       5.408809       147.1812 
 136   0.0000       5.467668       148.7828 
 137   0.0000       5.487911       149.3336 
 138   0.0000       5.579204       151.8179 
 139   0.0000       5.733501       156.0165 
 140   0.0000       5.791414       157.5924 
 141   0.0000       5.802897       157.9049 
 142   0.0000       5.867657       159.6671 
 143   0.0000       5.921606       161.1351 
 144   0.0000       6.001527       163.3099 
 145   0.0000       6.471084       176.0871 
 146   0.0000       6.564573       178.6311 
 147   0.0000       6.611451       179.9067 
 148   0.0000       6.701351       182.3530 
 149   0.0000       6.778260       184.4458 
 150   0.0000       6.798873       185.0067 
 151   0.0000       6.896721       187.6693 
 152   0.0000       7.074271       192.5007 
 153   0.0000       7.122637       193.8168 
 154   0.0000       7.230202       196.7438 
 155   0.0000       7.257160       197.4774 
 156   0.0000       7.430014       202.1809 
 157   0.0000       8.178418       222.5461 
 158   0.0000       8.911726       242.5004 
 159   0.0000       9.359215       254.6772 
 160   0.0000       9.582037       260.7405 
 161   0.0000       9.632495       262.1135 
 162   0.0000       9.814923       267.0776 
 163   0.0000       9.882354       268.9125 
 164   0.0000       9.960309       271.0338 
 165   0.0000      10.128614       275.6136 
 166   0.0000      11.154247       303.5225 
 167   0.0000      19.171057       521.6710 
 168   0.0000      22.396865       609.4497 
 169   0.0000      43.689113      1188.8412 
 170   0.0000      65.811649      1790.8260 
 171   0.0000     126.491735      3442.0151 

                    ********************************
                    * MULLIKEN POPULATION ANALYSIS *
                    ********************************

-----------------------
MULLIKEN ATOMIC CHARGES
-----------------------
   0 C :    0.012533
   1 O :    0.000262
   2 H :   -0.011419
   3 H :   -0.006052
   4 H :   -0.005508
   5 H :   -0.000313
   6 C :   -0.175719
   7 O :   -0.452848
   8 H :    0.304156
   9 H :    0.109501
  10 H :    0.096951
  11 H :    0.128454
Sum of atomic charges:    0.0000000

--------------------------------
MULLIKEN REDUCED ORBITAL CHARGES
--------------------------------
  0 C s       :    -0.010940  s :    -0.010940
      pz      :     0.000016  p :    -0.000992
      px      :    -0.000140
      py      :    -0.000868
      dz2     :    -0.000147  d :    -0.000605
      dxz     :     0.000014
      dyz     :    -0.000021
      dx2y2   :    -0.000089
      dxy     :    -0.000362
      f0      :    -0.000001  f :     0.000004
      f+1     :    -0.000001
      f-1     :     0.000002
      f+2     :    -0.000000
      f-2     :     0.000001
      f+3     :     0.000003
      f-3     :    -0.000000
  1 O s       :    -0.000501  s :    -0.000501
      pz      :     0.000037  p :     0.000161
      px      :     0.000252
      py      :    -0.000127
      dz2     :     0.000011  d :     0.000077
      dxz     :     0.000005
      dyz     :     0.000016
      dx2y2   :     0.000022
      dxy     :     0.000023
      f0      :     0.000000  f :     0.000001
      f+1     :     0.000000
      f-1     :     0.000000
      f+2     :     0.000000
      f-2     :     0.000000
      f+3     :     0.000000
      f-3     :     0.000000
  2 H s       :     0.011344  s :     0.011344
      pz      :    -0.000015  p :     0.000074
      px      :    -0.000003
      py      :     0.000093
  3 H s       :     0.006032  s :     0.006032
      pz      :    -0.000004  p :     0.000020
      px      :     0.000005
      py      :     0.000019
  4 H s       :     0.005487  s :     0.005487
      pz      :     0.000000  p :     0.000021
      px      :     0.000004
      py      :     0.000016
  5 H s       :     0.000310  s :     0.000310
      pz      :    -0.000000  p :     0.000003
      px      :     0.000001
      py      :     0.000002
  6 C s       :     3.215967  s :     3.215967
      pz      :     1.030767  p :     2.857414
      px      :     0.795491
      py      :     1.031157
      dz2     :     0.012375  d :     0.095040
      dxz     :     0.021019
      dyz     :     0.019970
      dx2y2   :     0.018334
      dxy     :     0.023341
      f0      :     0.000274  f :     0.007298
      f+1     :     0.001565
      f-1     :     0.000310
      f+2     :     0.001232
      f-2     :     0.001488
      f+3     :     0.001369
      f-3     :     0.001061
  7 O s       :     3.794561  s :     3.794561
      pz      :     1.670733  p :     4.626627
      px      :     1.428357
      py      :     1.527537
      dz2     :     0.002919  d :     0.029995
      dxz     :     0.003822
      dyz     :     0.007478
      dx2y2   :     0.006156
      dxy     :     0.009620
      f0      :     0.000329  f :     0.001665
      f+1     :     0.000211
      f-1     :     0.000086
      f+2     :     0.000314
      f-2     :     0.000419
      f+3     :     0.000200
      f-3     :     0.000106
  8 H s       :     0.642802  s :     0.642802
      pz      :     0.019541  p :     0.053042
      px      :     0.015735
      py      :     0.017766
  9 H s       :     0.869515  s :     0.869515
      pz      :     0.008463  p :     0.020984
      px      :     0.005900
      py      :     0.006620
 10 H s       :     0.883338  s :     0.883338
      pz      :     0.007949  p :     0.019711
      px      :     0.002596
      py      :     0.009166
 11 H s       :     0.851007  s :     0.851007
      pz      :     0.007220  p :     0.020539
      px      :     0.005307
      py      :     0.008012


                     *******************************
                     * LOEWDIN POPULATION ANALYSIS *
                     *******************************

----------------------
LOEWDIN ATOMIC CHARGES
----------------------
   0 C :   -0.015979
   1 O :   -0.006977
   2 H :   -0.034276
   3 H :   -0.002879
   4 H :   -0.002817
   5 H :   -0.000161
   6 C :   -0.373714
   7 O :   -0.006769
   8 H :    0.142889
   9 H :    0.090150
  10 H :    0.099510
  11 H :    0.111022

-------------------------------
LOEWDIN REDUCED ORBITAL CHARGES
-------------------------------
  0 C s       :     0.001776  s :     0.001776
      pz      :     0.000818  p :     0.013379
      px      :     0.002977
      py      :     0.009584
      dz2     :     0.000155  d :     0.000812
      dxz     :     0.000021
      dyz     :     0.000091
      dx2y2   :     0.000235
      dxy     :     0.000311
      f0      :     0.000001  f :     0.000011
      f+1     :     0.000000
      f-1     :     0.000003
      f+2     :     0.000001
      f-2     :     0.000002
      f+3     :     0.000005
      f-3     :     0.000001
  1 O s       :     0.000380  s :     0.000380
      pz      :     0.000994  p :     0.006504
      px      :     0.000192
      py      :     0.005318
      dz2     :     0.000012  d :     0.000090
      dxz     :     0.000001
      dyz     :     0.000034
      dx2y2   :     0.000029
      dxy     :     0.000013
      f0      :     0.000001  f :     0.000003
      f+1     :     0.000000
      f-1     :     0.000000
      f+2     :     0.000000
      f-2     :     0.000000
      f+3     :     0.000000
      f-3     :     0.000000
  2 H s       :     0.031327  s :     0.031327
      pz      :     0.000436  p :     0.002949
      px      :     0.000055
      py      :     0.002458
  3 H s       :     0.002870  s :     0.002870
      pz      :     0.000000  p :     0.000009
      px      :     0.000001
      py      :     0.000007
  4 H s       :     0.002811  s :     0.002811
      pz      :     0.000000  p :     0.000006
      px      :     0.000002
      py      :     0.000004
  5 H s       :     0.000156  s :     0.000156
      pz      :     0.000000  p :     0.000005
      px      :     0.000001
      py      :     0.000003
  6 C s       :     2.853170  s :     2.853170
      pz      :     1.083001  p :     3.063221
      px      :     0.904713
      py      :     1.075507
      dz2     :     0.037369  d :     0.404458
      dxz     :     0.096322
      dyz     :     0.099304
      dx2y2   :     0.075698
      dxy     :     0.095765
      f0      :     0.005074  f :     0.052865
      f+1     :     0.011955
      f-1     :     0.003210
      f+2     :     0.006439
      f-2     :     0.007219
      f+3     :     0.009590
      f-3     :     0.009379
  7 O s       :     3.350212  s :     3.350212
      pz      :     1.607616  p :     4.583299
      px      :     1.447786
      py      :     1.527897
      dz2     :     0.006784  d :     0.068577
      dxz     :     0.013463
      dyz     :     0.013750
      dx2y2   :     0.013810
      dxy     :     0.020770
      f0      :     0.000652  f :     0.004681
      f+1     :     0.000543
      f-1     :     0.000180
      f+2     :     0.000763
      f-2     :     0.000922
      f+3     :     0.001005
      f-3     :     0.000614
  8 H s       :     0.678990  s :     0.678990
      pz      :     0.060393  p :     0.178121
      px      :     0.044559
      py      :     0.073170
  9 H s       :     0.842164  s :     0.842164
      pz      :     0.027238  p :     0.067685
      px      :     0.020228
      py      :     0.020219
 10 H s       :     0.842045  s :     0.842045
      pz      :     0.022663  p :     0.058445
      px      :     0.008785
      py      :     0.026997
 11 H s       :     0.828164  s :     0.828164
      pz      :     0.020518  p :     0.060814
      px      :     0.015498
      py      :     0.024798


                      *****************************
                      * MAYER POPULATION ANALYSIS *
                      *****************************

  NA   - Mulliken gross atomic population
  ZA   - Total nuclear charge
  QA   - Mulliken gross atomic charge
  VA   - Mayer's total valence
  BVA  - Mayer's bonded valence
  FA   - Mayer's free valence

  ATOM       NA         ZA         QA         VA         BVA        FA
  0 C     -0.0125     0.0000     0.0125    -0.0252    -0.0252    -0.0000
  1 O     -0.0003     0.0000     0.0003    -0.0005    -0.0005    -0.0000
  2 H      0.0114     0.0000    -0.0114     0.0227     0.0227     0.0000
  3 H      0.0061     0.0000    -0.0061     0.0121     0.0121     0.0000
  4 H      0.0055     0.0000    -0.0055     0.0110     0.0110     0.0000
  5 H      0.0003     0.0000    -0.0003     0.0006     0.0006     0.0000
  6 C      6.1757     6.0000    -0.1757     3.9200     3.9200     0.0000
  7 O      8.4528     8.0000    -0.4528     1.9223     1.9223     0.0000
  8 H      0.6958     1.0000     0.3042     0.9217     0.9217    -0.0000
  9 H      0.8905     1.0000     0.1095     0.9590     0.9590     0.0000
 10 H      0.9030     1.0000     0.0970     0.9504     0.9504     0.0000
 11 H      0.8715     1.0000     0.1285     0.9643     0.9643    -0.0000

  Mayer bond orders larger than 0.1
B(  6-C ,  7-O ) :   0.9886 B(  6-C ,  9-H ) :   0.9794 B(  6-C , 10-H ) :   0.9625 
B(  6-C , 11-H ) :   0.9793 B(  7-O ,  8-H ) :   0.9084 

-------
TIMINGS
-------

Total SCF time: 0 days 0 hours 0 min 16 sec 

Total time                  ....      16.922 sec
Sum of individual times     ....      16.385 sec  ( 96.8%)

Fock matrix formation       ....      15.452 sec  ( 91.3%)
  XC integration            ....       6.873 sec  ( 44.5% of F)
    Basis function eval.    ....       0.061 sec  (  0.9% of XC)
    Density eval.           ....       0.088 sec  (  1.3% of XC)
    XC-Functional eval.     ....       0.115 sec  (  1.7% of XC)
    XC-Potential eval.      ....       0.070 sec  (  1.0% of XC)
Diagonalization             ....       0.282 sec  (  1.7%)
Density matrix formation    ....       0.005 sec  (  0.0%)
Population analysis         ....       0.024 sec  (  0.1%)
Initial guess               ....       0.118 sec  (  0.7%)
Orbital Transformation      ....       0.000 sec  (  0.0%)
Orbital Orthonormalization  ....       0.000 sec  (  0.0%)
DIIS solution               ....       0.146 sec  (  0.9%)
SOSCF solution              ....       0.054 sec  (  0.3%)
Grid generation             ....       0.304 sec  (  1.8%)


-------------------------------------------------------------------------------
                          DFT DISPERSION CORRECTION                            
                                                                               
                              DFTD3 V3.1  Rev 1                                
                              USING zero damping                               
-------------------------------------------------------------------------------
The omegaB97X-D3 functional is recognized. Fit by Chai et al.
Active option DFTDOPT                   ...         3   

molecular C6(AA) [au] = 208.678689 


            DFT-D V3
 parameters
 s6 scaling factor         :     1.0000 
 rs6 scaling factor        :     1.2810 
 s8 scaling factor         :     1.0000 
 rs8 scaling factor        :     1.0940 
 Damping factor alpha6     :    14.0000 
 Damping factor alpha8     :    16.0000 
 ad hoc parameters k1-k3   :    16.0000     1.3333    -4.0000 

 Edisp/kcal,au: -0.157202281103  -0.000250517754 
 E6   /kcal   :  -0.030173320 
 E8   /kcal   :  -0.127028961 
 % E8         :  80.806054352 

-------------------------   ----------------
Dispersion correction           -0.000250518
-------------------------   ----------------


-------------------------   --------------------
FINAL SINGLE POINT ENERGY      -115.727643457843
-------------------------   --------------------


                            ***************************************
                            *     ORCA property calculations      *
                            ***************************************

                                    ---------------------
                                    Active property flags
                                    ---------------------
   (+) Dipole Moment


------------------------------------------------------------------------------
                       ORCA ELECTRIC PROPERTIES CALCULATION
------------------------------------------------------------------------------

Dipole Moment Calculation                       ... on
Quadrupole Moment Calculation                   ... off
Polarizability Calculation                      ... off
GBWName                                         ... 17-184_DFT_B.gbw
Electron density file                           ... 17-184_DFT_B.scfp.tmp
The origin for moment calculation is the CENTER OF MASS  = (-1.842831, -9.899266 -16.104919)

-------------
DIPOLE MOMENT
-------------
                                X             Y             Z
Electronic contribution:      1.57943      -0.91511       0.67636
Nuclear contribution   :     -1.83815       1.58364      -0.56991
                        -----------------------------------------
Total Dipole Moment    :     -0.25872       0.66853       0.10645
                        -----------------------------------------
Magnitude (a.u.)       :      0.72470
Magnitude (Debye)      :      1.84204



--------------------
Rotational spectrum 
--------------------
 
Rotational constants in cm-1:     4.548118     0.818921     0.776203 
Rotational constants in MHz : 136349.139387 24550.627715 23269.977422 

 Dipole components along the rotational axes: 
x,y,z [a.u.] :     0.401693    -0.602385    -0.031109 
x,y,z [Debye]:     1.021021    -1.531140    -0.079072 

 
------------------------------------------------------------------------------
                      ORCA CHELPG CHARGES GENERATION
------------------------------------------------------------------------------

GBW file                           ... 17-184_DFT_B.gbw

Reading the GBW file               ... done

Grid spacing                       ...     0.300000
Point Cut-Off                      ...     2.800000
Van-der-Waals Radii                ...        COSMO
Total charge                       ...            0


Number of points X direction       ...           32
Number of points Y direction       ...           35
Number of points Z direction       ...           26
Maximum number of possible points  ...        29120
Final number of points             ...         5949


CHELPG Charges            
--------------------------------
  0   C   :       0.000223
  1   O   :      -0.000895
  2   H   :      -0.001775
  3   H   :       0.006903
  4   H   :      -0.007373
  5   H   :      -0.010083
  6   C   :      -0.048428
  7   O   :      -0.569959
  8   H   :       0.415805
  9   H   :       0.055370
 10   H   :       0.042162
 11   H   :       0.118051
--------------------------------
Total charge:     0.000000
--------------------------------

CHELPG charges calculated...

Timings for individual parts in CHELPG calculation:
Grid generation                 ...        0.001 sec (=   0.000 min)
Potential calculation           ...        1.250 sec (=   0.021 min)
Fit to the potential            ...        0.002 sec (=   0.000 min)
------------------------------------------------------------------------------


Timings for individual modules:

Sum of individual times         ...       19.327 sec (=   0.322 min)
GTO integral calculation        ...        0.610 sec (=   0.010 min)   3.2 %
SCF iterations                  ...       17.433 sec (=   0.291 min)  90.2 %
CHELPG charge generation        ...        1.285 sec (=   0.021 min)   6.6 %



                             ****ORCA TERMINATED NORMALLY****
TOTAL RUN TIME: 0 days 0 hours 1 minutes 8 seconds 961 msec
