
                                 *****************
                                 * O   R   C   A *
                                 *****************

           --- An Ab Initio, DFT and Semiempirical electronic structure package ---

                  #######################################################
                  #                        -***-                        #
                  #          Department of theory and spectroscopy      #
                  #               Directorship: Frank Neese             #
                  #        Max Planck Institute fuer Kohlenforschung    #
                  #                Kaiser Wilhelm Platz 1               #
                  #                 D-45470 Muelheim/Ruhr               #
                  #                      Germany                        #
                  #                                                     #
                  #                  All rights reserved                #
                  #                        -***-                        #
                  #######################################################


                         Program Version 4.1.2  - RELEASE  -


 With contributions from (in alphabetic order):
   Daniel Aravena         : Magnetic Properties
   Michael Atanasov       : Ab Initio Ligand Field Theory
   Alexander A. Auer      : GIAO ZORA
   Ute Becker             : Parallelization
   Giovanni Bistoni       : ED, Open-shell LED
   Martin Brehm           : Molecular dynamics
   Dmytro Bykov           : SCF Hessian
   Vijay G. Chilkuri      : MRCI spin determinant printing
   Dipayan Datta          : RHF DLPNO-CCSD density
   Achintya Kumar Dutta   : EOM-CC, STEOM-CC
   Dmitry Ganyushin       : Spin-Orbit,Spin-Spin,Magnetic field MRCI
   Miquel Garcia          : C-PCM Hessian
   Yang Guo               : DLPNO-NEVPT2, CIM, IAO-localization
   Andreas Hansen         : Spin unrestricted coupled pair/coupled cluster methods
   Benjamin Helmich-Paris : CASSCF linear response (MC-RPA)
   Lee Huntington         : MR-EOM, pCC
   Robert Izsak           : Overlap fitted RIJCOSX, COSX-SCS-MP3, EOM
   Christian Kollmar      : KDIIS, OOCD, Brueckner-CCSD(T), CCSD density
   Simone Kossmann        : Meta GGA functionals, TD-DFT gradient, OOMP2, MP2 Hessian
   Martin Krupicka        : AUTO-CI
   Lucas Lang             : DCDCAS
   Dagmar Lenk            : GEPOL surface, SMD
   Dimitrios Liakos       : Extrapolation schemes; parallel MDCI
   Dimitrios Manganas     : ROCIS; embedding schemes
   Dimitrios Pantazis     : SARC Basis sets
   Taras Petrenko         : DFT Hessian,TD-DFT gradient, ASA, ECA, R-Raman, ABS, FL, XAS/XES, NRVS
   Peter Pinski           : DLPNO-MP2, DLPNO-MP2 Gradient
   Christoph Reimann      : Effective Core Potentials
   Marius Retegan         : Local ZFS, SOC
   Christoph Riplinger    : Optimizer, TS searches, QM/MM, DLPNO-CCSD(T), (RO)-DLPNO pert. Triples
   Tobias Risthaus        : Range-separated hybrids, TD-DFT gradient, RPA, STAB
   Michael Roemelt        : Restricted open shell CIS
   Masaaki Saitow         : Open-shell DLPNO
   Barbara Sandhoefer     : DKH picture change effects
   Avijit Sen             : IP-ROCIS
   Kantharuban Sivalingam : CASSCF convergence, NEVPT2, FIC-MRCI
   Bernardo de Souza      : ESD, SOC TD-DFT
   Georgi Stoychev        : AutoAux, RI-MP2 NMR
   Willem Van den Heuvel  : Paramagnetic NMR
   Boris Wezisla          : Elementary symmetry handling
   Frank Wennmohs         : Technical directorship


 We gratefully acknowledge several colleagues who have allowed us to
 interface, adapt or use parts of their codes:
   Stefan Grimme, W. Hujo, H. Kruse,             : VdW corrections, initial TS optimization,
                  C. Bannwarth                     DFT functionals, gCP, sTDA/sTD-DF
   Ed Valeev                                     : LibInt (2-el integral package), F12 methods
   Garnet Chan, S. Sharma, J. Yang, R. Olivares  : DMRG
   Ulf Ekstrom                                   : XCFun DFT Library
   Mihaly Kallay                                 : mrcc  (arbitrary order and MRCC methods)
   Andreas Klamt, Michael Diedenhofen            : otool_cosmo (COSMO solvation model)
   Jiri Pittner, Ondrej Demel                    : Mk-CCSD
   Frank Weinhold                                : gennbo (NPA and NBO analysis)
   Christopher J. Cramer and Donald G. Truhlar   : smd solvation model
   Lars Goerigk                                  : TD-DFT with DH, B97 family of functionals
   V. Asgeirsson, H. Jonsson                     : NEB implementation
   FAccTs GmbH                                   : IRC, NEB, NEB-TS, Multilevel


 Your calculation uses the libint2 library for the computation of 2-el integrals
 For citations please refer to: http://libint.valeyev.net

 This ORCA versions uses:
   CBLAS   interface :  Fast vector & matrix operations
   LAPACKE interface :  Fast linear algebra routines
   SCALAPACK package :  Parallel linear algebra routines


Your calculation utilizes the atom-pairwise dispersion correction
with the zero-damping scheme (D30)
Cite in your paper:
S.Grimme, J.Antony, S.Ehrlich and H.Krieg, J.Chem.Phys., 132, (2010), 154104 
   

XCFun DFT library Copyright 2009-2010 Ulf Ekstrom and contributors.
See http://admol.org/xcfun for more information. This is free soft-
ware; see the source code for copying conditions. There is ABSOLUTELY
NO WARRANTY; not even for MERCHANTABILITY or FITNESS FOR A PARTICULAR
PURPOSE. For details see the documentation. Scientific users of this 
library should cite U. Ekstrom, L. Visscher, R. Bast, A. J. Thorvald-
sen and K. Ruud; J.Chem.Theor.Comp. 2010, DOI: 10.1021/ct100117s
XCFun Version 0.99 
----- Orbital basis set information -----
Your calculation utilizes the basis: def2-TZVP
   F. Weigend and R. Ahlrichs, Phys. Chem. Chem. Phys. 7, 3297 (2005).

================================================================================
                                        WARNINGS
                       Please study these warnings very carefully!
================================================================================


INFO   : the flag for use of LIBINT has been found!

================================================================================
                                       INPUT FILE
================================================================================
NAME = 83.in
|  1> #Run DFT-D3 single point of the dimer
|  2> ! wB97X-D3 def2-TZVP TIGHTSCF  CHELPG PAL8
|  3> 
|  4> %base "83_charges"
|  5> 
|  6> %scf
|  7> MaxIter 1000
|  8> end
|  9> %output
| 10>   Print[ P_Mayer ] 1
| 11>   Print[ P_NatPop ] 1
| 12>   Print[ P_Hirshfeld ] 1
| 13>   Print[ P_Mulliken ] 1
| 14>   Print [ P_Loewdin ] 1
| 15> end
| 16> 
| 17> * xyz 0 1
| 18>   C                      -7.212778            -0.184821            -8.502989           
| 19>   O                      -7.288164            -1.078064            -7.441336           
| 20>   H                      -7.733234            -1.880886            -7.644668           
| 21>   H                      -6.738976            -0.567749            -9.454886           
| 22>   H                      -8.192273            -0.070033            -8.844133           
| 23>   H                      -6.757635            0.784107             -8.299056           
| 24> *
| 25> 
| 26>                          ****END OF INPUT****
================================================================================

                       ****************************
                       * Single Point Calculation *
                       ****************************

---------------------------------
CARTESIAN COORDINATES (ANGSTROEM)
---------------------------------
  C     -7.212778   -0.184821   -8.502989
  O     -7.288164   -1.078064   -7.441336
  H     -7.733234   -1.880886   -7.644668
  H     -6.738976   -0.567749   -9.454886
  H     -8.192273   -0.070033   -8.844133
  H     -6.757635    0.784107   -8.299056

----------------------------
CARTESIAN COORDINATES (A.U.)
----------------------------
  NO LB      ZA    FRAG     MASS         X           Y           Z
   0 C     6.0000    0    12.011  -13.630175   -0.349261  -16.068321
   1 O     8.0000    0    15.999  -13.772634   -2.037246  -14.062087
   2 H     1.0000    0     1.008  -14.613694   -3.554359  -14.446329
   3 H     1.0000    0     1.008  -12.734819   -1.072890  -17.867145
   4 H     1.0000    0     1.008  -15.481152   -0.132343  -16.712989
   5 H     1.0000    0     1.008  -12.770079    1.481747  -15.682943

--------------------------------
INTERNAL COORDINATES (ANGSTROEM)
--------------------------------
 C      0   0   0     0.000000000000     0.00000000     0.00000000
 O      1   0   0     1.389486667246     0.00000000     0.00000000
 H      2   1   0     0.940188476215   114.16558430     0.00000000
 H      1   2   3     1.130146046755   116.64604853   304.05200347
 H      1   2   3     1.043535322212   105.63864963    52.77829626
 H      1   2   3     1.089754691718   116.82437342   176.49709433

---------------------------
INTERNAL COORDINATES (A.U.)
---------------------------
 C      0   0   0     0.000000000000     0.00000000     0.00000000
 O      1   0   0     2.625749267830     0.00000000     0.00000000
 H      2   1   0     1.776698734316   114.16558430     0.00000000
 H      1   2   3     2.135666519702   116.64604853   304.05200347
 H      1   2   3     1.971995970055   105.63864963    52.77829626
 H      1   2   3     2.059337920503   116.82437342   176.49709433

---------------------
BASIS SET INFORMATION
---------------------
There are 3 groups of distinct atoms

 Group   1 Type C   : 11s6p2d1f contracted to 5s3p2d1f pattern {62111/411/11/1}
 Group   2 Type O   : 11s6p2d1f contracted to 5s3p2d1f pattern {62111/411/11/1}
 Group   3 Type H   : 5s1p contracted to 3s1p pattern {311/1}

Atom   0C    basis set group =>   1
Atom   1O    basis set group =>   2
Atom   2H    basis set group =>   3
Atom   3H    basis set group =>   3
Atom   4H    basis set group =>   3
Atom   5H    basis set group =>   3


           ************************************************************
           *        Program running with 8 parallel MPI-processes     *
           *              working on a common directory               *
           ************************************************************
------------------------------------------------------------------------------
                           ORCA GTO INTEGRAL CALCULATION
------------------------------------------------------------------------------

                         BASIS SET STATISTICS AND STARTUP INFO

 # of primitive gaussian shells          ...   64
 # of primitive gaussian functions       ...  124
 # of contracted shells                  ...   38
 # of contracted basis functions         ...   86
 Highest angular momentum                ...    3
 Maximum contraction depth               ...    6
 Integral package used                   ... LIBINT
 Integral threshhold            Thresh   ...  2.500e-11
 Primitive cut-off              TCut     ...  2.500e-12


------------------------------ INTEGRAL EVALUATION ----------------------------


 * One electron integrals 
 Pre-screening matrix                    ... done
 Shell pair data                         ... done (   0.000 sec)



           ************************************************************
           *        Program running with 8 parallel MPI-processes     *
           *              working on a common directory               *
           ************************************************************
-------------------------------------------------------------------------------
                                 ORCA SCF
-------------------------------------------------------------------------------

------------
SCF SETTINGS
------------
Hamiltonian:
 Density Functional     Method          .... DFT(GTOs)
 Exchange Functional    Exchange        .... WB97X-D3
 Correlation Functional Correlation     .... WB97X-D3
 Gradients option       PostSCFGGA      .... off
 Hybrid DFT is turned on
   Fraction HF Exchange ScalHFX         ....  0.195728
   Scaling of DF-GGA-X  ScalDFX         ....  0.000000
   Scaling of DF-GGA-C  ScalDFC         ....  1.000000
   Scaling of DF-LDA-C  ScalLDAC        ....  1.000000
   Perturbative correction              ....  0.000000
   Density functional embedding theory  .... OFF
 Long-range corrected/Screened/Range-Separated Hybrid DFT is turned on
   Amount of maximum screened exact exchange              ....  0.804272
   Range separation parameter mu (erf(mu*r12)/r12)        ....  0.250000


General Settings:
 Integral files         IntName         .... 83_charges
 Hartree-Fock type      HFTyp           .... RHF
 Total Charge           Charge          ....    0
 Multiplicity           Mult            ....    1
 Number of Electrons    NEL             ....   18
 Basis Dimension        Dim             ....   86
 Nuclear Repulsion      ENuc            ....     40.8556756595 Eh

Convergence Acceleration:
 DIIS                   CNVDIIS         .... on
   Start iteration      DIISMaxIt       ....    12
   Startup error        DIISStart       ....  0.200000
   # of expansion vecs  DIISMaxEq       ....     5
   Bias factor          DIISBfac        ....   1.050
   Max. coefficient     DIISMaxC        ....  10.000
 Newton-Raphson         CNVNR           .... off
 SOSCF                  CNVSOSCF        .... on
   Start iteration      SOSCFMaxIt      ....   150
   Startup grad/error   SOSCFStart      ....  0.003300
 Level Shifting         CNVShift        .... on
   Level shift para.    LevelShift      ....    0.2500
   Turn off err/grad.   ShiftErr        ....    0.0010
 Zerner damping         CNVZerner       .... off
 Static damping         CNVDamp         .... on
   Fraction old density DampFac         ....    0.7000
   Max. Damping (<1)    DampMax         ....    0.9800
   Min. Damping (>=0)   DampMin         ....    0.0000
   Turn off err/grad.   DampErr         ....    0.1000
 Fernandez-Rico         CNVRico         .... off

SCF Procedure:
 Maximum # iterations   MaxIter         ....  1000
 SCF integral mode      SCFMode         .... Direct
   Integral package                     .... LIBINT
 Reset frequency        DirectResetFreq ....    20
 Integral Threshold     Thresh          ....  2.500e-11 Eh
 Primitive CutOff       TCut            ....  2.500e-12 Eh

Convergence Tolerance:
 Convergence Check Mode ConvCheckMode   .... Total+1el-Energy
 Convergence forced     ConvForced      .... 0
 Energy Change          TolE            ....  1.000e-08 Eh
 1-El. energy change                    ....  1.000e-05 Eh
 Orbital Gradient       TolG            ....  1.000e-05
 Orbital Rotation angle TolX            ....  1.000e-05
 DIIS Error             TolErr          ....  5.000e-07


Diagonalization of the overlap matrix:
Smallest eigenvalue                        ... 1.615e-03
Time for diagonalization                   ...    0.002 sec
Threshold for overlap eigenvalues          ... 1.000e-08
Number of eigenvalues below threshold      ... 0
Time for construction of square roots      ...    0.031 sec
Total time needed                          ...    0.033 sec

-------------------
DFT GRID GENERATION
-------------------

General Integration Accuracy     IntAcc      ...  4.340
Radial Grid Type                 RadialGrid  ... Gauss-Chebyshev
Angular Grid (max. acc.)         AngularGrid ... Lebedev-110
Angular grid pruning method      GridPruning ... 3 (G Style)
Weight generation scheme         WeightScheme... Becke
Basis function cutoff            BFCut       ...    1.0000e-11
Integration weight cutoff        WCut        ...    1.0000e-14
Grids for H and He will be reduced by one unit

# of grid points (after initial pruning)     ...   6548 (   0.0 sec)
# of grid points (after weights+screening)   ...   6375 (   0.0 sec)
nearest neighbour list constructed           ...    0.0 sec
Grid point re-assignment to atoms done       ...    0.0 sec
Grid point division into batches done        ...    0.0 sec
Reduced shell lists constructed in    0.0 sec

Total number of grid points                  ...     6375
Total number of batches                      ...      102
Average number of points per batch           ...       62
Average number of grid points per atom       ...     1062
Average number of shells per batch           ...    31.86 (83.83%)
Average number of basis functions per batch  ...    73.14 (85.05%)
Average number of large shells per batch     ...    30.21 (94.84%)
Average number of large basis fcns per batch ...    69.07 (94.43%)
Maximum spatial batch extension              ...  19.37, 13.84, 14.44 au
Average spatial batch extension              ...   0.52,  0.38,  0.43 au

Time for grid setup =    0.077 sec

------------------------------
INITIAL GUESS: MODEL POTENTIAL
------------------------------
Loading Hartree-Fock densities                     ... done
Calculating cut-offs                               ... done
Setting up the integral package                    ... done
Initializing the effective Hamiltonian             ... done
Starting the Coulomb interaction                   ... done (   0.0 sec)
Reading the grid                                   ... done
Mapping shells                                     ... done
Starting the XC term evaluation                    ... done (   0.1 sec)
  promolecular density results
     # of electrons  =     17.993306225
     EX              =    -14.444012917
     EC              =     -0.576670661
     EX+EC           =    -15.020683578
Transforming the Hamiltonian                       ... done (   0.0 sec)
Diagonalizing the Hamiltonian                      ... done (   0.1 sec)
Back transforming the eigenvectors                 ... done (   0.0 sec)
Now organizing SCF variables                       ... done
                      ------------------
                      INITIAL GUESS DONE (   0.6 sec)
                      ------------------
--------------
SCF ITERATIONS
--------------
ITER       Energy         Delta-E        Max-DP      RMS-DP      [F,P]     Damp
               ***  Starting incremental Fock matrix formation  ***
  0   -115.6358905670   0.000000000000 0.03791237  0.00152373  0.2496522 0.7000
  1   -115.6745780597  -0.038687492668 0.02211089  0.00108522  0.1247271 0.7000
                               ***Turning on DIIS***
  2   -115.6924974145  -0.017919354843 0.03228328  0.00196627  0.0478740 0.0000
  3   -115.7216188066  -0.029121392019 0.01828432  0.00071520  0.0623039 0.0000
  4   -115.7263566459  -0.004737839295 0.00400207  0.00013798  0.0061311 0.0000
                      *** Initiating the SOSCF procedure ***
                           *** Shutting down DIIS ***
                      *** Re-Reading the Fockian *** 
                      *** Removing any level shift *** 
ITER      Energy       Delta-E        Grad      Rot      Max-DP    RMS-DP
  5   -115.72644603  -0.0000893796  0.000486  0.000486  0.000852  0.000048
               *** Restarting incremental Fock matrix formation ***
  6   -115.72645435  -0.0000083221  0.000152  0.000203  0.000541  0.000030
  7   -115.72645513  -0.0000007846  0.000061  0.000125  0.000232  0.000014
  8   -115.72645519  -0.0000000598  0.000028  0.000022  0.000040  0.000002
  9   -115.72645521  -0.0000000153  0.000009  0.000008  0.000018  0.000001
 10   -115.72645521  -0.0000000013  0.000003  0.000003  0.000005  0.000000
                  ***Gradient check signals convergence***
              ***Rediagonalizing the Fockian in SOSCF/NRSCF***

               *****************************************************
               *                     SUCCESS                       *
               *           SCF CONVERGED AFTER  11 CYCLES          *
               *****************************************************

Setting up the final grid:

General Integration Accuracy     IntAcc      ...  4.670
Radial Grid Type                 RadialGrid  ... Gauss-Chebyshev
Angular Grid (max. acc.)         AngularGrid ... Lebedev-302
Angular grid pruning method      GridPruning ... 3 (G Style)
Weight generation scheme         WeightScheme... Becke
Basis function cutoff            BFCut       ...    1.0000e-11
Integration weight cutoff        WCut        ...    1.0000e-14
Grids for H and He will be reduced by one unit

# of grid points (after initial pruning)     ...  26000 (   0.0 sec)
# of grid points (after weights+screening)   ...  25202 (   0.2 sec)
nearest neighbour list constructed           ...    0.0 sec
Grid point re-assignment to atoms done       ...    0.0 sec
Grid point division into batches done        ...    0.1 sec
Reduced shell lists constructed in    0.2 sec

Total number of grid points                  ...    25202
Total number of batches                      ...      396
Average number of points per batch           ...       63
Average number of grid points per atom       ...     4200
Average number of shells per batch           ...    31.49 (82.87%)
Average number of basis functions per batch  ...    71.96 (83.68%)
Average number of large shells per batch     ...    29.98 (95.21%)
Average number of large basis fcns per batch ...    69.39 (96.43%)
Maximum spatial batch extension              ...  16.05, 15.20, 13.28 au
Average spatial batch extension              ...   0.32,  0.30,  0.28 au

Final grid set up in    0.6 sec
Final integration                            ... done (   0.2 sec)
Change in XC energy                          ...     0.000186743
Integrated number of electrons               ...    17.999997567
Previous integrated no of electrons          ...    17.997492695

----------------
TOTAL SCF ENERGY
----------------

Total Energy       :         -115.72626847 Eh           -3149.07186 eV

Components:
Nuclear Repulsion  :           40.85567566 Eh            1111.73945 eV
Electronic Energy  :         -156.58194413 Eh           -4260.81132 eV
One Electron Energy:         -238.06448314 Eh           -6478.06392 eV
Two Electron Energy:           81.48253902 Eh            2217.25261 eV

Virial components:
Potential Energy   :         -231.06513422 Eh           -6287.60196 eV
Kinetic Energy     :          115.33886576 Eh            3138.53010 eV
Virial Ratio       :            2.00335882


DFT components:
N(Alpha)           :        8.999998783505 electrons
N(Beta)            :        8.999998783505 electrons
N(Total)           :       17.999997567010 electrons
E(XC)              :      -10.674312871098 Eh       
DFET-embed. en.    :        0.000000000000 Eh       

---------------
SCF CONVERGENCE
---------------

  Last Energy change         ...   -2.6549e-10  Tolerance :   1.0000e-08
  Last MAX-Density change    ...    1.8902e-06  Tolerance :   1.0000e-07
  Last RMS-Density change    ...    9.9272e-08  Tolerance :   5.0000e-09
  Last Orbital Gradient      ...    8.9106e-07  Tolerance :   1.0000e-05
  Last Orbital Rotation      ...    7.8411e-07  Tolerance :   1.0000e-05

             **** THE GBW FILE WAS UPDATED (83_charges.gbw) ****
             **** DENSITY FILE WAS UPDATED (83_charges.scfp.tmp) ****
             **** ENERGY FILE WAS UPDATED (83_charges.en.tmp) ****
----------------
ORBITAL ENERGIES
----------------

  NO   OCC          E(Eh)            E(eV) 
   0   2.0000     -19.226861      -523.1895 
   1   2.0000     -10.309698      -280.5411 
   2   2.0000      -1.144511       -31.1437 
   3   2.0000      -0.802352       -21.8331 
   4   2.0000      -0.624687       -16.9986 
   5   2.0000      -0.546366       -14.8674 
   6   2.0000      -0.527840       -14.3633 
   7   2.0000      -0.429490       -11.6870 
   8   2.0000      -0.366559        -9.9746 
   9   0.0000       0.117538         3.1984 
  10   0.0000       0.153367         4.1733 
  11   0.0000       0.203443         5.5360 
  12   0.0000       0.212303         5.7771 
  13   0.0000       0.230241         6.2652 
  14   0.0000       0.304654         8.2901 
  15   0.0000       0.317225         8.6321 
  16   0.0000       0.411074        11.1859 
  17   0.0000       0.458551        12.4778 
  18   0.0000       0.475874        12.9492 
  19   0.0000       0.527134        14.3440 
  20   0.0000       0.550743        14.9865 
  21   0.0000       0.581063        15.8115 
  22   0.0000       0.592035        16.1101 
  23   0.0000       0.630107        17.1461 
  24   0.0000       0.666923        18.1479 
  25   0.0000       0.788362        21.4524 
  26   0.0000       0.840258        22.8646 
  27   0.0000       0.874331        23.7918 
  28   0.0000       0.988689        26.9036 
  29   0.0000       1.003543        27.3078 
  30   0.0000       1.110906        30.2293 
  31   0.0000       1.400472        38.1088 
  32   0.0000       1.509076        41.0641 
  33   0.0000       1.555179        42.3186 
  34   0.0000       1.572859        42.7997 
  35   0.0000       1.614154        43.9234 
  36   0.0000       1.651954        44.9520 
  37   0.0000       1.668438        45.4005 
  38   0.0000       1.733945        47.1830 
  39   0.0000       1.777499        48.3682 
  40   0.0000       1.954897        53.1954 
  41   0.0000       1.978293        53.8321 
  42   0.0000       2.035338        55.3844 
  43   0.0000       2.075510        56.4775 
  44   0.0000       2.163977        58.8848 
  45   0.0000       2.271100        61.7998 
  46   0.0000       2.335903        63.5631 
  47   0.0000       2.351915        63.9989 
  48   0.0000       2.414720        65.7079 
  49   0.0000       2.474017        67.3214 
  50   0.0000       2.495218        67.8983 
  51   0.0000       2.629972        71.5652 
  52   0.0000       2.652186        72.1696 
  53   0.0000       2.761191        75.1358 
  54   0.0000       2.840256        77.2873 
  55   0.0000       2.864903        77.9580 
  56   0.0000       2.960086        80.5480 
  57   0.0000       2.989350        81.3444 
  58   0.0000       3.085091        83.9496 
  59   0.0000       3.165497        86.1376 
  60   0.0000       3.263611        88.8074 
  61   0.0000       3.350399        91.1690 
  62   0.0000       3.493149        95.0534 
  63   0.0000       3.536211        96.2252 
  64   0.0000       3.634606        98.9027 
  65   0.0000       3.691275       100.4447 
  66   0.0000       3.705100       100.8209 
  67   0.0000       3.997505       108.7776 
  68   0.0000       4.252075       115.7049 
  69   0.0000       4.300828       117.0315 
  70   0.0000       4.421052       120.3029 
  71   0.0000       4.583801       124.7316 
  72   0.0000       5.343924       145.4156 
  73   0.0000       5.414562       147.3377 
  74   0.0000       5.599050       152.3579 
  75   0.0000       5.868491       159.6898 
  76   0.0000       5.889006       160.2480 
  77   0.0000       6.005850       163.4275 
  78   0.0000       6.434185       175.0831 
  79   0.0000       6.534336       177.8083 
  80   0.0000       6.731711       183.1792 
  81   0.0000       6.824192       185.6957 
  82   0.0000       7.036502       191.4729 
  83   0.0000       7.241079       197.0398 
  84   0.0000      22.490260       611.9911 
  85   0.0000      43.671721      1188.3679 

                    ********************************
                    * MULLIKEN POPULATION ANALYSIS *
                    ********************************

-----------------------
MULLIKEN ATOMIC CHARGES
-----------------------
   0 C :   -0.149549
   1 O :   -0.478065
   2 H :    0.317257
   3 H :    0.083550
   4 H :    0.101797
   5 H :    0.125010
Sum of atomic charges:   -0.0000000

--------------------------------
MULLIKEN REDUCED ORBITAL CHARGES
--------------------------------
  0 C s       :     3.206281  s :     3.206281
      pz      :     0.829006  p :     2.835118
      px      :     1.074008
      py      :     0.932105
      dz2     :     0.032816  d :     0.100232
      dxz     :     0.024805
      dyz     :     0.010776
      dx2y2   :     0.014546
      dxy     :     0.017288
      f0      :     0.001259  f :     0.007917
      f+1     :     0.000607
      f-1     :     0.001939
      f+2     :     0.001293
      f-2     :     0.001777
      f+3     :     0.000812
      f-3     :     0.000229
  1 O s       :     3.773248  s :     3.773248
      pz      :     1.554197  p :     4.673756
      px      :     1.789103
      py      :     1.330457
      dz2     :     0.007866  d :     0.029217
      dxz     :     0.004444
      dyz     :     0.008385
      dx2y2   :     0.002658
      dxy     :     0.005865
      f0      :     0.000151  f :     0.001843
      f+1     :     0.000089
      f-1     :     0.000311
      f+2     :     0.000281
      f-2     :     0.000273
      f+3     :     0.000548
      f-3     :     0.000190
  2 H s       :     0.632536  s :     0.632536
      pz      :     0.012596  p :     0.050206
      px      :     0.018718
      py      :     0.018892
  3 H s       :     0.897558  s :     0.897558
      pz      :     0.009487  p :     0.018891
      px      :     0.005912
      py      :     0.003493
  4 H s       :     0.876456  s :     0.876456
      pz      :     0.005637  p :     0.021747
      px      :     0.011752
      py      :     0.004358
  5 H s       :     0.854836  s :     0.854836
      pz      :     0.003035  p :     0.020154
      px      :     0.005970
      py      :     0.011150


                     *******************************
                     * LOEWDIN POPULATION ANALYSIS *
                     *******************************

----------------------
LOEWDIN ATOMIC CHARGES
----------------------
   0 C :   -0.399994
   1 O :   -0.050021
   2 H :    0.158456
   3 H :    0.097129
   4 H :    0.085062
   5 H :    0.109368

-------------------------------
LOEWDIN REDUCED ORBITAL CHARGES
-------------------------------
  0 C s       :     2.847473  s :     2.847473
      pz      :     0.943138  p :     3.061642
      px      :     1.117270
      py      :     1.001235
      dz2     :     0.121042  d :     0.430041
      dxz     :     0.101855
      dyz     :     0.085780
      dx2y2   :     0.060611
      dxy     :     0.060752
      f0      :     0.009305  f :     0.060838
      f+1     :     0.005647
      f-1     :     0.014545
      f+2     :     0.009424
      f-2     :     0.012132
      f+3     :     0.006622
      f-3     :     0.003164
  1 O s       :     3.331566  s :     3.331566
      pz      :     1.585177  p :     4.639992
      px      :     1.703183
      py      :     1.351632
      dz2     :     0.019779  d :     0.073638
      dxz     :     0.010387
      dyz     :     0.019101
      dx2y2   :     0.008770
      dxy     :     0.015601
      f0      :     0.000816  f :     0.004825
      f+1     :     0.000393
      f-1     :     0.000862
      f+2     :     0.000680
      f-2     :     0.000963
      f+3     :     0.000942
      f-3     :     0.000169
  2 H s       :     0.673749  s :     0.673749
      pz      :     0.041389  p :     0.167795
      px      :     0.058751
      py      :     0.067655
  3 H s       :     0.847780  s :     0.847780
      pz      :     0.026576  p :     0.055091
      px      :     0.016928
      py      :     0.011587
  4 H s       :     0.845624  s :     0.845624
      pz      :     0.016880  p :     0.069314
      px      :     0.036935
      py      :     0.015500
  5 H s       :     0.830164  s :     0.830164
      pz      :     0.010104  p :     0.060468
      px      :     0.018068
      py      :     0.032296


                      *****************************
                      * MAYER POPULATION ANALYSIS *
                      *****************************

  NA   - Mulliken gross atomic population
  ZA   - Total nuclear charge
  QA   - Mulliken gross atomic charge
  VA   - Mayer's total valence
  BVA  - Mayer's bonded valence
  FA   - Mayer's free valence

  ATOM       NA         ZA         QA         VA         BVA        FA
  0 C      6.1495     6.0000    -0.1495     3.9412     3.9412    -0.0000
  1 O      8.4781     8.0000    -0.4781     1.8806     1.8806     0.0000
  2 H      0.6827     1.0000     0.3173     0.9135     0.9135     0.0000
  3 H      0.9164     1.0000     0.0836     0.9551     0.9551    -0.0000
  4 H      0.8982     1.0000     0.1018     0.9608     0.9608    -0.0000
  5 H      0.8750     1.0000     0.1250     0.9586     0.9586     0.0000

  Mayer bond orders larger than 0.1
B(  0-C ,  1-O ) :   0.9939 B(  0-C ,  3-H ) :   0.9709 B(  0-C ,  4-H ) :   0.9915 
B(  0-C ,  5-H ) :   0.9696 B(  1-O ,  2-H ) :   0.8951 


------------------
HIRSHFELD ANALYSIS
------------------

Total integrated alpha density =      8.998746347
Total integrated beta density  =      8.998746347

  ATOM     CHARGE      SPIN    
   0 C    0.006404    0.000000
   1 O   -0.252225    0.000000
   2 H    0.167306    0.000000
   3 H    0.017705    0.000000
   4 H    0.016936    0.000000
   5 H    0.046381    0.000000

  TOTAL   0.002507    0.000000

-------
TIMINGS
-------

Total SCF time: 0 days 0 hours 0 min 28 sec 

Total time                  ....      28.717 sec
Sum of individual times     ....      24.164 sec  ( 84.1%)

Fock matrix formation       ....      18.521 sec  ( 64.5%)
  XC integration            ....       4.453 sec  ( 24.0% of F)
    Basis function eval.    ....       0.058 sec  (  1.3% of XC)
    Density eval.           ....       0.040 sec  (  0.9% of XC)
    XC-Functional eval.     ....       0.087 sec  (  1.9% of XC)
    XC-Potential eval.      ....       0.037 sec  (  0.8% of XC)
Diagonalization             ....       2.072 sec  (  7.2%)
Density matrix formation    ....       1.030 sec  (  3.6%)
Population analysis         ....       0.334 sec  (  1.2%)
Initial guess               ....       0.540 sec  (  1.9%)
Orbital Transformation      ....       0.000 sec  (  0.0%)
Orbital Orthonormalization  ....       0.000 sec  (  0.0%)
DIIS solution               ....       0.331 sec  (  1.2%)
SOSCF solution              ....       0.617 sec  (  2.1%)
Grid generation             ....       0.720 sec  (  2.5%)


-------------------------------------------------------------------------------
                          DFT DISPERSION CORRECTION                            
                                                                               
                              DFTD3 V3.1  Rev 1                                
                              USING zero damping                               
-------------------------------------------------------------------------------
The omegaB97X-D3 functional is recognized. Fit by Chai et al.
Active option DFTDOPT                   ...         3   

molecular C6(AA) [au] = 208.720154 


            DFT-D V3
 parameters
 s6 scaling factor         :     1.0000 
 rs6 scaling factor        :     1.2810 
 s8 scaling factor         :     1.0000 
 rs8 scaling factor        :     1.0940 
 Damping factor alpha6     :    14.0000 
 Damping factor alpha8     :    16.0000 
 ad hoc parameters k1-k3   :    16.0000     1.3333    -4.0000 

 Edisp/kcal,au: -0.150763799085  -0.000240257381 
 E6   /kcal   :  -0.032453100 
 E8   /kcal   :  -0.118310699 
 % E8         :  78.474209389 

-------------------------   ----------------
Dispersion correction           -0.000240257
-------------------------   ----------------


-------------------------   --------------------
FINAL SINGLE POINT ENERGY      -115.726508723392
-------------------------   --------------------


                            ***************************************
                            *     ORCA property calculations      *
                            ***************************************

                                    ---------------------
                                    Active property flags
                                    ---------------------
   (+) Dipole Moment


------------------------------------------------------------------------------
                       ORCA ELECTRIC PROPERTIES CALCULATION
------------------------------------------------------------------------------

Dipole Moment Calculation                       ... on
Quadrupole Moment Calculation                   ... off
Polarizability Calculation                      ... off
GBWName                                         ... 83_charges.gbw
Electron density file                           ... 83_charges.scfp.tmp
The origin for moment calculation is the CENTER OF MASS  = (-13.735252, -1.251262 -15.080301)

-------------
DIPOLE MOMENT
-------------
                                X             Y             Z
Electronic contribution:      0.02724      -1.01568       1.61555
Nuclear contribution   :     -0.32733       0.85134      -2.17060
                        -----------------------------------------
Total Dipole Moment    :     -0.30009      -0.16434      -0.55506
                        -----------------------------------------
Magnitude (a.u.)       :      0.65204
Magnitude (Debye)      :      1.65735



--------------------
Rotational spectrum 
--------------------
 
Rotational constants in cm-1:     4.599227     0.846545     0.807460 
Rotational constants in MHz : 137881.363291 25378.770968 24207.051957 

 Dipole components along the rotational axes: 
x,y,z [a.u.] :    -0.273219    -0.587742     0.071177 
x,y,z [Debye]:    -0.694468    -1.493922     0.180917 

 
------------------------------------------------------------------------------
                      ORCA CHELPG CHARGES GENERATION
------------------------------------------------------------------------------

GBW file                           ... 83_charges.gbw

Reading the GBW file               ... done

Grid spacing                       ...     0.300000
Point Cut-Off                      ...     2.800000
Van-der-Waals Radii                ...        COSMO
Total charge                       ...            0


Number of points X direction       ...           23
Number of points Y direction       ...           27
Number of points Z direction       ...           25
Maximum number of possible points  ...        15525
Final number of points             ...         5905


CHELPG Charges            
--------------------------------
  0   C   :       0.183642
  1   O   :      -0.657202
  2   H   :       0.432894
  3   H   :      -0.018119
  4   H   :      -0.001293
  5   H   :       0.060077
--------------------------------
Total charge:    -0.000000
--------------------------------

CHELPG charges calculated...

Timings for individual parts in CHELPG calculation:
Grid generation                 ...        0.001 sec (=   0.000 min)
Potential calculation           ...        0.625 sec (=   0.010 min)
Fit to the potential            ...        0.002 sec (=   0.000 min)
------------------------------------------------------------------------------


Timings for individual modules:

Sum of individual times         ...       38.373 sec (=   0.640 min)
GTO integral calculation        ...        4.806 sec (=   0.080 min)  12.5 %
SCF iterations                  ...       32.895 sec (=   0.548 min)  85.7 %
CHELPG charge generation        ...        0.672 sec (=   0.011 min)   1.8 %
                             ****ORCA TERMINATED NORMALLY****
TOTAL RUN TIME: 0 days 0 hours 0 minutes 40 seconds 408 msec
