LAMMPS data file via vdw_self_gen.py, on 2021-08-05 13:23:57.085553

4000 atoms
5 atom types
3500 bonds
4 bond types
6000 angles
6 angle types
4500 dihedrals
2 dihedral types

-31.7293404054295110  31.7293404054295145 xlo xhi
-31.7293404054295110  31.7293404054295145 ylo yhi
-31.7293404054295110  31.7293404054295145 zlo zhi

Masses

1  35.452700
2  1.007940
3  1.007940
4  12.011000
5  12.011000

Atoms

1         0    4   -0.0149610000000000   24.6775945863304251  10.8508250489852784  25.4190203501689815 0 0 0
2         0    5   -0.0526270000000000   24.5406966442193770  10.3861995508448732  23.9841719532909217 0 0 0
3         0    1   -0.1873450000000000   25.9926539866843740  9.4965849524902488   23.4771604207235427 0 0 0
4         0    3    0.0285690000000000   23.7804289956471564  11.3979506518518274  25.7253725086106364 0 0 0
5         0    3    0.0285690000000000   25.5369004917191447  11.5187614963381630  25.5390570893852633 0 0 0
6         0    3    0.0285690000000000   24.8038504607199997  10.0026617737988026  26.0999325799072039 0 0 0
7         0    2    0.0846130000000000   24.4144588498908526  11.2383630394334091  23.3103317081291408 0 0 0
8         0    2    0.0846130000000000   23.6804229519056371  9.7202279007361234   23.8719603569012762 0 0 0
9         1    4   -0.0149610000000000  -16.9651332053090087 -3.0954334764632354   17.6442634070390199 0 0 0
10        1    5   -0.0526270000000000  -18.2783238406900637 -3.8440577264227915   17.7364583614562079 0 0 0
11        1    1   -0.1873450000000000  -18.4154161636733917 -5.0246011019825172   16.4157850538206382 0 0 0
12        1    3    0.0285690000000000  -16.8866218665359042 -2.3699983859101219   18.4601580488146944 0 0 0
13        1    3    0.0285690000000000  -16.8860344760224450 -2.5488706948263147   16.6987650874981739 0 0 0
14        1    3    0.0285690000000000  -16.1130862681215739 -3.7791737337169580   17.7182784679396903 0 0 0
15        1    2    0.0846130000000000  -19.1243303721385374 -3.1548842704834592   17.6623492231859203 0 0 0
16        1    2    0.0846130000000000  -18.3503444983069208 -4.3868387483541760   18.6832330410434686 0 0 0
17        2    4   -0.0149610000000000  -16.9272470758621552  3.1919372114540843   17.4778921680391015 0 0 0
18        2    5   -0.0526270000000000  -18.3305929910326206  3.7269573492658914   17.6722668490296861 0 0 0
19        2    1   -0.1873450000000000  -18.3178793370089181  5.1208749201615316   18.7738507635136216 0 0 0
20        2    3    0.0285690000000000  -16.9416573114375666  2.3337534467376693   16.7986152447686088 0 0 0
21        2    3    0.0285690000000000  -16.4936004454457041  2.8624276981234180   18.4278019722063426 0 0 0
22        2    3    0.0285690000000000  -16.2693412879912778  3.9528941235331323   17.0453791577779938 0 0 0
23        2    2    0.0846130000000000  -18.9817660106360186  2.9615418005324226   18.1038824236995985 0 0 0
24        2    2    0.0846130000000000  -18.7572062313835843  4.0534715883514254   16.7196021117628710 0 0 0
25        3    4   -0.0149610000000000   16.9585683515540602 -10.1572877019370651 -24.7065359188137776 0 0 0
26        3    5   -0.0526270000000000   18.2381874492240286 -10.9612490667435925 -24.8046629328145620 0 0 0
27        3    1   -0.1873450000000000   18.8651788206865838 -11.3328342186722182 -23.1843354205264838 0 0 0
28        3    3    0.0285690000000000   16.5774071418614675 -9.9316104070605711  -25.7074805017967272 0 0 0
29        3    3    0.0285690000000000   17.1259424072853861 -9.2076354306143564  -24.1877864180528910 0 0 0
30        3    3    0.0285690000000000   16.1828372251691519 -10.7111808588051307 -24.1676421054030648 0 0 0
31        3    2    0.0846130000000000   19.0077705638419978 -10.4021060664202327 -25.3443667431441675 0 0 0
32        3    2    0.0846130000000000   18.0633987311751412 -11.9076706642255257 -25.3241969265652855 0 0 0
33        4    4   -0.0149610000000000   10.0619236225290543 -10.9309507240290475 -18.1105584616952200 0 0 0
34        4    5   -0.0526270000000000   10.9289061041589672 -10.2101597185327151 -17.0995146817121686 0 0 0
35        4    1   -0.1873450000000000   12.6422526611199544 -10.3241562947666701 -17.5556980970802208 0 0 0
36        4    3    0.0285690000000000   9.0080550540311943  -10.8571900089628421 -17.8241591519104432 0 0 0
37        4    3    0.0285690000000000   10.3214318947993462 -11.9930864566610325 -18.1695304685256254 0 0 0
38        4    3    0.0285690000000000   10.1710400848884408 -10.4945830199095820 -19.1088769360528197 0 0 0
39        4    2    0.0846130000000000   10.8142800196862261 -10.6509822239171328 -16.1051728654814283 0 0 0
40        4    2    0.0846130000000000   10.6636849732655445 -9.1504659676996809  -17.0457800283399266 0 0 0
41        5    4   -0.0149610000000000  -10.1186920053003604 -3.6907707984060791   2.9034062868921078  0 0 0
42        5    5   -0.0526270000000000  -11.1067760672566749 -3.4513907505068584   4.0258121409732741  0 0 0
43        5    1   -0.1873450000000000  -10.3581104086026006 -2.4906286259479979   5.3192922620672167  0 0 0
44        5    3    0.0285690000000000  -10.5855826250213596 -4.2828801319848822   2.1099808942398366  0 0 0
45        5    3    0.0285690000000000  -9.2396057516056604  -4.2380652490711030   3.2592583605635825  0 0 0
46        5    3    0.0285690000000000  -9.7809865052177614  -2.7461726179611428   2.4644846258703685  0 0 0
47        5    2    0.0846130000000000  -11.4398560826919571 -4.3989226747534369   4.4587327155030625  0 0 0
48        5    2    0.0846130000000000  -11.9819649687823109 -2.9050272895280735   3.6628908520501291  0 0 0
49        6    4   -0.0149610000000000   2.9749040754300138  -10.2266724024529054  3.0801062442956635  0 0 0
50        6    5   -0.0526270000000000   3.9293316402459553  -10.8948166736318015  4.0476077060570033  0 0 0
51        6    1   -0.1873450000000000   5.4828370338971641  -11.2336043083258819  3.2548284917892536  0 0 0
52        6    3    0.0285690000000000   2.0201411217630154  -10.0206053719701416  3.5741388835545367  0 0 0
53        6    3    0.0285690000000000   2.7750749284722986  -10.8670023001670835  2.2146581004883625  0 0 0
54        6    3    0.0285690000000000   3.3789633385947431  -9.2756066501914596   2.7179281133626194  0 0 0
55        6    2    0.0846130000000000   3.5189538360454873  -11.8433998024742877  4.4053218006842547  0 0 0
56        6    2    0.0846130000000000   4.1236521637109007  -10.2498669052651366  4.9092687979278713  0 0 0
57        7    4   -0.0149610000000000  -10.2600513097434032  17.6792176223392765 -11.2982835416254481 0 0 0
58        7    5   -0.0526270000000000  -10.7511003372056280  17.6661082473105182 -9.8657658911182171  0 0 0
59        7    1   -0.1873450000000000  -12.2460010367456054  16.7156885982827461 -9.7292765459047352  0 0 0
60        7    3    0.0285690000000000  -9.3393051149498039   18.2659987532248778 -11.3758626406774788 0 0 0
61        7    3    0.0285690000000000  -11.0021406059925084  18.1268004909055236 -11.9675574822943780 0 0 0
62        7    3    0.0285690000000000  -10.0445625873310984  16.6658421423342595 -11.6526811979914537 0 0 0
63        7    2    0.0846130000000000  -10.9636393201900617  18.6812771591458677 -9.5187233445119457  0 0 0
64        7    2    0.0846130000000000  -10.0047741023205958  17.2183576772547369 -9.2034237703550446  0 0 0
65        8    4   -0.0149610000000000  -17.7551081642708510  17.8023528266229540  18.3869686236793193 0 0 0
66        8    5   -0.0526270000000000  -17.5361624583705336  17.6137734615534463  16.9003925499320680 0 0 0
67        8    1   -0.1873450000000000  -17.1504893179154614  15.9175836100051598  16.5386589900622099 0 0 0
68        8    3    0.0285690000000000  -17.9922252950026582  18.8487983454384782  18.6033742841053460 0 0 0
69        8    3    0.0285690000000000  -16.8589250916623463  17.5352665129291694  18.9565960079468354 0 0 0
70        8    3    0.0285690000000000  -18.5866859066440426  17.1872587189811128  18.7462744111832151 0 0 0
71        8    2    0.0846130000000000  -16.7048065225509887  18.2313654306577142  16.5488150539578314 0 0 0
72        8    2    0.0846130000000000  -18.4348879343809635  17.8828917846097717  16.3382107699309955 0 0 0
73        9    4   -0.0149610000000000   10.6223470171146595 -18.0424904151352656  18.2978148015892366 0 0 0
74        9    5   -0.0526270000000000   10.4117734434917608 -17.1788143418529309  17.0717926840761471 0 0 0
75        9    1   -0.1873450000000000   11.6560265021911675 -17.5190566609522484  15.8500216571193402 0 0 0
76        9    3    0.0285690000000000   9.8530853079392138  -17.8283695197354035  19.0464754939924354 0 0 0
77        9    3    0.0285690000000000   11.5991068770451271 -17.8513352877707980  18.7542733964375472 0 0 0
78        9    3    0.0285690000000000   10.5621902256497631 -19.1068632377239993  18.0479056045293014 0 0 0
79        9    2    0.0846130000000000   10.4726777379781684 -16.1175738986059756  17.3291614011536304 0 0 0
80        9    2    0.0846130000000000   9.4343673030688731  -17.3747873290212311  16.6218456519001769 0 0 0
81        10   4   -0.0149610000000000   4.1922669349614354  -3.3150355164662662   25.0457294466491938 0 0 0
82        10   5   -0.0526270000000000   2.9001335483763899  -3.8285195748728862   24.4456184109778611 0 0 0
83        10   1   -0.1873450000000000   2.4475936047706015  -2.8632696833688525   23.0242967730321340 0 0 0
84        10   3    0.0285690000000000   4.4656529880143667  -3.9134403965994742   25.9205298997977422 0 0 0
85        10   3    0.0285690000000000   4.0931654858535911  -2.2732254653996753   25.3678556265560111 0 0 0
86        10   3    0.0285690000000000   5.0151015634909974  -3.3753603853876002   24.3258217886247472 0 0 0
87        10   2    0.0846130000000000   2.0833849406964866  -3.7656954854078410   25.1702935889961346 0 0 0
88        10   2    0.0846130000000000   3.0065590719957096  -4.8693116306569708   24.1268614324831319 0 0 0
89        11   4   -0.0149610000000000   10.9931429230699624  24.8473465066526309 -11.2257938156570045 0 0 0
90        11   5   -0.0526270000000000   10.2966313770340481  24.4144493928323953 -9.9526561258587787  0 0 0
91        11   1   -0.1873450000000000   8.8500186585632470   25.4056238974613997 -9.6671045609322910  0 0 0
92        11   3    0.0285690000000000   11.8831090467826357  24.2333108705070401 -11.3961601961055106 0 0 0
93        11   3    0.0285690000000000   11.3117018245286260  25.8933167449666541 -11.1673041382535558 0 0 0
94        11   3    0.0285690000000000   10.3359302512306552  24.7363309520952193 -12.0945342846235135 0 0 0
95        11   2    0.0846130000000000   10.9590606253423957  24.5275846383824394 -9.0897730658790614  0 0 0
96        11   2    0.0846130000000000   9.9819797079271435   23.3690439642191983 -10.0182482271689857 0 0 0
97        12   4   -0.0149610000000000   18.4147735676151356  10.6063530327162976 -17.6822256752160136 0 0 0
98        12   5   -0.0526270000000000   16.9035945040774749  10.5178927321096847 -17.7260484460323298 0 0 0
99        12   1   -0.1873450000000000   16.2159627970263145  10.8174715507708896 -16.1154367240560283 0 0 0
100       12   3    0.0285690000000000   18.8322932003939272  10.4209651603206375 -18.6769180198195492 0 0 0
101       12   3    0.0285690000000000   18.8355472831881592  9.8636095129057733  -16.9964880434920822 0 0 0
102       12   3    0.0285690000000000   18.7444527795928444  11.5989497756687800 -17.3581480998272184 0 0 0
103       12   2    0.0846130000000000   16.5819416687299572  9.5243311003117004  -18.0509392051065483 0 0 0
104       12   2    0.0846130000000000   16.4907248901740040  11.2620015496749666 -18.4130864772480614 0 0 0
105       13   4   -0.0149610000000000  -4.1382915457067488   24.6111568998927410  4.0192278250378193  0 0 0
106       13   5   -0.0526270000000000  -2.9369963688944019   24.8758319632256857  3.1359131409545724  0 0 0
107       13   1   -0.1873450000000000  -2.6653599539828159   23.5119444970098570  2.0301647112955687  0 0 0
108       13   3    0.0285690000000000  -4.3004019914231408   25.4545403579669554  4.6978504841322675  0 0 0
109       13   3    0.0285690000000000  -3.9926071811107473   23.7124656372303768  4.6275736443105266  0 0 0
110       13   3    0.0285690000000000  -5.0471724423603854   24.4789670345357280  3.4230530964598822  0 0 0
111       13   2    0.0846130000000000  -2.0335236787094630   25.0072842110545110  3.7381063596400139  0 0 0
112       13   2    0.0846130000000000  -3.0895049759718756   25.7748163662010974  2.5319688763289170  0 0 0
113       14   4   -0.0149610000000000   10.7907767920185300 -2.7932697094510237   24.8827424608328727 0 0 0
114       14   5   -0.0526270000000000   10.3080669051918896 -4.1347896884002013   24.3721319112552131 0 0 0
115       14   1   -0.1873450000000000   10.8690704235634819 -5.4433930633037901   25.4349052698155553 0 0 0
116       14   3    0.0285690000000000   10.4421206463674370 -1.9915318805518445   24.2241382449248945 0 0 0
117       14   3    0.0285690000000000   11.8844865657215610 -2.7514776240114962   24.9144742745389465 0 0 0
118       14   3    0.0285690000000000   10.4098266119280947 -2.5919272393591806   25.8893710526314464 0 0 0
119       14   2    0.0846130000000000   10.6919337738262410 -4.3286171471336035   23.3665194553827718 0 0 0
120       14   2    0.0846130000000000   9.2152926958614945  -4.1688517859484415   24.3427242977352805 0 0 0
121       15   4   -0.0149610000000000   4.2875065506547827  -17.8284350451188018  3.4730729392817405  0 0 0
122       15   5   -0.0526270000000000   2.8737582281034633  -17.3022236150701119  3.6065833638538844  0 0 0
123       15   1   -0.1873450000000000   1.6965285153636833  -18.5987966659401849  3.3071113629922144  0 0 0
124       15   3    0.0285690000000000   5.0077885777590163  -17.0253950764393949  3.6586120929232435  0 0 0
125       15   3    0.0285690000000000   4.4713063741871890  -18.2200428229733511  2.4671825234345297  0 0 0
126       15   3    0.0285690000000000   4.4822330244992150  -18.6289106972984833  4.1943795886699347  0 0 0
127       15   2    0.0846130000000000   2.6868974936880385  -16.5030356050300107  2.8836996536059201  0 0 0
128       15   2    0.0846130000000000   2.6978393739041815  -16.9124511629275247  4.6132166133981052  0 0 0
129       16   4   -0.0149610000000000  -25.4658399948093610 -3.4851251395327050  -17.6733442591365169 0 0 0
130       16   5   -0.0526270000000000  -23.9701891300638366 -3.5234985406030677  -17.4389006732224487 0 0 0
131       16   1   -0.1873450000000000  -23.1175858664369258 -3.9686051156670263  -18.9327556741470957 0 0 0
132       16   3    0.0285690000000000  -25.9852953574815579 -3.2104661646991310  -16.7498548216579515 0 0 0
133       16   3    0.0285690000000000  -25.8420188531715027 -4.4623107243885416  -17.9935822249858361 0 0 0
134       16   3    0.0285690000000000  -25.7281546785158213 -2.7480209897560299  -18.4393934944301634 0 0 0
135       16   2    0.0846130000000000  -23.7159699776294204 -4.2612119142656857  -16.6725255243202675 0 0 0
136       16   2    0.0846130000000000  -23.6019531090085408 -2.5446195492473898  -17.1189340188975834 0 0 0
137       17   4   -0.0149610000000000  -24.6657447217015147  10.6083919909163136  11.3655337656983342 0 0 0
138       17   5   -0.0526270000000000  -24.6362128504455065  10.6894729399978790  9.8535940941584474  0 0 0
139       17   1   -0.1873450000000000  -25.2111185122634396  9.1684006553273392   9.1377187300643659  0 0 0
140       17   3    0.0285690000000000  -24.3106291394359708  11.5479720861866841  11.8004893211335258 0 0 0
141       17   3    0.0285690000000000  -24.0210745782070276  9.8027057582892887   11.7319005984521620 0 0 0
142       17   3    0.0285690000000000  -25.6815934036720783  10.4297447058199726  11.7330926788896281 0 0 0
143       17   2    0.0846130000000000  -23.6189427330373860  10.8685018947318124  9.4940257284818532  0 0 0
144       17   2    0.0846130000000000  -25.2816910283540466  11.4963843832094188  9.4952194976004112  0 0 0
145       18   4   -0.0149610000000000   25.3315228422284520  10.5341072767860755  17.1853200832499908 0 0 0
146       18   5   -0.0526270000000000   24.1156825060599651  10.4775819122808276  18.0863999810466538 0 0 0
147       18   1   -0.1873450000000000   23.1495230043084455  11.9594359659058487  17.9211748829823563 0 0 0
148       18   3    0.0285690000000000   25.9224010481650744  9.6188573838695497   17.2915497714987083 0 0 0
149       18   3    0.0285690000000000   25.9752126634877172  11.3822032590002493  17.4409588409910512 0 0 0
150       18   3    0.0285690000000000   25.0414096561652642  10.6276150627026826  16.1336292612660657 0 0 0
151       18   2    0.0846130000000000   24.4131559416409587  10.3836882696293813  19.1346713233017383 0 0 0
152       18   2    0.0846130000000000   23.4780993050610896  9.6280852843041274   17.8255865464612491 0 0 0
153       19   4   -0.0149610000000000   4.0387247716356871   10.2194461862243582  11.0591174657201208 0 0 0
154       19   5   -0.0526270000000000   3.0036620511456129   10.9789189847559037  10.2558403933208488 0 0 0
155       19   1   -0.1873450000000000   3.0797512771554802   10.5117586429728949  8.5433490511966301  0 0 0
156       19   3    0.0285690000000000   3.9869017132383560   10.5114465546740519  12.1127560768404621 0 0 0
157       19   3    0.0285690000000000   5.0516006569075316   10.4303118008127527  10.7005471251744506 0 0 0
158       19   3    0.0285690000000000   3.8713683627240032   9.1389349006979295   11.0003795218831719 0 0 0
159       19   2    0.0846130000000000   3.1768335387151487   12.0569338951795419  10.3196742150555973 0 0 0
160       19   2    0.0846130000000000   1.9950157666377659   10.7638234491612863  10.6199105652874248 0 0 0
161       20   4   -0.0149610000000000  -23.9919806818151145 -3.8239276430485285   17.8796617668892530 0 0 0
162       20   5   -0.0526270000000000  -25.3010272293417806 -3.3521642823719522   17.2819626034034250 0 0 0
163       20   1   -0.1873450000000000  -25.9880221019819793 -2.0319979848561402   18.2524542025270229 0 0 0
164       20   3    0.0285690000000000  -23.5739074621124622 -4.6368685567995191   17.2776268666407944 0 0 0
165       20   3    0.0285690000000000  -24.1336906108739768 -4.1980684211626746   18.8989220524190458 0 0 0
166       20   3    0.0285690000000000  -23.2555457340796821 -3.0141747570390458   17.9101048802846634 0 0 0
167       20   2    0.0846130000000000  -26.0310787397856487 -4.1660695166951953   17.2543522857694427 0 0 0
168       20   2    0.0846130000000000  -25.1517544071263295 -2.9805869761865091   16.2642060328641875 0 0 0
169       21   4   -0.0149610000000000   24.2824478859621244  18.3106835083873953 -24.6931558331967977 0 0 0
170       21   5   -0.0526270000000000   24.9136373092025387  16.9364105539866685 -24.6132710355683741 0 0 0
171       21   1   -0.1873450000000000   26.6091178988395356  16.9989823985674562 -25.1406089599868103 0 0 0
172       21   3    0.0285690000000000   23.2385097701744279  18.2656239971977286 -24.3671696091673304 0 0 0
173       21   3    0.0285690000000000   24.2989670012791059  18.6954367457951065 -25.7181663797929936 0 0 0
174       21   3    0.0285690000000000   24.8058375534325641  19.0252408336839842 -24.0493903194807039 0 0 0
175       21   2    0.0846130000000000   24.3854698132486867  16.2283331178884112 -25.2581312597304439 0 0 0
176       21   2    0.0846130000000000   24.8930197349779974  16.5585795352910665 -23.5871135701935302 0 0 0
177       22   4   -0.0149610000000000   24.7058619546471618  11.1797871206870987 -11.0854293677513276 0 0 0
178       22   5   -0.0526270000000000   24.7671201307654520  10.0907330213145983 -10.0348978705564011 0 0 0
179       22   1   -0.1873450000000000   23.5475462311456525  8.8409778249199196  -10.3626270339682911 0 0 0
180       22   3    0.0285690000000000   25.4591875252240243  11.9463668556144960 -10.8781607929173862 0 0 0
181       22   3    0.0285690000000000   23.7247069304551168  11.6657735890625656 -11.0957505381624895 0 0 0
182       22   3    0.0285690000000000   24.9006894892416355  10.7776080535293008 -12.0850578895052347 0 0 0
183       22   2    0.0846130000000000   24.5721658415478750  10.4998427557273963 -9.0395078372908682  0 0 0
184       22   2    0.0846130000000000   25.7497288640900273  9.6104851936233437  -10.0301430843266957 0 0 0
185       23   4   -0.0149610000000000   24.8605221596548951  3.9530399902284681   9.9378112244707886  0 0 0
186       23   5   -0.0526270000000000   24.6073498751272304  3.0277081522020275   11.1095930326508157 0 0 0
187       23   1   -0.1873450000000000   23.4372102848845607  3.7524653291821455   12.2330498969150945 0 0 0
188       23   3    0.0285690000000000   25.5818493366944431  3.5012048104528155   9.2495988725173603  0 0 0
189       23   3    0.0285690000000000   25.2688757324937932  4.9126232435574186   10.2715804486067821 0 0 0
190       23   3    0.0285690000000000   23.9386421977412915  4.1472954358249394   9.3798102303155222  0 0 0
191       23   2    0.0846130000000000   25.5322881884848591  2.8379389117205167   11.6615495706592132 0 0 0
192       23   2    0.0846130000000000   24.2002691920358934  2.0715822649912572   10.7685811383431620 0 0 0
193       24   4   -0.0149610000000000  -3.9592717886597648   10.4019780606120733  25.3149491872427959 0 0 0
194       24   5   -0.0526270000000000  -3.1466507313355390   10.8829359825490162  24.1310005749207264 0 0 0
195       24   1   -0.1873450000000000  -2.5586068638598656   9.5032554833946907   23.1784560445823686 0 0 0
196       24   3    0.0285690000000000  -4.3185686944992305   11.2561228078097244  25.8975696912493554 0 0 0
197       24   3    0.0285690000000000  -3.3583951947894861   9.7708250692837026   25.9779331809983880 0 0 0
198       24   3    0.0285690000000000  -4.8314285168165068   9.8256381757709264   24.9891610191454951 0 0 0
199       24   2    0.0846130000000000  -2.2779622791136385   11.4579653224902849  24.4640184410826294 0 0 0
200       24   2    0.0846130000000000  -3.7529740690855298   11.5128535125682916  23.4739188278952042 0 0 0
201       25   4   -0.0149610000000000  -10.0742993648227230  25.0972729584748677 -17.1844537095325691 0 0 0
202       25   5   -0.0526270000000000  -11.1355485586535927  24.4088906873958145 -18.0170927787320494 0 0 0
203       25   1   -0.1873450000000000  -10.5518778707643701  22.8308110229591321 -18.5877485882094646 0 0 0
204       25   3    0.0285690000000000  -10.4396545919355681  26.0684529378615082 -16.8359868200582667 0 0 0
205       25   3    0.0285690000000000  -9.1632810373847438   25.2693624704015427 -17.7670216132630756 0 0 0
206       25   3    0.0285690000000000  -9.8119988014953829   24.5005871229353325 -16.3046086209262739 0 0 0
207       25   2    0.0846130000000000  -11.3926621344537828  25.0107181721880778 -18.8933778668671017 0 0 0
208       25   2    0.0846130000000000  -12.0422520549685199  24.2409115949006804 -17.4290006932090549 0 0 0
209       26   4   -0.0149610000000000   17.9347787331571453  10.7140437724157884  9.8620025179951281  0 0 0
210       26   5   -0.0526270000000000   17.4522765100965103  10.5432894685355709  11.2872892942433065 0 0 0
211       26   1   -0.1873450000000000   16.0573357295061925  9.4444094346019991   11.3443668009182641 0 0 0
212       26   3    0.0285690000000000   18.7938439921925102  11.3917562905556196  9.8334229645507136  0 0 0
213       26   3    0.0285690000000000   17.1503861320584718  11.1374515558653329  9.2260711917058700  0 0 0
214       26   3    0.0285690000000000   18.2465416284596813  9.7566361801130324   9.4317263844325119  0 0 0
215       26   2    0.0846130000000000   17.1432496275414294  11.5033282571507467  11.7103816933863207 0 0 0
216       26   2    0.0846130000000000   18.2408783377858548  10.1206594552406308  11.9163135672466058 0 0 0
217       27   4   -0.0149610000000000  -24.7389893608884961 -10.6979180431648118 -2.7474019243943166  0 0 0
218       27   5   -0.0526270000000000  -24.7671998709082928 -10.5116266199928479 -4.2500354442111039  0 0 0
219       27   1   -0.1873450000000000  -23.1985334619321115 -9.9142681292669330  -4.8323613692800720  0 0 0
220       27   3    0.0285690000000000  -25.7077074493832249 -11.0658947573020665 -2.3948645926464813  0 0 0
221       27   3    0.0285690000000000  -24.5307003771335097 -9.7530684006540014  -2.2347330177952092  0 0 0
222       27   3    0.0285690000000000  -23.9749386749609990 -11.4246691895287409 -2.4524065474942605  0 0 0
223       27   2    0.0846130000000000  -25.5327221840261238 -9.7851415498790324  -4.5370446758055758  0 0 0
224       27   2    0.0846130000000000  -24.9762155878841909 -11.4589877246902425 -4.7550105665325582  0 0 0
225       28   4   -0.0149610000000000  -11.2571721032648515 -17.9911618088729668 -10.7441874805783506 0 0 0
226       28   5   -0.0526270000000000  -10.0231588626495576 -17.2322473975609789 -10.3029754449434190 0 0 0
227       28   1   -0.1873450000000000  -8.6684173172497019  -17.5518403891476211 -11.4071450954031253 0 0 0
228       28   3    0.0285690000000000  -12.0879015810913533 -17.7902757291168143 -10.0603472323987564 0 0 0
229       28   3    0.0285690000000000  -11.0778260450720918 -19.0713347012748962 -10.7481961500316210 0 0 0
230       28   3    0.0285690000000000  -11.5686637260704845 -17.6907843963863662 -11.7500251070319148 0 0 0
231       28   2    0.0846130000000000  -9.7184685651289033  -17.5370255961824277 -9.2977623629345150  0 0 0
232       28   2    0.0846130000000000  -10.2099662139517324 -16.1546206722557883 -10.3009355411570063 0 0 0
233       29   4   -0.0149610000000000   3.1883200818950517  -24.6401891519252878  25.3916091517056408 0 0 0
234       29   5   -0.0526270000000000   3.9350662863192087  -24.8101769100773311  24.0851321751168612 0 0 0
235       29   1   -0.1873450000000000   3.1847356432357765  -23.8295645958267990  22.8076117771230713 0 0 0
236       29   3    0.0285690000000000   3.6551115146644682  -25.2464691674168122  26.1743188478949023 0 0 0
237       29   3    0.0285690000000000   2.1450186646726475  -24.9585586037798173  25.2961230247154525 0 0 0
238       29   3    0.0285690000000000   3.2002134634518633  -23.5963197177938220  25.7219999865681856 0 0 0
239       29   2    0.0846130000000000   3.9193898048921643  -25.8548980822407550  23.7618812070385701 0 0 0
240       29   2    0.0846130000000000   4.9760026790283760  -24.4908307380563279  24.1883307969542614 0 0 0
241       30   4   -0.0149610000000000   2.9723010798620710  -24.5750423732967249  17.0731992471737044 0 0 0
242       30   5   -0.0526270000000000   4.1062572036525058  -24.8608722047657977  18.0354116139932827 0 0 0
243       30   1   -0.1873450000000000   3.8318652657864369  -24.0335294274210121  19.5835937561553450 0 0 0
244       30   3    0.0285690000000000   3.1470263280985522  -25.0872316097460910  16.1217595795677511 0 0 0
245       30   3    0.0285690000000000   2.8874200405306087  -23.5028377082583830  16.8679508100735660 0 0 0
246       30   3    0.0285690000000000   2.0151212142749673  -24.9251527364371697  17.4734396628444522 0 0 0
247       30   2    0.0846130000000000   5.0586683036915181  -24.5090574396424756  17.6288175466931030 0 0 0
248       30   2    0.0846130000000000   4.1851987022629098  -25.9332834675492947  18.2351184742966375 0 0 0
249       31   4   -0.0149610000000000  -10.8975517001776137  11.2979520278531407 -24.6657215968272254 0 0 0
250       31   5   -0.0526270000000000  -10.2567866648693613  9.9314813578914638  -24.5408780957512676 0 0 0
251       31   1   -0.1873450000000000  -10.2329761109260744  9.1093582590393503  -26.1157436836522479 0 0 0
252       31   3    0.0285690000000000  -10.9092551872896468  11.7991926249470751 -23.6927236216934887 0 0 0
253       31   3    0.0285690000000000  -11.9317075453846471  11.2201613138535379 -25.0170403241099848 0 0 0
254       31   3    0.0285690000000000  -10.3438514631925358  11.9329357532657401 -25.3651318253939628 0 0 0
255       31   2    0.0846130000000000  -10.8147172412272177  9.3033805824594928  -23.8406051804769810 0 0 0
256       31   2    0.0846130000000000  -9.2247285014116027   10.0171124951689094 -24.1891626392118333 0 0 0
257       32   4   -0.0149610000000000  -24.5451334412378479 -16.8586878883313602  24.5552946252716922 0 0 0
258       32   5   -0.0526270000000000  -24.9065501168680967 -18.2902782678604332  24.8919469591655620 0 0 0
259       32   1   -0.1873450000000000  -23.9146898542549096 -19.4210909457115548  23.9463620295267354 0 0 0
260       32   3    0.0285690000000000  -25.1592537852746219 -16.1671499208937952  25.1407308814366885 0 0 0
261       32   3    0.0285690000000000  -24.7157837791360215 -16.6457095072484691  23.4948828058040995 0 0 0
262       32   3    0.0285690000000000  -23.4943206057003664 -16.6512330239672863  24.7827101386416793 0 0 0
263       32   2    0.0846130000000000  -25.9571889377960403 -18.4898053539192411  24.6627608385386417 0 0 0
264       32   2    0.0846130000000000  -24.7340864468490480 -18.4953357828657197  25.9523186887318431 0 0 0
265       33   4   -0.0149610000000000   17.8818609551160037 -11.3234506161492643  3.4926345810856212  0 0 0
266       33   5   -0.0526270000000000   17.5348390039056916 -9.8531749764673737   3.5988095820801993  0 0 0
267       33   1   -0.1873450000000000   15.8304857879319698 -9.5841225648961164   3.1751990686038223  0 0 0
268       33   3    0.0285690000000000   18.9326061015201859 -11.4827065108971489  3.7546963384942802  0 0 0
269       33   3    0.0285690000000000   17.7288617380652838 -11.6942168298524241  2.4737733491908598  0 0 0
270       33   3    0.0285690000000000   17.2701033469668204 -11.9251892679907172  4.1728008663068135  0 0 0
271       33   2    0.0846130000000000   18.1499533938784445 -9.2587156677127389   2.9173173330535453  0 0 0