
                                 *****************
                                 * O   R   C   A *
                                 *****************

           --- An Ab Initio, DFT and Semiempirical electronic structure package ---

                  #######################################################
                  #                        -***-                        #
                  #          Department of theory and spectroscopy      #
                  #               Directorship: Frank Neese             #
                  #        Max Planck Institute fuer Kohlenforschung    #
                  #                Kaiser Wilhelm Platz 1               #
                  #                 D-45470 Muelheim/Ruhr               #
                  #                      Germany                        #
                  #                                                     #
                  #                  All rights reserved                #
                  #                        -***-                        #
                  #######################################################


                         Program Version 4.1.2  - RELEASE  -


 With contributions from (in alphabetic order):
   Daniel Aravena         : Magnetic Properties
   Michael Atanasov       : Ab Initio Ligand Field Theory
   Alexander A. Auer      : GIAO ZORA
   Ute Becker             : Parallelization
   Giovanni Bistoni       : ED, Open-shell LED
   Martin Brehm           : Molecular dynamics
   Dmytro Bykov           : SCF Hessian
   Vijay G. Chilkuri      : MRCI spin determinant printing
   Dipayan Datta          : RHF DLPNO-CCSD density
   Achintya Kumar Dutta   : EOM-CC, STEOM-CC
   Dmitry Ganyushin       : Spin-Orbit,Spin-Spin,Magnetic field MRCI
   Miquel Garcia          : C-PCM Hessian
   Yang Guo               : DLPNO-NEVPT2, CIM, IAO-localization
   Andreas Hansen         : Spin unrestricted coupled pair/coupled cluster methods
   Benjamin Helmich-Paris : CASSCF linear response (MC-RPA)
   Lee Huntington         : MR-EOM, pCC
   Robert Izsak           : Overlap fitted RIJCOSX, COSX-SCS-MP3, EOM
   Christian Kollmar      : KDIIS, OOCD, Brueckner-CCSD(T), CCSD density
   Simone Kossmann        : Meta GGA functionals, TD-DFT gradient, OOMP2, MP2 Hessian
   Martin Krupicka        : AUTO-CI
   Lucas Lang             : DCDCAS
   Dagmar Lenk            : GEPOL surface, SMD
   Dimitrios Liakos       : Extrapolation schemes; parallel MDCI
   Dimitrios Manganas     : ROCIS; embedding schemes
   Dimitrios Pantazis     : SARC Basis sets
   Taras Petrenko         : DFT Hessian,TD-DFT gradient, ASA, ECA, R-Raman, ABS, FL, XAS/XES, NRVS
   Peter Pinski           : DLPNO-MP2, DLPNO-MP2 Gradient
   Christoph Reimann      : Effective Core Potentials
   Marius Retegan         : Local ZFS, SOC
   Christoph Riplinger    : Optimizer, TS searches, QM/MM, DLPNO-CCSD(T), (RO)-DLPNO pert. Triples
   Tobias Risthaus        : Range-separated hybrids, TD-DFT gradient, RPA, STAB
   Michael Roemelt        : Restricted open shell CIS
   Masaaki Saitow         : Open-shell DLPNO
   Barbara Sandhoefer     : DKH picture change effects
   Avijit Sen             : IP-ROCIS
   Kantharuban Sivalingam : CASSCF convergence, NEVPT2, FIC-MRCI
   Bernardo de Souza      : ESD, SOC TD-DFT
   Georgi Stoychev        : AutoAux, RI-MP2 NMR
   Willem Van den Heuvel  : Paramagnetic NMR
   Boris Wezisla          : Elementary symmetry handling
   Frank Wennmohs         : Technical directorship


 We gratefully acknowledge several colleagues who have allowed us to
 interface, adapt or use parts of their codes:
   Stefan Grimme, W. Hujo, H. Kruse,             : VdW corrections, initial TS optimization,
                  C. Bannwarth                     DFT functionals, gCP, sTDA/sTD-DF
   Ed Valeev                                     : LibInt (2-el integral package), F12 methods
   Garnet Chan, S. Sharma, J. Yang, R. Olivares  : DMRG
   Ulf Ekstrom                                   : XCFun DFT Library
   Mihaly Kallay                                 : mrcc  (arbitrary order and MRCC methods)
   Andreas Klamt, Michael Diedenhofen            : otool_cosmo (COSMO solvation model)
   Jiri Pittner, Ondrej Demel                    : Mk-CCSD
   Frank Weinhold                                : gennbo (NPA and NBO analysis)
   Christopher J. Cramer and Donald G. Truhlar   : smd solvation model
   Lars Goerigk                                  : TD-DFT with DH, B97 family of functionals
   V. Asgeirsson, H. Jonsson                     : NEB implementation
   FAccTs GmbH                                   : IRC, NEB, NEB-TS, Multilevel


 Your calculation uses the libint2 library for the computation of 2-el integrals
 For citations please refer to: http://libint.valeyev.net

 This ORCA versions uses:
   CBLAS   interface :  Fast vector & matrix operations
   LAPACKE interface :  Fast linear algebra routines
   SCALAPACK package :  Parallel linear algebra routines


Your calculation utilizes the atom-pairwise dispersion correction
with the zero-damping scheme (D30)
Cite in your paper:
S.Grimme, J.Antony, S.Ehrlich and H.Krieg, J.Chem.Phys., 132, (2010), 154104 
   

XCFun DFT library Copyright 2009-2010 Ulf Ekstrom and contributors.
See http://admol.org/xcfun for more information. This is free soft-
ware; see the source code for copying conditions. There is ABSOLUTELY
NO WARRANTY; not even for MERCHANTABILITY or FITNESS FOR A PARTICULAR
PURPOSE. For details see the documentation. Scientific users of this 
library should cite U. Ekstrom, L. Visscher, R. Bast, A. J. Thorvald-
sen and K. Ruud; J.Chem.Theor.Comp. 2010, DOI: 10.1021/ct100117s
XCFun Version 0.99 
----- Orbital basis set information -----
Your calculation utilizes the basis: def2-TZVP
   F. Weigend and R. Ahlrichs, Phys. Chem. Chem. Phys. 7, 3297 (2005).

================================================================================
                                        WARNINGS
                       Please study these warnings very carefully!
================================================================================


WARNING: Geometry Optimization
  ===> : Switching off AutoStart
         For restart on a previous wavefunction, please use MOREAD

INFO   : the flag for use of LIBINT has been found!

================================================================================
                                       INPUT FILE
================================================================================
NAME = bonds_angles_[1[6[8][1][1]]]-[6[8[1]][1][1][1]]-[1[6[8][1][1]]]_1.in
|  1> #Run DFT geometry optimization
|  2> ! wB97X-D3 def2-TZVP TIGHTSCF Grid5 FinalGrid6 Opt CHELPG PAL4
|  3> 
|  4> %base "1_geo_opt"
|  5> %geom MaxIter 500
|  6> end
|  7> 
|  8> %geom
|  9>   Constraints
| 10>     { A 5 0 4 C }
| 11>   end
| 12> end
| 13> 
| 14> 
| 15> * xyz 0 1
| 16>   C                    3.011308             -1.180897            0.598492            
| 17>   O                    4.394673             -1.128050            0.874308            
| 18>   H                    4.772196             -0.379022            0.412493            
| 19>   H                    2.806434             -1.318965            -0.469350           
| 20>   H                    2.614017             -2.042547            1.134010            
| 21>   H                    2.486843             -0.282349            0.943271            
| 22> *
| 23> 
| 24>                          ****END OF INPUT****
================================================================================

                       *****************************
                       * Geometry Optimization Run *
                       *****************************

Geometry optimization settings:
Update method            Update   .... BFGS
Choice of coordinates    CoordSys .... Z-matrix Internals
Initial Hessian          InHess   .... Almoef's Model

Convergence Tolerances:
Energy Change            TolE     ....  5.0000e-06 Eh
Max. Gradient            TolMAXG  ....  3.0000e-04 Eh/bohr
RMS Gradient             TolRMSG  ....  1.0000e-04 Eh/bohr
Max. Displacement        TolMAXD  ....  4.0000e-03 bohr
RMS Displacement         TolRMSD  ....  2.0000e-03 bohr

------------------------------------------------------------------------------
                        ORCA OPTIMIZATION COORDINATE SETUP
------------------------------------------------------------------------------

The optimization will be done in new redundant internal coordinates
Making redundant internal coordinates   ...  (new redundants) done
Evaluating the initial hessian          ...  (Almloef) done
Evaluating the coordinates              ...  done
Calculating the B-matrix                .... done
Calculating the G-matrix                .... done
Diagonalizing the G-matrix              .... done
Imposing constraints:
 Iter   0:  RMS(Cart)=    0.0000000000 RMS(Int)=    0.0000000000
CONVERGED
The first mode is                       ....    3
The number of degrees of freedom        ....   12
Storing new coordinates                 .... done

    -----------------------------------------------------------------
                    Redundant Internal Coordinates


    -----------------------------------------------------------------
         Definition                    Initial Value    Approx d2E/dq
    -----------------------------------------------------------------
      1. B(O   1,C   0)                  1.4116         0.516942   
      2. B(H   2,O   1)                  0.9575         0.524720   
      3. B(H   3,C   0)                  1.0960         0.352187   
      4. B(H   4,C   0)                  1.0895         0.360732   
      5. B(H   5,C   0)                  1.0960         0.352185   
      6. A(O   1,C   0,H   4)          106.9134         0.340286   
      7. A(O   1,C   0,H   3)          112.2263         0.338926   
      8. A(O   1,C   0,H   5)          112.1346         0.338926   
      9. A(H   3,C   0,H   5)          108.6809         0.288819   
     10. A(H   4,C   0,H   5)          108.6173         0.289906 C 
     11. A(H   3,C   0,H   4)          108.1246         0.289907   
     12. A(C   0,O   1,H   2)          108.7499         0.359342   
     13. D(H   2,O   1,C   0,H   5)    -61.2395         0.021176   
     14. D(H   2,O   1,C   0,H   3)     61.4271         0.021176   
     15. D(H   2,O   1,C   0,H   4)    179.8192         0.021176   
    -----------------------------------------------------------------

Number of atoms                         .... 6
Number of degrees of freedom            .... 15

         *************************************************************
         *                GEOMETRY OPTIMIZATION CYCLE   1            *
         *************************************************************
---------------------------------
CARTESIAN COORDINATES (ANGSTROEM)
---------------------------------
  C      3.011308   -1.180897    0.598492
  O      4.394673   -1.128050    0.874308
  H      4.772196   -0.379022    0.412493
  H      2.806434   -1.318965   -0.469350
  H      2.614017   -2.042547    1.134010
  H      2.486843   -0.282349    0.943271

----------------------------
CARTESIAN COORDINATES (A.U.)
----------------------------
  NO LB      ZA    FRAG     MASS         X           Y           Z
   0 C     6.0000    0    12.011    5.690547   -2.231572    1.130986
   1 O     8.0000    0    15.999    8.304728   -2.131706    1.652203
   2 H     1.0000    0     1.008    9.018143   -0.716248    0.779499
   3 H     1.0000    0     1.008    5.303392   -2.492483   -0.886943
   4 H     1.0000    0     1.008    4.939776   -3.859854    2.142968
   5 H     1.0000    0     1.008    4.699452   -0.533562    1.782524

--------------------------------
INTERNAL COORDINATES (ANGSTROEM)
--------------------------------
 C      0   0   0     0.000000000000     0.00000000     0.00000000
 O      1   0   0     1.411582797603     0.00000000     0.00000000
 H      2   1   0     0.957517443464   108.74989122     0.00000000
 H      1   2   3     1.096048660172   112.22633944    61.42708393
 H      1   2   3     1.089523010085   106.91338075   179.81915320
 H      1   2   3     1.096049544213   112.13455781   298.76045553

---------------------------
INTERNAL COORDINATES (A.U.)
---------------------------
 C      0   0   0     0.000000000000     0.00000000     0.00000000
 O      1   0   0     2.667504902825     0.00000000     0.00000000
 H      2   1   0     1.809445736600   108.74989122     0.00000000
 H      1   2   3     2.071231797176   112.22633944    61.42708393
 H      1   2   3     2.058900105666   106.91338075   179.81915320
 H      1   2   3     2.071233467772   112.13455781   298.76045553

---------------------
BASIS SET INFORMATION
---------------------
There are 3 groups of distinct atoms

 Group   1 Type C   : 11s6p2d1f contracted to 5s3p2d1f pattern {62111/411/11/1}
 Group   2 Type O   : 11s6p2d1f contracted to 5s3p2d1f pattern {62111/411/11/1}
 Group   3 Type H   : 5s1p contracted to 3s1p pattern {311/1}

Atom   0C    basis set group =>   1
Atom   1O    basis set group =>   2
Atom   2H    basis set group =>   3
Atom   3H    basis set group =>   3
Atom   4H    basis set group =>   3
Atom   5H    basis set group =>   3


           ************************************************************
           *        Program running with 4 parallel MPI-processes     *
           *              working on a common directory               *
           ************************************************************
------------------------------------------------------------------------------
                           ORCA GTO INTEGRAL CALCULATION
------------------------------------------------------------------------------

                         BASIS SET STATISTICS AND STARTUP INFO

 # of primitive gaussian shells          ...   64
 # of primitive gaussian functions       ...  124
 # of contracted shells                  ...   38
 # of contracted basis functions         ...   86
 Highest angular momentum                ...    3
 Maximum contraction depth               ...    6
 Integral package used                   ... LIBINT
 Integral threshhold            Thresh   ...  2.500e-11
 Primitive cut-off              TCut     ...  2.500e-12


------------------------------ INTEGRAL EVALUATION ----------------------------


 * One electron integrals 
 Pre-screening matrix                    ... done
 Shell pair data                         ... done (   0.000 sec)



           ************************************************************
           *        Program running with 4 parallel MPI-processes     *
           *              working on a common directory               *
           ************************************************************
-------------------------------------------------------------------------------
                                 ORCA SCF
-------------------------------------------------------------------------------

------------
SCF SETTINGS
------------
Hamiltonian:
 Density Functional     Method          .... DFT(GTOs)
 Exchange Functional    Exchange        .... WB97X-D3
 Correlation Functional Correlation     .... WB97X-D3
 Gradients option       PostSCFGGA      .... off
 Hybrid DFT is turned on
   Fraction HF Exchange ScalHFX         ....  0.195728
   Scaling of DF-GGA-X  ScalDFX         ....  0.000000
   Scaling of DF-GGA-C  ScalDFC         ....  1.000000
   Scaling of DF-LDA-C  ScalLDAC        ....  1.000000
   Perturbative correction              ....  0.000000
   Density functional embedding theory  .... OFF
 Long-range corrected/Screened/Range-Separated Hybrid DFT is turned on
   Amount of maximum screened exact exchange              ....  0.804272
   Range separation parameter mu (erf(mu*r12)/r12)        ....  0.250000


General Settings:
 Integral files         IntName         .... 1_geo_opt
 Hartree-Fock type      HFTyp           .... RHF
 Total Charge           Charge          ....    0
 Multiplicity           Mult            ....    1
 Number of Electrons    NEL             ....   18
 Basis Dimension        Dim             ....   86
 Nuclear Repulsion      ENuc            ....     40.4405254319 Eh

Convergence Acceleration:
 DIIS                   CNVDIIS         .... on
   Start iteration      DIISMaxIt       ....    12
   Startup error        DIISStart       ....  0.200000
   # of expansion vecs  DIISMaxEq       ....     5
   Bias factor          DIISBfac        ....   1.050
   Max. coefficient     DIISMaxC        ....  10.000
 Newton-Raphson         CNVNR           .... off
 SOSCF                  CNVSOSCF        .... on
   Start iteration      SOSCFMaxIt      ....   150
   Startup grad/error   SOSCFStart      ....  0.003300
 Level Shifting         CNVShift        .... on
   Level shift para.    LevelShift      ....    0.2500
   Turn off err/grad.   ShiftErr        ....    0.0010
 Zerner damping         CNVZerner       .... off
 Static damping         CNVDamp         .... on
   Fraction old density DampFac         ....    0.7000
   Max. Damping (<1)    DampMax         ....    0.9800
   Min. Damping (>=0)   DampMin         ....    0.0000
   Turn off err/grad.   DampErr         ....    0.1000
 Fernandez-Rico         CNVRico         .... off

SCF Procedure:
 Maximum # iterations   MaxIter         ....   125
 SCF integral mode      SCFMode         .... Direct
   Integral package                     .... LIBINT
 Reset frequency        DirectResetFreq ....    20
 Integral Threshold     Thresh          ....  2.500e-11 Eh
 Primitive CutOff       TCut            ....  2.500e-12 Eh

Convergence Tolerance:
 Convergence Check Mode ConvCheckMode   .... Total+1el-Energy
 Convergence forced     ConvForced      .... 0
 Energy Change          TolE            ....  1.000e-08 Eh
 1-El. energy change                    ....  1.000e-05 Eh
 Orbital Gradient       TolG            ....  1.000e-05
 Orbital Rotation angle TolX            ....  1.000e-05
 DIIS Error             TolErr          ....  5.000e-07


Diagonalization of the overlap matrix:
Smallest eigenvalue                        ... 1.651e-03
Time for diagonalization                   ...    0.002 sec
Threshold for overlap eigenvalues          ... 1.000e-08
Number of eigenvalues below threshold      ... 0
Time for construction of square roots      ...    0.004 sec
Total time needed                          ...    0.006 sec

-------------------
DFT GRID GENERATION
-------------------

General Integration Accuracy     IntAcc      ...  5.010
Radial Grid Type                 RadialGrid  ... Gauss-Chebyshev
Angular Grid (max. acc.)         AngularGrid ... Lebedev-434
Angular grid pruning method      GridPruning ... 3 (G Style)
Weight generation scheme         WeightScheme... Becke
Basis function cutoff            BFCut       ...    1.0000e-11
Integration weight cutoff        WCut        ...    1.0000e-14
Grids for H and He will be reduced by one unit

# of grid points (after initial pruning)     ...  48308 (   0.0 sec)
# of grid points (after weights+screening)   ...  46680 (   0.0 sec)
nearest neighbour list constructed           ...    0.0 sec
Grid point re-assignment to atoms done       ...    0.0 sec
Grid point division into batches done        ...    0.3 sec
Reduced shell lists constructed in    0.3 sec

Total number of grid points                  ...    46680
Total number of batches                      ...      733
Average number of points per batch           ...       63
Average number of grid points per atom       ...     7780
Average number of shells per batch           ...    33.11 (87.14%)
Average number of basis functions per batch  ...    76.78 (89.28%)
Average number of large shells per batch     ...    30.64 (92.54%)
Average number of large basis fcns per batch ...    72.32 (94.19%)
Maximum spatial batch extension              ...  15.77, 14.98, 16.58 au
Average spatial batch extension              ...   0.40,  0.40,  0.43 au

Time for grid setup =    0.395 sec

------------------------------
INITIAL GUESS: MODEL POTENTIAL
------------------------------
Loading Hartree-Fock densities                     ... done
Calculating cut-offs                               ... done
Setting up the integral package                    ... done
Initializing the effective Hamiltonian             ... done
Starting the Coulomb interaction                   ... done (   0.0 sec)
Reading the grid                                   ... done
Mapping shells                                     ... done
Starting the XC term evaluation                    ... done (   0.1 sec)
  promolecular density results
     # of electrons  =     17.998045203
     EX              =    -14.430302480
     EC              =     -0.575125180
     EX+EC           =    -15.005427660
Transforming the Hamiltonian                       ... done (   0.0 sec)
Diagonalizing the Hamiltonian                      ... done (   0.0 sec)
Back transforming the eigenvectors                 ... done (   0.0 sec)
Now organizing SCF variables                       ... done
                      ------------------
                      INITIAL GUESS DONE (   0.6 sec)
                      ------------------
--------------
SCF ITERATIONS
--------------
ITER       Energy         Delta-E        Max-DP      RMS-DP      [F,P]     Damp
               ***  Starting incremental Fock matrix formation  ***
  0   -115.6511673824   0.000000000000 0.03698041  0.00147514  0.2524481 0.7000
  1   -115.6882540658  -0.037086683401 0.02203689  0.00104104  0.1262928 0.7000
                               ***Turning on DIIS***
  2   -115.7053247755  -0.017070709747 0.03157193  0.00188136  0.0491081 0.0000
  3   -115.7330704287  -0.027745653157 0.01774316  0.00068034  0.0611537 0.0000
  4   -115.7375973809  -0.004526952209 0.00406801  0.00013186  0.0065545 0.0000
                      *** Initiating the SOSCF procedure ***
                           *** Shutting down DIIS ***
                      *** Re-Reading the Fockian *** 
                      *** Removing any level shift *** 
ITER      Energy       Delta-E        Grad      Rot      Max-DP    RMS-DP
  5   -115.73769166  -0.0000942771  0.000490  0.000490  0.000678  0.000043
               *** Restarting incremental Fock matrix formation ***
  6   -115.73769981  -0.0000081490  0.000152  0.000203  0.000491  0.000026
  7   -115.73770053  -0.0000007228  0.000056  0.000109  0.000208  0.000011
  8   -115.73770059  -0.0000000576  0.000019  0.000017  0.000029  0.000001
  9   -115.73770059  -0.0000000055  0.000011  0.000008  0.000014  0.000001
 10   -115.73770059  -0.0000000015  0.000003  0.000003  0.000003  0.000000
                  ***Gradient check signals convergence***
              ***Rediagonalizing the Fockian in SOSCF/NRSCF***

               *****************************************************
               *                     SUCCESS                       *
               *           SCF CONVERGED AFTER  11 CYCLES          *
               *****************************************************

Setting up the final grid:

General Integration Accuracy     IntAcc      ...  5.340
Radial Grid Type                 RadialGrid  ... Gauss-Chebyshev
Angular Grid (max. acc.)         AngularGrid ... Lebedev-590
Angular grid pruning method      GridPruning ... 3 (G Style)
Weight generation scheme         WeightScheme... Becke
Basis function cutoff            BFCut       ...    1.0000e-11
Integration weight cutoff        WCut        ...    1.0000e-14
Grids for H and He will be reduced by one unit

# of grid points (after initial pruning)     ...  77324 (   0.0 sec)
# of grid points (after weights+screening)   ...  74512 (   0.0 sec)
nearest neighbour list constructed           ...    0.0 sec
Grid point re-assignment to atoms done       ...    0.0 sec
Grid point division into batches done        ...    0.8 sec
Reduced shell lists constructed in    0.8 sec

Total number of grid points                  ...    74512
Total number of batches                      ...     1167
Average number of points per batch           ...       63
Average number of grid points per atom       ...    12419
Average number of shells per batch           ...    32.95 (86.70%)
Average number of basis functions per batch  ...    76.38 (88.81%)
Average number of large shells per batch     ...    30.31 (91.99%)
Average number of large basis fcns per batch ...    71.50 (93.61%)
Maximum spatial batch extension              ...  13.18, 14.25, 15.48 au
Average spatial batch extension              ...   0.34,  0.36,  0.37 au

Final grid set up in    0.9 sec
Final integration                            ... done (   0.2 sec)
Change in XC energy                          ...    -0.000107582
Integrated number of electrons               ...    18.000000746
Previous integrated no of electrons          ...    18.000002269

----------------
TOTAL SCF ENERGY
----------------

Total Energy       :         -115.73780818 Eh           -3149.38587 eV

Components:
Nuclear Repulsion  :           40.44052543 Eh            1100.44264 eV
Electronic Energy  :         -156.17833361 Eh           -4249.82851 eV
One Electron Energy:         -237.30061719 Eh           -6457.27808 eV
Two Electron Energy:           81.12228358 Eh            2207.44956 eV

Virial components:
Potential Energy   :         -230.98886392 Eh           -6285.52654 eV
Kinetic Energy     :          115.25105575 Eh            3136.14067 eV
Virial Ratio       :            2.00422341


DFT components:
N(Alpha)           :        9.000000372876 electrons
N(Beta)            :        9.000000372876 electrons
N(Total)           :       18.000000745753 electrons
E(XC)              :      -10.655674257725 Eh       
DFET-embed. en.    :        0.000000000000 Eh       

---------------
SCF CONVERGENCE
---------------

  Last Energy change         ...   -6.4148e-11  Tolerance :   1.0000e-08
  Last MAX-Density change    ...    1.8614e-06  Tolerance :   1.0000e-07
  Last RMS-Density change    ...    7.7480e-08  Tolerance :   5.0000e-09
  Last Orbital Gradient      ...    1.3496e-06  Tolerance :   1.0000e-05
  Last Orbital Rotation      ...    7.7980e-07  Tolerance :   1.0000e-05

             **** THE GBW FILE WAS UPDATED (1_geo_opt.gbw) ****
             **** DENSITY FILE WAS UPDATED (1_geo_opt.scfp.tmp) ****
             **** ENERGY FILE WAS UPDATED (1_geo_opt.en.tmp) ****
----------------
ORBITAL ENERGIES
----------------

  NO   OCC          E(Eh)            E(eV) 
   0   2.0000     -19.228004      -523.2206 
   1   2.0000     -10.315118      -280.6886 
   2   2.0000      -1.136778       -30.9333 
   3   2.0000      -0.795287       -21.6409 
   4   2.0000      -0.611654       -16.6439 
   5   2.0000      -0.541687       -14.7400 
   6   2.0000      -0.526288       -14.3210 
   7   2.0000      -0.433931       -11.8079 
   8   2.0000      -0.373503       -10.1635 
   9   0.0000       0.116591         3.1726 
  10   0.0000       0.156790         4.2665 
  11   0.0000       0.202489         5.5100 
  12   0.0000       0.205065         5.5801 
  13   0.0000       0.226444         6.1619 
  14   0.0000       0.304237         8.2787 
  15   0.0000       0.313179         8.5220 
  16   0.0000       0.404542        11.0081 
  17   0.0000       0.452610        12.3161 
  18   0.0000       0.485212        13.2033 
  19   0.0000       0.535734        14.5781 
  20   0.0000       0.543535        14.7903 
  21   0.0000       0.567805        15.4508 
  22   0.0000       0.598484        16.2856 
  23   0.0000       0.603186        16.4135 
  24   0.0000       0.671409        18.2700 
  25   0.0000       0.779394        21.2084 
  26   0.0000       0.832448        22.6521 
  27   0.0000       0.861168        23.4336 
  28   0.0000       0.989397        26.9229 
  29   0.0000       1.013938        27.5907 
  30   0.0000       1.109814        30.1996 
  31   0.0000       1.382734        37.6261 
  32   0.0000       1.512442        41.1556 
  33   0.0000       1.553463        42.2719 
  34   0.0000       1.603078        43.6220 
  35   0.0000       1.613240        43.8985 
  36   0.0000       1.623569        44.1796 
  37   0.0000       1.660524        45.1851 
  38   0.0000       1.688276        45.9403 
  39   0.0000       1.774196        48.2783 
  40   0.0000       1.952097        53.1192 
  41   0.0000       2.030836        55.2618 
  42   0.0000       2.054921        55.9172 
  43   0.0000       2.094922        57.0057 
  44   0.0000       2.114839        57.5477 
  45   0.0000       2.268574        61.7310 
  46   0.0000       2.333664        63.5022 
  47   0.0000       2.344917        63.8084 
  48   0.0000       2.380707        64.7823 
  49   0.0000       2.430085        66.1260 
  50   0.0000       2.496382        67.9300 
  51   0.0000       2.597208        70.6736 
  52   0.0000       2.639055        71.8123 
  53   0.0000       2.707300        73.6694 
  54   0.0000       2.841071        77.3095 
  55   0.0000       2.871617        78.1407 
  56   0.0000       2.888828        78.6090 
  57   0.0000       2.993533        81.4582 
  58   0.0000       3.096130        84.2500 
  59   0.0000       3.172635        86.3318 
  60   0.0000       3.300810        89.8196 
  61   0.0000       3.409738        92.7837 
  62   0.0000       3.441313        93.6429 
  63   0.0000       3.487640        94.9035 
  64   0.0000       3.613375        98.3249 
  65   0.0000       3.645361        99.1953 
  66   0.0000       3.666277        99.7645 
  67   0.0000       4.005432       108.9934 
  68   0.0000       4.224587       114.9569 
  69   0.0000       4.271724       116.2395 
  70   0.0000       4.456612       121.2706 
  71   0.0000       4.564510       124.2066 
  72   0.0000       5.346152       145.4762 
  73   0.0000       5.425342       147.6310 
  74   0.0000       5.554532       151.1465 
  75   0.0000       5.826145       158.5375 
  76   0.0000       5.834082       158.7534 
  77   0.0000       5.985510       162.8740 
  78   0.0000       6.379721       173.6010 
  79   0.0000       6.531244       177.7242 
  80   0.0000       6.745147       183.5448 
  81   0.0000       6.804203       185.1518 
  82   0.0000       7.039515       191.5550 
  83   0.0000       7.216175       196.3621 
  84   0.0000      22.405937       609.6965 
  85   0.0000      43.664569      1188.1733 

                    ********************************
                    * MULLIKEN POPULATION ANALYSIS *
                    ********************************

-----------------------
MULLIKEN ATOMIC CHARGES
-----------------------
   0 C :   -0.150662
   1 O :   -0.477713
   2 H :    0.312923
   3 H :    0.098492
   4 H :    0.118298
   5 H :    0.098662
Sum of atomic charges:    0.0000000

--------------------------------
MULLIKEN REDUCED ORBITAL CHARGES
--------------------------------
  0 C s       :     3.223265  s :     3.223265
      pz      :     1.047631  p :     2.825744
      px      :     0.702150
      py      :     1.075963
      dz2     :     0.011160  d :     0.094230
      dxz     :     0.032445
      dyz     :     0.002605
      dx2y2   :     0.012822
      dxy     :     0.035199
      f0      :     0.001356  f :     0.007423
      f+1     :     0.000956
      f-1     :     0.000175
      f+2     :     0.001469
      f-2     :     0.000120
      f+3     :     0.001359
      f-3     :     0.001989
  1 O s       :     3.792777  s :     3.792777
      pz      :     1.759311  p :     4.652665
      px      :     1.313717
      py      :     1.579637
      dz2     :     0.003137  d :     0.030585
      dxz     :     0.006483
      dyz     :     0.005835
      dx2y2   :     0.008936
      dxy     :     0.006194
      f0      :     0.000269  f :     0.001686
      f+1     :     0.000233
      f-1     :     0.000087
      f+2     :     0.000287
      f-2     :     0.000235
      f+3     :     0.000367
      f-3     :     0.000206
  2 H s       :     0.639385  s :     0.639385
      pz      :     0.017006  p :     0.047692
      px      :     0.012721
      py      :     0.017965
  3 H s       :     0.882144  s :     0.882144
      pz      :     0.012070  p :     0.019364
      px      :     0.003009
      py      :     0.004285
  4 H s       :     0.861489  s :     0.861489
      pz      :     0.006286  p :     0.020214
      px      :     0.004175
      py      :     0.009753
  5 H s       :     0.881985  s :     0.881985
      pz      :     0.004914  p :     0.019353
      px      :     0.004957
      py      :     0.009482


                     *******************************
                     * LOEWDIN POPULATION ANALYSIS *
                     *******************************

----------------------
LOEWDIN ATOMIC CHARGES
----------------------
   0 C :   -0.385005
   1 O :   -0.076199
   2 H :    0.165724
   3 H :    0.093335
   4 H :    0.108734
   5 H :    0.093412

-------------------------------
LOEWDIN REDUCED ORBITAL CHARGES
-------------------------------
  0 C s       :     2.863084  s :     2.863084
      pz      :     1.096983  p :     3.051991
      px      :     0.846083
      py      :     1.108925
      dz2     :     0.072537  d :     0.412879
      dxz     :     0.113881
      dyz     :     0.020617
      dx2y2   :     0.082388
      dxy     :     0.123456
      f0      :     0.007829  f :     0.057052
      f+1     :     0.007168
      f-1     :     0.000855
      f+2     :     0.012551
      f-2     :     0.004784
      f+3     :     0.011736
      f-3     :     0.012129
  1 O s       :     3.366293  s :     3.366293
      pz      :     1.698985  p :     4.633674
      px      :     1.381260
      py      :     1.553429
      dz2     :     0.006141  d :     0.071587
      dxz     :     0.017873
      dyz     :     0.008087
      dx2y2   :     0.019339
      dxy     :     0.020147
      f0      :     0.000483  f :     0.004646
      f+1     :     0.000623
      f-1     :     0.000072
      f+2     :     0.001051
      f-2     :     0.000560
      f+3     :     0.000890
      f-3     :     0.000966
  2 H s       :     0.675193  s :     0.675193
      pz      :     0.055757  p :     0.159083
      px      :     0.033913
      py      :     0.069414
  3 H s       :     0.846843  s :     0.846843
      pz      :     0.036181  p :     0.059822
      px      :     0.009719
      py      :     0.013922
  4 H s       :     0.831685  s :     0.831685
      pz      :     0.019183  p :     0.059582
      px      :     0.011562
      py      :     0.028837
  5 H s       :     0.846778  s :     0.846778
      pz      :     0.015578  p :     0.059811
      px      :     0.015159
      py      :     0.029074


                      *****************************
                      * MAYER POPULATION ANALYSIS *
                      *****************************

  NA   - Mulliken gross atomic population
  ZA   - Total nuclear charge
  QA   - Mulliken gross atomic charge
  VA   - Mayer's total valence
  BVA  - Mayer's bonded valence
  FA   - Mayer's free valence

  ATOM       NA         ZA         QA         VA         BVA        FA
  0 C      6.1507     6.0000    -0.1507     3.9348     3.9348     0.0000
  1 O      8.4777     8.0000    -0.4777     1.8878     1.8878     0.0000
  2 H      0.6871     1.0000     0.3129     0.9137     0.9137     0.0000
  3 H      0.9015     1.0000     0.0985     0.9595     0.9595     0.0000
  4 H      0.8817     1.0000     0.1183     0.9599     0.9599     0.0000
  5 H      0.9013     1.0000     0.0987     0.9598     0.9598     0.0000

  Mayer bond orders larger than 0.1
B(  0-C ,  1-O ) :   0.9985 B(  0-C ,  3-H ) :   0.9755 B(  0-C ,  4-H ) :   0.9750 
B(  0-C ,  5-H ) :   0.9756 B(  1-O ,  2-H ) :   0.9003 

-------
TIMINGS
-------

Total SCF time: 0 days 0 hours 0 min 8 sec 

Total time                  ....       8.558 sec
Sum of individual times     ....       8.231 sec  ( 96.2%)

Fock matrix formation       ....       6.680 sec  ( 78.1%)
  XC integration            ....       1.936 sec  ( 29.0% of F)
    Basis function eval.    ....       0.408 sec  ( 21.1% of XC)
    Density eval.           ....       0.263 sec  ( 13.6% of XC)
    XC-Functional eval.     ....       0.662 sec  ( 34.2% of XC)
    XC-Potential eval.      ....       0.276 sec  ( 14.3% of XC)
Diagonalization             ....       0.026 sec  (  0.3%)
Density matrix formation    ....       0.002 sec  (  0.0%)
Population analysis         ....       0.011 sec  (  0.1%)
Initial guess               ....       0.190 sec  (  2.2%)
Orbital Transformation      ....       0.000 sec  (  0.0%)
Orbital Orthonormalization  ....       0.000 sec  (  0.0%)
DIIS solution               ....       0.016 sec  (  0.2%)
SOSCF solution              ....       0.014 sec  (  0.2%)
Grid generation             ....       1.293 sec  ( 15.1%)


-------------------------------------------------------------------------------
                          DFT DISPERSION CORRECTION                            
                                                                               
                              DFTD3 V3.1  Rev 1                                
                              USING zero damping                               
-------------------------------------------------------------------------------
The omegaB97X-D3 functional is recognized. Fit by Chai et al.
Active option DFTDOPT                   ...         3   

molecular C6(AA) [au] = 208.715591 


            DFT-D V3
 parameters
 s6 scaling factor         :     1.0000 
 rs6 scaling factor        :     1.2810 
 s8 scaling factor         :     1.0000 
 rs8 scaling factor        :     1.0940 
 Damping factor alpha6     :    14.0000 
 Damping factor alpha8     :    16.0000 
 ad hoc parameters k1-k3   :    16.0000     1.3333    -4.0000 

 Edisp/kcal,au: -0.149858076424  -0.000238814021 
 E6   /kcal   :  -0.029533891 
 E8   /kcal   :  -0.120324186 
 % E8         :  80.292092700 

-------------------------   ----------------
Dispersion correction           -0.000238814
-------------------------   ----------------


-------------------------   --------------------
FINAL SINGLE POINT ENERGY      -115.738046990779
-------------------------   --------------------



           ************************************************************
           *        Program running with 4 parallel MPI-processes     *
           *              working on a common directory               *
           ************************************************************
------------------------------------------------------------------------------
                         ORCA SCF GRADIENT CALCULATION
------------------------------------------------------------------------------

Gradient of the Kohn-Sham DFT energy:
Kohn-Sham wavefunction type      ... RKS
Hartree-Fock exchange scaling    ...    0.196
Number of operators              ...    1
Number of atoms                  ...    6
Basis set dimensions             ...   86
Integral neglect threshold       ... 2.5e-11
Integral primitive cutoff        ... 2.5e-12

Nuclear repulsion gradient       ... done
One Electron Gradient            ... done
Pre-screening matrix             ... done
Starting the two electron gradient:
Two electron gradient done
Exchange-correlation gradient    ... done
Dispersion correction            ... done

------------------
CARTESIAN GRADIENT
------------------

   1   C   :   -0.000458670    0.000042859    0.000337129
   2   O   :   -0.000161958   -0.000055663    0.000096379
   3   H   :   -0.000026657    0.000017735   -0.000011861
   4   H   :   -0.000062616    0.000013400    0.000101721
   5   H   :    0.000402091   -0.000408827   -0.000218402
   6   H   :    0.000307810    0.000390496   -0.000304966

Difference to translation invariance:
           :    0.0000000000   -0.0000000000    0.0000000000

Norm of the cartesian gradient     ...    0.0010473099
RMS gradient                       ...    0.0002468533
MAX gradient                       ...    0.0004586702

-------
TIMINGS
-------

Total SCF gradient time            ...        1.860 sec

One electron gradient       ....       0.006 sec  (  0.3%)
Prescreening matrices       ....       0.024 sec  (  1.3%)
Two electron gradient       ....       0.838 sec  ( 45.0%)
XC gradient                 ....       0.652 sec  ( 35.0%)
------------------------------------------------------------------------------
                         ORCA GEOMETRY RELAXATION STEP
------------------------------------------------------------------------------

Reading the OPT-File                    .... done
Getting information on internals        .... done
Copying old internal coords+grads       .... done
Making the new internal coordinates     .... (new redundants).... done
Validating the new internal coordinates .... (new redundants).... done
Calculating the B-matrix                .... done
Calculating the G,G- and P matrices     .... done
Transforming gradient to internals      .... done
Projecting the internal gradient        .... done
Number of atoms                         ....   6
Number of internal coordinates          ....  15
Current Energy                          ....  -115.738046991 Eh
Current gradient norm                   ....     0.001047310 Eh/bohr
Maximum allowed component of the step   ....  0.300
Current trust radius                    ....  0.300
Evaluating the initial hessian          ....  (Almloef) done
Projecting the Hessian                  .... done
Forming the augmented Hessian           .... done
Diagonalizing the augmented Hessian     .... done
Last element of RFO vector              ....  0.999999520
Lowest eigenvalues of augmented Hessian:
 -0.000000297  0.021176452  0.184760806  0.268427402  0.324408531
Length of the computed step             ....  0.000979475
The final length of the internal step   ....  0.000979475
Converting the step to cartesian space:
 Initial RMS(Int)=    0.0002528993
Transforming coordinates:
 Iter   0:  RMS(Cart)=    0.0002520655 RMS(Int)=    0.0002528985
 Iter   1:  RMS(Cart)=    0.0000000493 RMS(Int)=    0.0000000477
Imposing constraints:
 Iter   0:  RMS(Cart)=    0.0000000150 RMS(Int)=    0.0000000292
CONVERGED
done
Storing new coordinates                 .... done

                                .--------------------.
          ----------------------|Geometry convergence|-------------------------
          Item                value                   Tolerance       Converged
          ---------------------------------------------------------------------
          RMS gradient        0.0000830866            0.0001000000      YES
          MAX gradient        0.0001694055            0.0003000000      YES
          RMS step            0.0002528993            0.0020000000      YES
          MAX step            0.0005274982            0.0040000000      YES
          ........................................................
          Max(Bonds)      0.0002      Max(Angles)    0.03
          Max(Dihed)        0.02      Max(Improp)    0.00
          ---------------------------------------------------------------------

                    ***********************HURRAY********************
                    ***        THE OPTIMIZATION HAS CONVERGED     ***
                    *************************************************


    ---------------------------------------------------------------------------
                         Redundant Internal Coordinates

                          --- Optimized Parameters ---  
                            (Angstroem and degrees)

        Definition                    OldVal   dE/dq     Step     FinalVal
    ----------------------------------------------------------------------------
     1. B(O   1,C   0)                1.4116 -0.000169  0.0002    1.4118   
     2. B(H   2,O   1)                0.9575  0.000008 -0.0000    0.9575   
     3. B(H   3,C   0)                1.0960 -0.000089  0.0001    1.0962   
     4. B(H   4,C   0)                1.0895  0.000069 -0.0001    1.0894   
     5. B(H   5,C   0)                1.0960  0.000077 -0.0001    1.0959   
     6. A(O   1,C   0,H   4)          106.91 -0.000395    0.02    106.94   
     7. A(O   1,C   0,H   3)          112.23  0.000095   -0.03    112.20   
     8. A(O   1,C   0,H   5)          112.13 -0.000311    0.01    112.15   
     9. A(H   3,C   0,H   5)          108.68 -0.000069   -0.00    108.68   
    10. A(H   4,C   0,H   5)          108.62  0.000776    0.00    108.62 C 
    11. A(H   3,C   0,H   4)          108.12 -0.000061   -0.00    108.12   
    12. A(C   0,O   1,H   2)          108.75 -0.000057    0.01    108.76   
    13. D(H   2,O   1,C   0,H   5)    -61.24  0.000261    0.00    -61.23   
    14. D(H   2,O   1,C   0,H   3)     61.43  0.000009   -0.01     61.41   
    15. D(H   2,O   1,C   0,H   4)    179.82 -0.000260   -0.02    179.80   
    ----------------------------------------------------------------------------
                 *******************************************************
                 *** FINAL ENERGY EVALUATION AT THE STATIONARY POINT ***
                 ***               (AFTER    1 CYCLES)               ***
                 *******************************************************
---------------------------------
CARTESIAN COORDINATES (ANGSTROEM)
---------------------------------
  C      3.011226   -1.180911    0.598720
  O      4.394823   -1.127968    0.874244
  H      4.772344   -0.379024    0.412310
  H      2.806652   -1.318914   -0.469325
  H      2.613757   -2.042525    1.133958
  H      2.486669   -0.282488    0.943316

----------------------------
CARTESIAN COORDINATES (A.U.)
----------------------------
  NO LB      ZA    FRAG     MASS         X           Y           Z
   0 C     6.0000    0    12.011    5.690393   -2.231598    1.131417
   1 O     8.0000    0    15.999    8.305011   -2.131551    1.652082
   2 H     1.0000    0     1.008    9.018423   -0.716251    0.779154
   3 H     1.0000    0     1.008    5.303803   -2.492387   -0.886895
   4 H     1.0000    0     1.008    4.939286   -3.859813    2.142869
   5 H     1.0000    0     1.008    4.699123   -0.533825    1.782610

--------------------------------
INTERNAL COORDINATES (ANGSTROEM)
--------------------------------
 C      0   0   0     0.000000000000     0.00000000     0.00000000
 O      1   0   0     1.411756212722     0.00000000     0.00000000
 H      2   1   0     0.957508877849   108.75905704     0.00000000
 H      1   2   3     1.096182137610   112.19611616    61.41408956
 H      1   2   3     1.089421500983   106.93826633   179.80108222
 H      1   2   3     1.095934022847   112.14697068   298.76525520

---------------------------
INTERNAL COORDINATES (A.U.)
---------------------------
 C      0   0   0     0.000000000000     0.00000000     0.00000000
 O      1   0   0     2.667832609906     0.00000000     0.00000000
 H      2   1   0     1.809429549933   108.75905704     0.00000000
 H      1   2   3     2.071484032979   112.19611616    61.41408956
 H      1   2   3     2.058708281263   106.93826633   179.80108222
 H      1   2   3     2.071015164028   112.14697068   298.76525520

---------------------
BASIS SET INFORMATION
---------------------
There are 3 groups of distinct atoms

 Group   1 Type C   : 11s6p2d1f contracted to 5s3p2d1f pattern {62111/411/11/1}
 Group   2 Type O   : 11s6p2d1f contracted to 5s3p2d1f pattern {62111/411/11/1}
 Group   3 Type H   : 5s1p contracted to 3s1p pattern {311/1}

Atom   0C    basis set group =>   1
Atom   1O    basis set group =>   2
Atom   2H    basis set group =>   3
Atom   3H    basis set group =>   3
Atom   4H    basis set group =>   3
Atom   5H    basis set group =>   3


           ************************************************************
           *        Program running with 4 parallel MPI-processes     *
           *              working on a common directory               *
           ************************************************************
------------------------------------------------------------------------------
                           ORCA GTO INTEGRAL CALCULATION
------------------------------------------------------------------------------

                         BASIS SET STATISTICS AND STARTUP INFO

 # of primitive gaussian shells          ...   64
 # of primitive gaussian functions       ...  124
 # of contracted shells                  ...   38
 # of contracted basis functions         ...   86
 Highest angular momentum                ...    3
 Maximum contraction depth               ...    6
 Integral package used                   ... LIBINT
 Integral threshhold            Thresh   ...  2.500e-11
 Primitive cut-off              TCut     ...  2.500e-12


------------------------------ INTEGRAL EVALUATION ----------------------------


 * One electron integrals 
 Pre-screening matrix                    ... done
 Shell pair data                         ... done (   0.000 sec)



           ************************************************************
           *        Program running with 4 parallel MPI-processes     *
           *              working on a common directory               *
           ************************************************************
-------------------------------------------------------------------------------
                                 ORCA SCF
-------------------------------------------------------------------------------

------------
SCF SETTINGS
------------
Hamiltonian:
 Density Functional     Method          .... DFT(GTOs)
 Exchange Functional    Exchange        .... WB97X-D3
 Correlation Functional Correlation     .... WB97X-D3
 Gradients option       PostSCFGGA      .... off
 Hybrid DFT is turned on
   Fraction HF Exchange ScalHFX         ....  0.195728
   Scaling of DF-GGA-X  ScalDFX         ....  0.000000
   Scaling of DF-GGA-C  ScalDFC         ....  1.000000
   Scaling of DF-LDA-C  ScalLDAC        ....  1.000000
   Perturbative correction              ....  0.000000
   Density functional embedding theory  .... OFF
 Long-range corrected/Screened/Range-Separated Hybrid DFT is turned on
   Amount of maximum screened exact exchange              ....  0.804272
   Range separation parameter mu (erf(mu*r12)/r12)        ....  0.250000


General Settings:
 Integral files         IntName         .... 1_geo_opt
 Hartree-Fock type      HFTyp           .... RHF
 Total Charge           Charge          ....    0
 Multiplicity           Mult            ....    1
 Number of Electrons    NEL             ....   18
 Basis Dimension        Dim             ....   86
 Nuclear Repulsion      ENuc            ....     40.4378538967 Eh

Convergence Acceleration:
 DIIS                   CNVDIIS         .... on
   Start iteration      DIISMaxIt       ....    12
   Startup error        DIISStart       ....  0.200000
   # of expansion vecs  DIISMaxEq       ....     5
   Bias factor          DIISBfac        ....   1.050
   Max. coefficient     DIISMaxC        ....  10.000
 Newton-Raphson         CNVNR           .... off
 SOSCF                  CNVSOSCF        .... on
   Start iteration      SOSCFMaxIt      ....   150
   Startup grad/error   SOSCFStart      ....  0.003300
 Level Shifting         CNVShift        .... on
   Level shift para.    LevelShift      ....    0.2500
   Turn off err/grad.   ShiftErr        ....    0.0010
 Zerner damping         CNVZerner       .... off
 Static damping         CNVDamp         .... on
   Fraction old density DampFac         ....    0.7000
   Max. Damping (<1)    DampMax         ....    0.9800
   Min. Damping (>=0)   DampMin         ....    0.0000
   Turn off err/grad.   DampErr         ....    0.1000
 Fernandez-Rico         CNVRico         .... off

SCF Procedure:
 Maximum # iterations   MaxIter         ....   125
 SCF integral mode      SCFMode         .... Direct
   Integral package                     .... LIBINT
 Reset frequency        DirectResetFreq ....    20
 Integral Threshold     Thresh          ....  2.500e-11 Eh
 Primitive CutOff       TCut            ....  2.500e-12 Eh

Convergence Tolerance:
 Convergence Check Mode ConvCheckMode   .... Total+1el-Energy
 Convergence forced     ConvForced      .... 0
 Energy Change          TolE            ....  1.000e-08 Eh
 1-El. energy change                    ....  1.000e-05 Eh
 Orbital Gradient       TolG            ....  1.000e-05
 Orbital Rotation angle TolX            ....  1.000e-05
 DIIS Error             TolErr          ....  5.000e-07


Diagonalization of the overlap matrix:
Smallest eigenvalue                        ... 1.650e-03
Time for diagonalization                   ...    0.002 sec
Threshold for overlap eigenvalues          ... 1.000e-08
Number of eigenvalues below threshold      ... 0
Time for construction of square roots      ...    0.003 sec
Total time needed                          ...    0.005 sec

---------------------
INITIAL GUESS: MOREAD
---------------------
Guess MOs are being read from file: 1_geo_opt.gbw
Input Geometry matches current geometry (good)
Input basis set matches current basis set (good)
MOs were renormalized
MOs were reorthogonalized (Cholesky)
                      ------------------
                      INITIAL GUESS DONE (   0.0 sec)
                      ------------------
-------------------
DFT GRID GENERATION
-------------------

General Integration Accuracy     IntAcc      ...  5.010
Radial Grid Type                 RadialGrid  ... Gauss-Chebyshev
Angular Grid (max. acc.)         AngularGrid ... Lebedev-434
Angular grid pruning method      GridPruning ... 3 (G Style)
Weight generation scheme         WeightScheme... Becke
Basis function cutoff            BFCut       ...    1.0000e-11
Integration weight cutoff        WCut        ...    1.0000e-14
Grids for H and He will be reduced by one unit

# of grid points (after initial pruning)     ...  48308 (   0.0 sec)
# of grid points (after weights+screening)   ...  46679 (   0.0 sec)
nearest neighbour list constructed           ...    0.0 sec
Grid point re-assignment to atoms done       ...    0.0 sec
Grid point division into batches done        ...    0.3 sec
Reduced shell lists constructed in    0.3 sec

Total number of grid points                  ...    46679
Total number of batches                      ...      733
Average number of points per batch           ...       63
Average number of grid points per atom       ...     7780
Average number of shells per batch           ...    33.11 (87.13%)
Average number of basis functions per batch  ...    76.74 (89.23%)
Average number of large shells per batch     ...    30.61 (92.46%)
Average number of large basis fcns per batch ...    72.26 (94.17%)
Maximum spatial batch extension              ...  15.76, 14.98, 16.58 au
Average spatial batch extension              ...   0.40,  0.41,  0.43 au

Time for grid setup =    0.388 sec

--------------
SCF ITERATIONS
--------------
ITER       Energy         Delta-E        Max-DP      RMS-DP      [F,P]     Damp
               ***  Starting incremental Fock matrix formation  ***
                      *** Initiating the SOSCF procedure ***
                      *** Re-Reading the Fockian *** 
                      *** Removing any level shift *** 
ITER      Energy       Delta-E        Grad      Rot      Max-DP    RMS-DP
  0   -115.73770075 -115.7377007481  0.000029  0.000029  0.000066  0.000003
               *** Restarting incremental Fock matrix formation ***
  1   -115.73770079  -0.0000000416  0.000014  0.000019  0.000026  0.000001
  2   -115.73770080  -0.0000000058  0.000005  0.000010  0.000010  0.000001
  3   -115.73770080  -0.0000000004  0.000005  0.000003  0.000005  0.000000
                 **** Energy Check signals convergence ****
              ***Rediagonalizing the Fockian in SOSCF/NRSCF***

               *****************************************************
               *                     SUCCESS                       *
               *           SCF CONVERGED AFTER   4 CYCLES          *
               *****************************************************

Setting up the final grid:

General Integration Accuracy     IntAcc      ...  5.340
Radial Grid Type                 RadialGrid  ... Gauss-Chebyshev
Angular Grid (max. acc.)         AngularGrid ... Lebedev-590
Angular grid pruning method      GridPruning ... 3 (G Style)
Weight generation scheme         WeightScheme... Becke
Basis function cutoff            BFCut       ...    1.0000e-11
Integration weight cutoff        WCut        ...    1.0000e-14
Grids for H and He will be reduced by one unit

# of grid points (after initial pruning)     ...  77324 (   0.0 sec)
# of grid points (after weights+screening)   ...  74512 (   0.0 sec)
nearest neighbour list constructed           ...    0.0 sec
Grid point re-assignment to atoms done       ...    0.0 sec
Grid point division into batches done        ...    0.8 sec
Reduced shell lists constructed in    0.8 sec

Total number of grid points                  ...    74512
Total number of batches                      ...     1167
Average number of points per batch           ...       63
Average number of grid points per atom       ...    12419
Average number of shells per batch           ...    32.92 (86.64%)
Average number of basis functions per batch  ...    76.34 (88.77%)
Average number of large shells per batch     ...    30.38 (92.26%)
Average number of large basis fcns per batch ...    71.58 (93.76%)
Maximum spatial batch extension              ...  13.18, 14.25, 15.48 au
Average spatial batch extension              ...   0.34,  0.36,  0.37 au

Final grid set up in    0.9 sec
Final integration                            ... done (   0.2 sec)
Change in XC energy                          ...    -0.000107503
Integrated number of electrons               ...    18.000000747
Previous integrated no of electrons          ...    18.000002272

----------------
TOTAL SCF ENERGY
----------------

Total Energy       :         -115.73780830 Eh           -3149.38588 eV

Components:
Nuclear Repulsion  :           40.43785390 Eh            1100.36995 eV
Electronic Energy  :         -156.17566220 Eh           -4249.75582 eV
One Electron Energy:         -237.29553323 Eh           -6457.13973 eV
Two Electron Energy:           81.11987104 Eh            2207.38391 eV

Virial components:
Potential Energy   :         -230.98864051 Eh           -6285.52046 eV
Kinetic Energy     :          115.25083221 Eh            3136.13458 eV
Virial Ratio       :            2.00422536


DFT components:
N(Alpha)           :        9.000000373316 electrons
N(Beta)            :        9.000000373316 electrons
N(Total)           :       18.000000746632 electrons
E(XC)              :      -10.655631703384 Eh       
DFET-embed. en.    :        0.000000000000 Eh       

---------------
SCF CONVERGENCE
---------------

  Last Energy change         ...   -1.4633e-10  Tolerance :   1.0000e-08
  Last MAX-Density change    ...    1.1220e-06  Tolerance :   1.0000e-07
  Last RMS-Density change    ...    5.8607e-08  Tolerance :   5.0000e-09
  Last Orbital Gradient      ...    5.7110e-07  Tolerance :   1.0000e-05
  Last Orbital Rotation      ...    5.1476e-07  Tolerance :   1.0000e-05

             **** THE GBW FILE WAS UPDATED (1_geo_opt.gbw) ****
             **** DENSITY FILE WAS UPDATED (1_geo_opt.scfp.tmp) ****
             **** ENERGY FILE WAS UPDATED (1_geo_opt.en.tmp) ****
----------------
ORBITAL ENERGIES
----------------

  NO   OCC          E(Eh)            E(eV) 
   0   2.0000     -19.227990      -523.2202 
   1   2.0000     -10.315123      -280.6888 
   2   2.0000      -1.136712       -30.9315 
   3   2.0000      -0.795305       -21.6414 
   4   2.0000      -0.611613       -16.6428 
   5   2.0000      -0.541658       -14.7393 
   6   2.0000      -0.526303       -14.3214 
   7   2.0000      -0.433929       -11.8078 
   8   2.0000      -0.373499       -10.1634 
   9   0.0000       0.116593         3.1727 
  10   0.0000       0.156775         4.2661 
  11   0.0000       0.202514         5.5107 
  12   0.0000       0.205056         5.5799 
  13   0.0000       0.226419         6.1612 
  14   0.0000       0.304258         8.2793 
  15   0.0000       0.313168         8.5217 
  16   0.0000       0.404478        11.0064 
  17   0.0000       0.452591        12.3156 
  18   0.0000       0.485173        13.2022 
  19   0.0000       0.535736        14.5781 
  20   0.0000       0.543558        14.7910 
  21   0.0000       0.567843        15.4518 
  22   0.0000       0.598463        16.2850 
  23   0.0000       0.603218        16.4144 
  24   0.0000       0.671394        18.2696 
  25   0.0000       0.779407        21.2087 
  26   0.0000       0.832418        22.6512 
  27   0.0000       0.861214        23.4348 
  28   0.0000       0.989397        26.9229 
  29   0.0000       1.013893        27.5894 
  30   0.0000       1.109766        30.1983 
  31   0.0000       1.382753        37.6266 
  32   0.0000       1.512443        41.1557 
  33   0.0000       1.553398        42.2701 
  34   0.0000       1.603067        43.6217 
  35   0.0000       1.613168        43.8965 
  36   0.0000       1.623592        44.1802 
  37   0.0000       1.660565        45.1863 
  38   0.0000       1.688270        45.9402 
  39   0.0000       1.774195        48.2783 
  40   0.0000       1.952153        53.1208 
  41   0.0000       2.030724        55.2588 
  42   0.0000       2.054881        55.9162 
  43   0.0000       2.094973        57.0071 
  44   0.0000       2.114758        57.5455 
  45   0.0000       2.268577        61.7311 
  46   0.0000       2.333569        63.4996 
  47   0.0000       2.344965        63.8097 
  48   0.0000       2.380722        64.7827 
  49   0.0000       2.430100        66.1264 
  50   0.0000       2.496432        67.9314 
  51   0.0000       2.597144        70.6719 
  52   0.0000       2.639083        71.8131 
  53   0.0000       2.707348        73.6707 
  54   0.0000       2.841138        77.3113 
  55   0.0000       2.871647        78.1415 
  56   0.0000       2.888668        78.6046 
  57   0.0000       2.993425        81.4552 
  58   0.0000       3.096111        84.2495 
  59   0.0000       3.172580        86.3303 
  60   0.0000       3.300568        89.8130 
  61   0.0000       3.409714        92.7830 
  62   0.0000       3.441447        93.6465 
  63   0.0000       3.487507        94.8999 
  64   0.0000       3.613156        98.3190 
  65   0.0000       3.645354        99.1951 
  66   0.0000       3.666244        99.7636 
  67   0.0000       4.005472       108.9944 
  68   0.0000       4.224623       114.9578 
  69   0.0000       4.271830       116.2424 
  70   0.0000       4.456593       121.2700 
  71   0.0000       4.564580       124.2085 
  72   0.0000       5.346067       145.4739 
  73   0.0000       5.425207       147.6274 
  74   0.0000       5.554526       151.1463 
  75   0.0000       5.825851       158.5295 
  76   0.0000       5.833948       158.7498 
  77   0.0000       5.985227       162.8663 
  78   0.0000       6.379704       173.6006 
  79   0.0000       6.531228       177.7238 
  80   0.0000       6.745064       183.5425 
  81   0.0000       6.804128       185.1497 
  82   0.0000       7.039522       191.5551 
  83   0.0000       7.216094       196.3599 
  84   0.0000      22.405638       609.6884 
  85   0.0000      43.664481      1188.1709 

                    ********************************
                    * MULLIKEN POPULATION ANALYSIS *
                    ********************************

-----------------------
MULLIKEN ATOMIC CHARGES
-----------------------
   0 C :   -0.150693
   1 O :   -0.477776
   2 H :    0.312934
   3 H :    0.098496
   4 H :    0.118334
   5 H :    0.098705
Sum of atomic charges:   -0.0000000

--------------------------------
MULLIKEN REDUCED ORBITAL CHARGES
--------------------------------
  0 C s       :     3.223287  s :     3.223287
      pz      :     1.047658  p :     2.825778
      px      :     0.702145
      py      :     1.075975
      dz2     :     0.011163  d :     0.094208
      dxz     :     0.032433
      dyz     :     0.002602
      dx2y2   :     0.012819
      dxy     :     0.035192
      f0      :     0.001356  f :     0.007420
      f+1     :     0.000954
      f-1     :     0.000175
      f+2     :     0.001468
      f-2     :     0.000119
      f+3     :     0.001359
      f-3     :     0.001988
  1 O s       :     3.792775  s :     3.792775
      pz      :     1.759348  p :     4.652742
      px      :     1.313680
      py      :     1.579715
      dz2     :     0.003136  d :     0.030573
      dxz     :     0.006479
      dyz     :     0.005835
      dx2y2   :     0.008935
      dxy     :     0.006188
      f0      :     0.000269  f :     0.001685
      f+1     :     0.000233
      f-1     :     0.000087
      f+2     :     0.000287
      f-2     :     0.000235
      f+3     :     0.000367
      f-3     :     0.000206
  2 H s       :     0.639372  s :     0.639372
      pz      :     0.017007  p :     0.047694
      px      :     0.012721
      py      :     0.017966
  3 H s       :     0.882143  s :     0.882143
      pz      :     0.012070  p :     0.019361
      px      :     0.003008
      py      :     0.004283
  4 H s       :     0.861450  s :     0.861450
      pz      :     0.006285  p :     0.020216
      px      :     0.004176
      py      :     0.009755
  5 H s       :     0.881939  s :     0.881939
      pz      :     0.004915  p :     0.019356
      px      :     0.004958
      py      :     0.009483


                     *******************************
                     * LOEWDIN POPULATION ANALYSIS *
                     *******************************

----------------------
LOEWDIN ATOMIC CHARGES
----------------------
   0 C :   -0.384852
   1 O :   -0.076335
   2 H :    0.165707
   3 H :    0.093377
   4 H :    0.108706
   5 H :    0.093396

-------------------------------
LOEWDIN REDUCED ORBITAL CHARGES
-------------------------------
  0 C s       :     2.863104  s :     2.863104
      pz      :     1.096987  p :     3.051989
      px      :     0.846032
      py      :     1.108969
      dz2     :     0.072529  d :     0.412739
      dxz     :     0.113799
      dyz     :     0.020602
      dx2y2   :     0.082377
      dxy     :     0.123432
      f0      :     0.007830  f :     0.057020
      f+1     :     0.007163
      f-1     :     0.000855
      f+2     :     0.012540
      f-2     :     0.004779
      f+3     :     0.011735
      f-3     :     0.012119
  1 O s       :     3.366365  s :     3.366365
      pz      :     1.699051  p :     4.633776
      px      :     1.381198
      py      :     1.553527
      dz2     :     0.006136  d :     0.071550
      dxz     :     0.017863
      dyz     :     0.008089
      dx2y2   :     0.019335
      dxy     :     0.020128
      f0      :     0.000483  f :     0.004643
      f+1     :     0.000623
      f-1     :     0.000072
      f+2     :     0.001050
      f-2     :     0.000560
      f+3     :     0.000890
      f-3     :     0.000965
  2 H s       :     0.675199  s :     0.675199
      pz      :     0.055766  p :     0.159094
      px      :     0.033913
      py      :     0.069416
  3 H s       :     0.846822  s :     0.846822
      pz      :     0.036175  p :     0.059800
      px      :     0.009712
      py      :     0.013913
  4 H s       :     0.831691  s :     0.831691
      pz      :     0.019184  p :     0.059602
      px      :     0.011571
      py      :     0.028848
  5 H s       :     0.846772  s :     0.846772
      pz      :     0.015583  p :     0.059832
      px      :     0.015167
      py      :     0.029082


                      *****************************
                      * MAYER POPULATION ANALYSIS *
                      *****************************

  NA   - Mulliken gross atomic population
  ZA   - Total nuclear charge
  QA   - Mulliken gross atomic charge
  VA   - Mayer's total valence
  BVA  - Mayer's bonded valence
  FA   - Mayer's free valence

  ATOM       NA         ZA         QA         VA         BVA        FA
  0 C      6.1507     6.0000    -0.1507     3.9348     3.9348    -0.0000
  1 O      8.4778     8.0000    -0.4778     1.8878     1.8878     0.0000
  2 H      0.6871     1.0000     0.3129     0.9137     0.9137    -0.0000
  3 H      0.9015     1.0000     0.0985     0.9595     0.9595    -0.0000
  4 H      0.8817     1.0000     0.1183     0.9599     0.9599    -0.0000
  5 H      0.9013     1.0000     0.0987     0.9597     0.9597     0.0000

  Mayer bond orders larger than 0.1
B(  0-C ,  1-O ) :   0.9984 B(  0-C ,  3-H ) :   0.9755 B(  0-C ,  4-H ) :   0.9749 
B(  0-C ,  5-H ) :   0.9756 B(  1-O ,  2-H ) :   0.9002 

-------
TIMINGS
-------

Total SCF time: 0 days 0 hours 0 min 4 sec 

Total time                  ....       4.666 sec
Sum of individual times     ....       4.325 sec  ( 92.7%)

Fock matrix formation       ....       2.999 sec  ( 64.3%)
  XC integration            ....       0.929 sec  ( 31.0% of F)
    Basis function eval.    ....       0.202 sec  ( 21.8% of XC)
    Density eval.           ....       0.126 sec  ( 13.6% of XC)
    XC-Functional eval.     ....       0.326 sec  ( 35.1% of XC)
    XC-Potential eval.      ....       0.124 sec  ( 13.4% of XC)
Diagonalization             ....       0.003 sec  (  0.1%)
Density matrix formation    ....       0.018 sec  (  0.4%)
Population analysis         ....       0.011 sec  (  0.2%)
Initial guess               ....       0.004 sec  (  0.1%)
Orbital Transformation      ....       0.000 sec  (  0.0%)
Orbital Orthonormalization  ....       0.002 sec  (  0.0%)
DIIS solution               ....       0.000 sec  (  0.0%)
SOSCF solution              ....       0.009 sec  (  0.2%)
Grid generation             ....       1.281 sec  ( 27.4%)


-------------------------------------------------------------------------------
                          DFT DISPERSION CORRECTION                            
                                                                               
                              DFTD3 V3.1  Rev 1                                
                              USING zero damping                               
-------------------------------------------------------------------------------
The omegaB97X-D3 functional is recognized. Fit by Chai et al.
Active option DFTDOPT                   ...         3   

molecular C6(AA) [au] = 208.715784 


            DFT-D V3
 parameters
 s6 scaling factor         :     1.0000 
 rs6 scaling factor        :     1.2810 
 s8 scaling factor         :     1.0000 
 rs8 scaling factor        :     1.0940 
 Damping factor alpha6     :    14.0000 
 Damping factor alpha8     :    16.0000 
 ad hoc parameters k1-k3   :    16.0000     1.3333    -4.0000 

 Edisp/kcal,au: -0.149902348689  -0.000238884573 
 E6   /kcal   :  -0.029549636 
 E8   /kcal   :  -0.120352713 
 % E8         :  80.287409496 

-------------------------   ----------------
Dispersion correction           -0.000238885
-------------------------   ----------------


-------------------------   --------------------
FINAL SINGLE POINT ENERGY      -115.738047183415
-------------------------   --------------------

                                *** OPTIMIZATION RUN DONE ***

                            ***************************************
                            *     ORCA property calculations      *
                            ***************************************

                                    ---------------------
                                    Active property flags
                                    ---------------------
   (+) Dipole Moment


------------------------------------------------------------------------------
                       ORCA ELECTRIC PROPERTIES CALCULATION
------------------------------------------------------------------------------

Dipole Moment Calculation                       ... on
Quadrupole Moment Calculation                   ... off
Polarizability Calculation                      ... off
GBWName                                         ... 1_geo_opt.gbw
Electron density file                           ... 1_geo_opt.scfp.tmp
The origin for moment calculation is the CENTER OF MASS  = ( 7.033628, -2.139988  1.369122)

-------------
DIPOLE MOMENT
-------------
                                X             Y             Z
Electronic contribution:      1.75235      -0.02806       0.42302
Nuclear contribution   :     -2.06222       0.47552      -0.82129
                        -----------------------------------------
Total Dipole Moment    :     -0.30987       0.44745      -0.39827
                        -----------------------------------------
Magnitude (a.u.)       :      0.67442
Magnitude (Debye)      :      1.71425



--------------------
Rotational spectrum 
--------------------
 
Rotational constants in cm-1:     4.290009     0.834026     0.804874 
Rotational constants in MHz : 128611.238122 25003.464527 24129.508372 

 Dipole components along the rotational axes: 
x,y,z [a.u.] :    -0.333110     0.586398     0.004778 
x,y,z [Debye]:    -0.846699     1.490505     0.012145 

 
------------------------------------------------------------------------------
                      ORCA CHELPG CHARGES GENERATION
------------------------------------------------------------------------------

GBW file                           ... 1_geo_opt.gbw

Reading the GBW file               ... done

Grid spacing                       ...     0.300000
Point Cut-Off                      ...     2.800000
Van-der-Waals Radii                ...        COSMO
Total charge                       ...            0


Number of points X direction       ...           26
Number of points Y direction       ...           24
Number of points Z direction       ...           24
Maximum number of possible points  ...        14976
Final number of points             ...         5943


CHELPG Charges            
--------------------------------
  0   C   :       0.089989
  1   O   :      -0.606313
  2   H   :       0.403932
  3   H   :       0.015498
  4   H   :       0.082060
  5   H   :       0.014835
--------------------------------
Total charge:     0.000000
--------------------------------

CHELPG charges calculated...

Timings for individual parts in CHELPG calculation:
Grid generation                 ...        0.001 sec (=   0.000 min)
Potential calculation           ...        0.656 sec (=   0.011 min)
Fit to the potential            ...        0.002 sec (=   0.000 min)
------------------------------------------------------------------------------


Timings for individual modules:

Sum of individual times         ...       32.208 sec (=   0.537 min)
GTO integral calculation        ...        5.392 sec (=   0.090 min)  16.7 %
SCF iterations                  ...       18.826 sec (=   0.314 min)  58.5 %
SCF Gradient evaluation         ...        4.177 sec (=   0.070 min)  13.0 %
Geometry relaxation             ...        3.094 sec (=   0.052 min)   9.6 %
CHELPG charge generation        ...        0.719 sec (=   0.012 min)   2.2 %
                             ****ORCA TERMINATED NORMALLY****
TOTAL RUN TIME: 0 days 0 hours 0 minutes 35 seconds 396 msec
