
                                 *****************
                                 * O   R   C   A *
                                 *****************

           --- An Ab Initio, DFT and Semiempirical electronic structure package ---

                  #######################################################
                  #                        -***-                        #
                  #          Department of theory and spectroscopy      #
                  #               Directorship: Frank Neese             #
                  #        Max Planck Institute fuer Kohlenforschung    #
                  #                Kaiser Wilhelm Platz 1               #
                  #                 D-45470 Muelheim/Ruhr               #
                  #                      Germany                        #
                  #                                                     #
                  #                  All rights reserved                #
                  #                        -***-                        #
                  #######################################################


                         Program Version 4.1.2  - RELEASE  -


 With contributions from (in alphabetic order):
   Daniel Aravena         : Magnetic Properties
   Michael Atanasov       : Ab Initio Ligand Field Theory
   Alexander A. Auer      : GIAO ZORA
   Ute Becker             : Parallelization
   Giovanni Bistoni       : ED, Open-shell LED
   Martin Brehm           : Molecular dynamics
   Dmytro Bykov           : SCF Hessian
   Vijay G. Chilkuri      : MRCI spin determinant printing
   Dipayan Datta          : RHF DLPNO-CCSD density
   Achintya Kumar Dutta   : EOM-CC, STEOM-CC
   Dmitry Ganyushin       : Spin-Orbit,Spin-Spin,Magnetic field MRCI
   Miquel Garcia          : C-PCM Hessian
   Yang Guo               : DLPNO-NEVPT2, CIM, IAO-localization
   Andreas Hansen         : Spin unrestricted coupled pair/coupled cluster methods
   Benjamin Helmich-Paris : CASSCF linear response (MC-RPA)
   Lee Huntington         : MR-EOM, pCC
   Robert Izsak           : Overlap fitted RIJCOSX, COSX-SCS-MP3, EOM
   Christian Kollmar      : KDIIS, OOCD, Brueckner-CCSD(T), CCSD density
   Simone Kossmann        : Meta GGA functionals, TD-DFT gradient, OOMP2, MP2 Hessian
   Martin Krupicka        : AUTO-CI
   Lucas Lang             : DCDCAS
   Dagmar Lenk            : GEPOL surface, SMD
   Dimitrios Liakos       : Extrapolation schemes; parallel MDCI
   Dimitrios Manganas     : ROCIS; embedding schemes
   Dimitrios Pantazis     : SARC Basis sets
   Taras Petrenko         : DFT Hessian,TD-DFT gradient, ASA, ECA, R-Raman, ABS, FL, XAS/XES, NRVS
   Peter Pinski           : DLPNO-MP2, DLPNO-MP2 Gradient
   Christoph Reimann      : Effective Core Potentials
   Marius Retegan         : Local ZFS, SOC
   Christoph Riplinger    : Optimizer, TS searches, QM/MM, DLPNO-CCSD(T), (RO)-DLPNO pert. Triples
   Tobias Risthaus        : Range-separated hybrids, TD-DFT gradient, RPA, STAB
   Michael Roemelt        : Restricted open shell CIS
   Masaaki Saitow         : Open-shell DLPNO
   Barbara Sandhoefer     : DKH picture change effects
   Avijit Sen             : IP-ROCIS
   Kantharuban Sivalingam : CASSCF convergence, NEVPT2, FIC-MRCI
   Bernardo de Souza      : ESD, SOC TD-DFT
   Georgi Stoychev        : AutoAux, RI-MP2 NMR
   Willem Van den Heuvel  : Paramagnetic NMR
   Boris Wezisla          : Elementary symmetry handling
   Frank Wennmohs         : Technical directorship


 We gratefully acknowledge several colleagues who have allowed us to
 interface, adapt or use parts of their codes:
   Stefan Grimme, W. Hujo, H. Kruse,             : VdW corrections, initial TS optimization,
                  C. Bannwarth                     DFT functionals, gCP, sTDA/sTD-DF
   Ed Valeev                                     : LibInt (2-el integral package), F12 methods
   Garnet Chan, S. Sharma, J. Yang, R. Olivares  : DMRG
   Ulf Ekstrom                                   : XCFun DFT Library
   Mihaly Kallay                                 : mrcc  (arbitrary order and MRCC methods)
   Andreas Klamt, Michael Diedenhofen            : otool_cosmo (COSMO solvation model)
   Jiri Pittner, Ondrej Demel                    : Mk-CCSD
   Frank Weinhold                                : gennbo (NPA and NBO analysis)
   Christopher J. Cramer and Donald G. Truhlar   : smd solvation model
   Lars Goerigk                                  : TD-DFT with DH, B97 family of functionals
   V. Asgeirsson, H. Jonsson                     : NEB implementation
   FAccTs GmbH                                   : IRC, NEB, NEB-TS, Multilevel


 Your calculation uses the libint2 library for the computation of 2-el integrals
 For citations please refer to: http://libint.valeyev.net

 This ORCA versions uses:
   CBLAS   interface :  Fast vector & matrix operations
   LAPACKE interface :  Fast linear algebra routines
   SCALAPACK package :  Parallel linear algebra routines


Your calculation utilizes the atom-pairwise dispersion correction
with the zero-damping scheme (D30)
Cite in your paper:
S.Grimme, J.Antony, S.Ehrlich and H.Krieg, J.Chem.Phys., 132, (2010), 154104 
   

XCFun DFT library Copyright 2009-2010 Ulf Ekstrom and contributors.
See http://admol.org/xcfun for more information. This is free soft-
ware; see the source code for copying conditions. There is ABSOLUTELY
NO WARRANTY; not even for MERCHANTABILITY or FITNESS FOR A PARTICULAR
PURPOSE. For details see the documentation. Scientific users of this 
library should cite U. Ekstrom, L. Visscher, R. Bast, A. J. Thorvald-
sen and K. Ruud; J.Chem.Theor.Comp. 2010, DOI: 10.1021/ct100117s
XCFun Version 0.99 
----- Orbital basis set information -----
Your calculation utilizes the basis: def2-TZVP
   F. Weigend and R. Ahlrichs, Phys. Chem. Chem. Phys. 7, 3297 (2005).

================================================================================
                                        WARNINGS
                       Please study these warnings very carefully!
================================================================================


WARNING: Geometry Optimization
  ===> : Switching off AutoStart
         For restart on a previous wavefunction, please use MOREAD

INFO   : the flag for use of LIBINT has been found!

================================================================================
                                       INPUT FILE
================================================================================
NAME = bonds_angles_[1[6[8][1][1]]]-[6[8[1]][1][1][1]]-[8[6[1][1][1]][1]]_1.in
|  1> #Run DFT geometry optimization
|  2> ! wB97X-D3 def2-TZVP TIGHTSCF Grid5 FinalGrid6 Opt CHELPG PAL4
|  3> 
|  4> %base "1_geo_opt"
|  5> %geom MaxIter 500
|  6> end
|  7> 
|  8> %geom
|  9>   Constraints
| 10>     { A 5 0 1 C }
| 11>   end
| 12> end
| 13> 
| 14> 
| 15> * xyz 0 1
| 16>   C                    3.011308             -1.180897            0.598492            
| 17>   O                    4.395248             -1.132479            0.872226            
| 18>   H                    4.772196             -0.379022            0.412493            
| 19>   H                    2.806434             -1.318965            -0.469350           
| 20>   H                    2.611632             -2.040265            1.135898            
| 21>   H                    2.481461             -0.285930            0.944354            
| 22> *
| 23> 
| 24>                          ****END OF INPUT****
================================================================================

                       *****************************
                       * Geometry Optimization Run *
                       *****************************

Geometry optimization settings:
Update method            Update   .... BFGS
Choice of coordinates    CoordSys .... Z-matrix Internals
Initial Hessian          InHess   .... Almoef's Model

Convergence Tolerances:
Energy Change            TolE     ....  5.0000e-06 Eh
Max. Gradient            TolMAXG  ....  3.0000e-04 Eh/bohr
RMS Gradient             TolRMSG  ....  1.0000e-04 Eh/bohr
Max. Displacement        TolMAXD  ....  4.0000e-03 bohr
RMS Displacement         TolRMSD  ....  2.0000e-03 bohr

------------------------------------------------------------------------------
                        ORCA OPTIMIZATION COORDINATE SETUP
------------------------------------------------------------------------------

The optimization will be done in new redundant internal coordinates
Making redundant internal coordinates   ...  (new redundants) done
Evaluating the initial hessian          ...  (Almloef) done
Evaluating the coordinates              ...  done
Calculating the B-matrix                .... done
Calculating the G-matrix                .... done
Diagonalizing the G-matrix              .... done
Imposing constraints:
 Iter   0:  RMS(Cart)=    0.0000000000 RMS(Int)=    0.0000000000
CONVERGED
The first mode is                       ....    3
The number of degrees of freedom        ....   12
Storing new coordinates                 .... done

    -----------------------------------------------------------------
                    Redundant Internal Coordinates


    -----------------------------------------------------------------
         Definition                    Initial Value    Approx d2E/dq
    -----------------------------------------------------------------
      1. B(O   1,C   0)                  1.4116         0.516943   
      2. B(H   2,O   1)                  0.9598         0.520412   
      3. B(H   3,C   0)                  1.0960         0.352187   
      4. B(H   4,C   0)                  1.0895         0.360732   
      5. B(H   5,C   0)                  1.0960         0.352186   
      6. A(O   1,C   0,H   4)          106.9212         0.340286   
      7. A(O   1,C   0,H   3)          112.1177         0.338926   
      8. A(O   1,C   0,H   5)          112.6282         0.338926 C 
      9. A(H   3,C   0,H   5)          108.6587         0.288819   
     10. A(H   4,C   0,H   5)          108.1237         0.289906   
     11. A(H   3,C   0,H   4)          108.2176         0.289907   
     12. A(C   0,O   1,H   2)          108.6085         0.358838   
     13. D(H   2,O   1,C   0,H   5)    -61.0985         0.021177   
     14. D(H   2,O   1,C   0,H   3)     61.8274         0.021177   
     15. D(H   2,O   1,C   0,H   4)   -179.7236         0.021177   
    -----------------------------------------------------------------

Number of atoms                         .... 6
Number of degrees of freedom            .... 15

         *************************************************************
         *                GEOMETRY OPTIMIZATION CYCLE   1            *
         *************************************************************
---------------------------------
CARTESIAN COORDINATES (ANGSTROEM)
---------------------------------
  C      3.011308   -1.180897    0.598492
  O      4.395248   -1.132479    0.872226
  H      4.772196   -0.379022    0.412493
  H      2.806434   -1.318965   -0.469350
  H      2.611632   -2.040265    1.135898
  H      2.481461   -0.285930    0.944354

----------------------------
CARTESIAN COORDINATES (A.U.)
----------------------------
  NO LB      ZA    FRAG     MASS         X           Y           Z
   0 C     6.0000    0    12.011    5.690547   -2.231572    1.130986
   1 O     8.0000    0    15.999    8.305815   -2.140075    1.648268
   2 H     1.0000    0     1.008    9.018143   -0.716248    0.779499
   3 H     1.0000    0     1.008    5.303392   -2.492483   -0.886943
   4 H     1.0000    0     1.008    4.935269   -3.855542    2.146536
   5 H     1.0000    0     1.008    4.689282   -0.540329    1.784570

--------------------------------
INTERNAL COORDINATES (ANGSTROEM)
--------------------------------
 C      0   0   0     0.000000000000     0.00000000     0.00000000
 O      1   0   0     1.411582278537     0.00000000     0.00000000
 H      2   1   0     0.959761260336   108.60845239     0.00000000
 H      1   2   3     1.096048660172   112.11769769    61.82744160
 H      1   2   3     1.089522589594   106.92120285   180.27635511
 H      1   2   3     1.096049404699   112.62815823   298.90147974

---------------------------
INTERNAL COORDINATES (A.U.)
---------------------------
 C      0   0   0     0.000000000000     0.00000000     0.00000000
 O      1   0   0     2.667503921932     0.00000000     0.00000000
 H      2   1   0     1.813685935982   108.60845239     0.00000000
 H      1   2   3     2.071231797176   112.11769769    61.82744160
 H      1   2   3     2.058899311054   106.92120285   180.27635511
 H      1   2   3     2.071233204129   112.62815823   298.90147974

---------------------
BASIS SET INFORMATION
---------------------
There are 3 groups of distinct atoms

 Group   1 Type C   : 11s6p2d1f contracted to 5s3p2d1f pattern {62111/411/11/1}
 Group   2 Type O   : 11s6p2d1f contracted to 5s3p2d1f pattern {62111/411/11/1}
 Group   3 Type H   : 5s1p contracted to 3s1p pattern {311/1}

Atom   0C    basis set group =>   1
Atom   1O    basis set group =>   2
Atom   2H    basis set group =>   3
Atom   3H    basis set group =>   3
Atom   4H    basis set group =>   3
Atom   5H    basis set group =>   3


           ************************************************************
           *        Program running with 4 parallel MPI-processes     *
           *              working on a common directory               *
           ************************************************************
------------------------------------------------------------------------------
                           ORCA GTO INTEGRAL CALCULATION
------------------------------------------------------------------------------

                         BASIS SET STATISTICS AND STARTUP INFO

 # of primitive gaussian shells          ...   64
 # of primitive gaussian functions       ...  124
 # of contracted shells                  ...   38
 # of contracted basis functions         ...   86
 Highest angular momentum                ...    3
 Maximum contraction depth               ...    6
 Integral package used                   ... LIBINT
 Integral threshhold            Thresh   ...  2.500e-11
 Primitive cut-off              TCut     ...  2.500e-12


------------------------------ INTEGRAL EVALUATION ----------------------------


 * One electron integrals 
 Pre-screening matrix                    ... done
 Shell pair data                         ... done (   0.000 sec)



           ************************************************************
           *        Program running with 4 parallel MPI-processes     *
           *              working on a common directory               *
           ************************************************************
-------------------------------------------------------------------------------
                                 ORCA SCF
-------------------------------------------------------------------------------

------------
SCF SETTINGS
------------
Hamiltonian:
 Density Functional     Method          .... DFT(GTOs)
 Exchange Functional    Exchange        .... WB97X-D3
 Correlation Functional Correlation     .... WB97X-D3
 Gradients option       PostSCFGGA      .... off
 Hybrid DFT is turned on
   Fraction HF Exchange ScalHFX         ....  0.195728
   Scaling of DF-GGA-X  ScalDFX         ....  0.000000
   Scaling of DF-GGA-C  ScalDFC         ....  1.000000
   Scaling of DF-LDA-C  ScalLDAC        ....  1.000000
   Perturbative correction              ....  0.000000
   Density functional embedding theory  .... OFF
 Long-range corrected/Screened/Range-Separated Hybrid DFT is turned on
   Amount of maximum screened exact exchange              ....  0.804272
   Range separation parameter mu (erf(mu*r12)/r12)        ....  0.250000


General Settings:
 Integral files         IntName         .... 1_geo_opt
 Hartree-Fock type      HFTyp           .... RHF
 Total Charge           Charge          ....    0
 Multiplicity           Mult            ....    1
 Number of Electrons    NEL             ....   18
 Basis Dimension        Dim             ....   86
 Nuclear Repulsion      ENuc            ....     40.4258689855 Eh

Convergence Acceleration:
 DIIS                   CNVDIIS         .... on
   Start iteration      DIISMaxIt       ....    12
   Startup error        DIISStart       ....  0.200000
   # of expansion vecs  DIISMaxEq       ....     5
   Bias factor          DIISBfac        ....   1.050
   Max. coefficient     DIISMaxC        ....  10.000
 Newton-Raphson         CNVNR           .... off
 SOSCF                  CNVSOSCF        .... on
   Start iteration      SOSCFMaxIt      ....   150
   Startup grad/error   SOSCFStart      ....  0.003300
 Level Shifting         CNVShift        .... on
   Level shift para.    LevelShift      ....    0.2500
   Turn off err/grad.   ShiftErr        ....    0.0010
 Zerner damping         CNVZerner       .... off
 Static damping         CNVDamp         .... on
   Fraction old density DampFac         ....    0.7000
   Max. Damping (<1)    DampMax         ....    0.9800
   Min. Damping (>=0)   DampMin         ....    0.0000
   Turn off err/grad.   DampErr         ....    0.1000
 Fernandez-Rico         CNVRico         .... off

SCF Procedure:
 Maximum # iterations   MaxIter         ....   125
 SCF integral mode      SCFMode         .... Direct
   Integral package                     .... LIBINT
 Reset frequency        DirectResetFreq ....    20
 Integral Threshold     Thresh          ....  2.500e-11 Eh
 Primitive CutOff       TCut            ....  2.500e-12 Eh

Convergence Tolerance:
 Convergence Check Mode ConvCheckMode   .... Total+1el-Energy
 Convergence forced     ConvForced      .... 0
 Energy Change          TolE            ....  1.000e-08 Eh
 1-El. energy change                    ....  1.000e-05 Eh
 Orbital Gradient       TolG            ....  1.000e-05
 Orbital Rotation angle TolX            ....  1.000e-05
 DIIS Error             TolErr          ....  5.000e-07


Diagonalization of the overlap matrix:
Smallest eigenvalue                        ... 1.650e-03
Time for diagonalization                   ...    0.061 sec
Threshold for overlap eigenvalues          ... 1.000e-08
Number of eigenvalues below threshold      ... 0
Time for construction of square roots      ...    0.004 sec
Total time needed                          ...    0.066 sec

-------------------
DFT GRID GENERATION
-------------------

General Integration Accuracy     IntAcc      ...  5.010
Radial Grid Type                 RadialGrid  ... Gauss-Chebyshev
Angular Grid (max. acc.)         AngularGrid ... Lebedev-434
Angular grid pruning method      GridPruning ... 3 (G Style)
Weight generation scheme         WeightScheme... Becke
Basis function cutoff            BFCut       ...    1.0000e-11
Integration weight cutoff        WCut        ...    1.0000e-14
Grids for H and He will be reduced by one unit

# of grid points (after initial pruning)     ...  48308 (   0.0 sec)
# of grid points (after weights+screening)   ...  46678 (   0.0 sec)
nearest neighbour list constructed           ...    0.0 sec
Grid point re-assignment to atoms done       ...    0.0 sec
Grid point division into batches done        ...    0.3 sec
Reduced shell lists constructed in    0.3 sec

Total number of grid points                  ...    46678
Total number of batches                      ...      733
Average number of points per batch           ...       63
Average number of grid points per atom       ...     7780
Average number of shells per batch           ...    33.12 (87.17%)
Average number of basis functions per batch  ...    76.83 (89.34%)
Average number of large shells per batch     ...    30.62 (92.44%)
Average number of large basis fcns per batch ...    72.33 (94.14%)
Maximum spatial batch extension              ...  15.76, 14.99, 16.58 au
Average spatial batch extension              ...   0.40,  0.42,  0.42 au

Time for grid setup =    0.405 sec

------------------------------
INITIAL GUESS: MODEL POTENTIAL
------------------------------
Loading Hartree-Fock densities                     ... done
Calculating cut-offs                               ... done
Setting up the integral package                    ... done
Initializing the effective Hamiltonian             ... done
Starting the Coulomb interaction                   ... done (   0.0 sec)
Reading the grid                                   ... done
Mapping shells                                     ... done
Starting the XC term evaluation                    ... done (   0.1 sec)
  promolecular density results
     # of electrons  =     17.998045133
     EX              =    -14.429802538
     EC              =     -0.575079865
     EX+EC           =    -15.004882403
Transforming the Hamiltonian                       ... done (   0.0 sec)
Diagonalizing the Hamiltonian                      ... done (   0.0 sec)
Back transforming the eigenvectors                 ... done (   0.0 sec)
Now organizing SCF variables                       ... done
                      ------------------
                      INITIAL GUESS DONE (   0.6 sec)
                      ------------------
--------------
SCF ITERATIONS
--------------
ITER       Energy         Delta-E        Max-DP      RMS-DP      [F,P]     Damp
               ***  Starting incremental Fock matrix formation  ***
  0   -115.6513139605   0.000000000000 0.03690242  0.00147353  0.2521058 0.7000
  1   -115.6883309690  -0.037017008545 0.02201498  0.00104014  0.1261072 0.7000
                               ***Turning on DIIS***
  2   -115.7053718654  -0.017040896367 0.03156297  0.00188016  0.0490284 0.0000
  3   -115.7330706376  -0.027698772255 0.01773038  0.00068005  0.0610385 0.0000
  4   -115.7375896547  -0.004519017085 0.00406104  0.00013182  0.0065898 0.0000
                      *** Initiating the SOSCF procedure ***
                           *** Shutting down DIIS ***
                      *** Re-Reading the Fockian *** 
                      *** Removing any level shift *** 
ITER      Energy       Delta-E        Grad      Rot      Max-DP    RMS-DP
  5   -115.73768395  -0.0000942987  0.000487  0.000487  0.000681  0.000043
               *** Restarting incremental Fock matrix formation ***
  6   -115.73769211  -0.0000081601  0.000153  0.000202  0.000489  0.000026
  7   -115.73769284  -0.0000007225  0.000056  0.000109  0.000208  0.000011
  8   -115.73769289  -0.0000000572  0.000020  0.000018  0.000030  0.000001
  9   -115.73769290  -0.0000000057  0.000011  0.000008  0.000015  0.000001
 10   -115.73769290  -0.0000000015  0.000003  0.000003  0.000003  0.000000
                  ***Gradient check signals convergence***
              ***Rediagonalizing the Fockian in SOSCF/NRSCF***

               *****************************************************
               *                     SUCCESS                       *
               *           SCF CONVERGED AFTER  11 CYCLES          *
               *****************************************************

Setting up the final grid:

General Integration Accuracy     IntAcc      ...  5.340
Radial Grid Type                 RadialGrid  ... Gauss-Chebyshev
Angular Grid (max. acc.)         AngularGrid ... Lebedev-590
Angular grid pruning method      GridPruning ... 3 (G Style)
Weight generation scheme         WeightScheme... Becke
Basis function cutoff            BFCut       ...    1.0000e-11
Integration weight cutoff        WCut        ...    1.0000e-14
Grids for H and He will be reduced by one unit

# of grid points (after initial pruning)     ...  77324 (   0.0 sec)
# of grid points (after weights+screening)   ...  74515 (   0.0 sec)
nearest neighbour list constructed           ...    0.0 sec
Grid point re-assignment to atoms done       ...    0.0 sec
Grid point division into batches done        ...    0.8 sec
Reduced shell lists constructed in    0.8 sec

Total number of grid points                  ...    74515
Total number of batches                      ...     1168
Average number of points per batch           ...       63
Average number of grid points per atom       ...    12419
Average number of shells per batch           ...    32.91 (86.60%)
Average number of basis functions per batch  ...    76.35 (88.78%)
Average number of large shells per batch     ...    30.34 (92.19%)
Average number of large basis fcns per batch ...    71.61 (93.79%)
Maximum spatial batch extension              ...  13.18, 15.65, 15.48 au
Average spatial batch extension              ...   0.34,  0.37,  0.37 au

Final grid set up in    0.9 sec
Final integration                            ... done (   0.2 sec)
Change in XC energy                          ...    -0.000107482
Integrated number of electrons               ...    18.000000742
Previous integrated no of electrons          ...    18.000002276

----------------
TOTAL SCF ENERGY
----------------

Total Energy       :         -115.73780038 Eh           -3149.38566 eV

Components:
Nuclear Repulsion  :           40.42586899 Eh            1100.04382 eV
Electronic Energy  :         -156.16366937 Eh           -4249.42948 eV
One Electron Energy:         -237.27233923 Eh           -6456.50859 eV
Two Electron Energy:           81.10866986 Eh            2207.07911 eV

Virial components:
Potential Energy   :         -230.98437965 Eh           -6285.40451 eV
Kinetic Energy     :          115.24657927 Eh            3136.01885 eV
Virial Ratio       :            2.00426235


DFT components:
N(Alpha)           :        9.000000371114 electrons
N(Beta)            :        9.000000371114 electrons
N(Total)           :       18.000000742228 electrons
E(XC)              :      -10.654744617051 Eh       
DFET-embed. en.    :        0.000000000000 Eh       

---------------
SCF CONVERGENCE
---------------

  Last Energy change         ...   -1.0419e-10  Tolerance :   1.0000e-08
  Last MAX-Density change    ...    1.8725e-06  Tolerance :   1.0000e-07
  Last RMS-Density change    ...    7.9418e-08  Tolerance :   5.0000e-09
  Last Orbital Gradient      ...    1.3481e-06  Tolerance :   1.0000e-05
  Last Orbital Rotation      ...    7.8011e-07  Tolerance :   1.0000e-05

             **** THE GBW FILE WAS UPDATED (1_geo_opt.gbw) ****
             **** DENSITY FILE WAS UPDATED (1_geo_opt.scfp.tmp) ****
             **** ENERGY FILE WAS UPDATED (1_geo_opt.en.tmp) ****
----------------
ORBITAL ENERGIES
----------------

  NO   OCC          E(Eh)            E(eV) 
   0   2.0000     -19.228486      -523.2337 
   1   2.0000     -10.315071      -280.6873 
   2   2.0000      -1.136526       -30.9264 
   3   2.0000      -0.795127       -21.6365 
   4   2.0000      -0.611496       -16.6397 
   5   2.0000      -0.541594       -14.7375 
   6   2.0000      -0.526087       -14.3156 
   7   2.0000      -0.434000       -11.8097 
   8   2.0000      -0.373649       -10.1675 
   9   0.0000       0.116405         3.1675 
  10   0.0000       0.156513         4.2589 
  11   0.0000       0.202442         5.5087 
  12   0.0000       0.205197         5.5837 
  13   0.0000       0.226461         6.1623 
  14   0.0000       0.304289         8.2801 
  15   0.0000       0.313512         8.5311 
  16   0.0000       0.404309        11.0018 
  17   0.0000       0.452702        12.3186 
  18   0.0000       0.484650        13.1880 
  19   0.0000       0.535709        14.5774 
  20   0.0000       0.543504        14.7895 
  21   0.0000       0.567216        15.4347 
  22   0.0000       0.598640        16.2898 
  23   0.0000       0.603440        16.4204 
  24   0.0000       0.671026        18.2596 
  25   0.0000       0.778564        21.1858 
  26   0.0000       0.831956        22.6387 
  27   0.0000       0.860952        23.4277 
  28   0.0000       0.989744        26.9323 
  29   0.0000       1.014283        27.6000 
  30   0.0000       1.109598        30.1937 
  31   0.0000       1.382155        37.6104 
  32   0.0000       1.512721        41.1632 
  33   0.0000       1.553658        42.2772 
  34   0.0000       1.602537        43.6072 
  35   0.0000       1.613180        43.8969 
  36   0.0000       1.624570        44.2068 
  37   0.0000       1.661277        45.2056 
  38   0.0000       1.687176        45.9104 
  39   0.0000       1.775862        48.3237 
  40   0.0000       1.951534        53.1039 
  41   0.0000       2.031008        55.2665 
  42   0.0000       2.055579        55.9351 
  43   0.0000       2.093679        56.9719 
  44   0.0000       2.114197        57.5302 
  45   0.0000       2.266903        61.6856 
  46   0.0000       2.333660        63.5021 
  47   0.0000       2.345697        63.8297 
  48   0.0000       2.380367        64.7731 
  49   0.0000       2.430570        66.1392 
  50   0.0000       2.497326        67.9557 
  51   0.0000       2.596104        70.6436 
  52   0.0000       2.639585        71.8268 
  53   0.0000       2.705472        73.6196 
  54   0.0000       2.840334        77.2894 
  55   0.0000       2.869559        78.0847 
  56   0.0000       2.889006        78.6138 
  57   0.0000       2.992748        81.4368 
  58   0.0000       3.095857        84.2425 
  59   0.0000       3.171953        86.3132 
  60   0.0000       3.299452        89.7826 
  61   0.0000       3.407267        92.7164 
  62   0.0000       3.439510        93.5938 
  63   0.0000       3.489577        94.9562 
  64   0.0000       3.611761        98.2810 
  65   0.0000       3.645390        99.1961 
  66   0.0000       3.667130        99.7877 
  67   0.0000       4.002800       108.9217 
  68   0.0000       4.224847       114.9639 
  69   0.0000       4.273384       116.2847 
  70   0.0000       4.454921       121.2246 
  71   0.0000       4.563687       124.1842 
  72   0.0000       5.346414       145.4833 
  73   0.0000       5.425790       147.6432 
  74   0.0000       5.552144       151.0815 
  75   0.0000       5.826044       158.5347 
  76   0.0000       5.832412       158.7080 
  77   0.0000       5.985296       162.8682 
  78   0.0000       6.372475       173.4039 
  79   0.0000       6.530437       177.7022 
  80   0.0000       6.744638       183.5309 
  81   0.0000       6.803316       185.1276 
  82   0.0000       7.039015       191.5413 
  83   0.0000       7.213301       196.2839 
  84   0.0000      22.406106       609.7011 
  85   0.0000      43.664343      1188.1672 

                    ********************************
                    * MULLIKEN POPULATION ANALYSIS *
                    ********************************

-----------------------
MULLIKEN ATOMIC CHARGES
-----------------------
   0 C :   -0.151248
   1 O :   -0.477419
   2 H :    0.313228
   3 H :    0.098611
   4 H :    0.118178
   5 H :    0.098650
Sum of atomic charges:    0.0000000

--------------------------------
MULLIKEN REDUCED ORBITAL CHARGES
--------------------------------
  0 C s       :     3.222927  s :     3.222927
      pz      :     1.047551  p :     2.826625
      px      :     0.702171
      py      :     1.076903
      dz2     :     0.011143  d :     0.094278
      dxz     :     0.032574
      dyz     :     0.002617
      dx2y2   :     0.012657
      dxy     :     0.035287
      f0      :     0.001358  f :     0.007417
      f+1     :     0.000953
      f-1     :     0.000176
      f+2     :     0.001468
      f-2     :     0.000116
      f+3     :     0.001361
      f-3     :     0.001985
  1 O s       :     3.793664  s :     3.793664
      pz      :     1.761606  p :     4.651454
      px      :     1.312875
      py      :     1.576973
      dz2     :     0.003144  d :     0.030622
      dxz     :     0.006440
      dyz     :     0.005809
      dx2y2   :     0.009002
      dxy     :     0.006226
      f0      :     0.000270  f :     0.001679
      f+1     :     0.000235
      f-1     :     0.000086
      f+2     :     0.000288
      f-2     :     0.000230
      f+3     :     0.000366
      f-3     :     0.000203
  2 H s       :     0.639364  s :     0.639364
      pz      :     0.016921  p :     0.047408
      px      :     0.012619
      py      :     0.017867
  3 H s       :     0.882013  s :     0.882013
      pz      :     0.012072  p :     0.019375
      px      :     0.003012
      py      :     0.004291
  4 H s       :     0.861593  s :     0.861593
      pz      :     0.006300  p :     0.020229
      px      :     0.004198
      py      :     0.009732
  5 H s       :     0.881993  s :     0.881993
      pz      :     0.004927  p :     0.019357
      px      :     0.004996
      py      :     0.009434


                     *******************************
                     * LOEWDIN POPULATION ANALYSIS *
                     *******************************

----------------------
LOEWDIN ATOMIC CHARGES
----------------------
   0 C :   -0.385719
   1 O :   -0.076919
   2 H :    0.167253
   3 H :    0.093394
   4 H :    0.108703
   5 H :    0.093289

-------------------------------
LOEWDIN REDUCED ORBITAL CHARGES
-------------------------------
  0 C s       :     2.862833  s :     2.862833
      pz      :     1.096732  p :     3.052652
      px      :     0.846148
      py      :     1.109773
      dz2     :     0.072516  d :     0.413246
      dxz     :     0.114215
      dyz     :     0.020579
      dx2y2   :     0.082074
      dxy     :     0.123862
      f0      :     0.007845  f :     0.056987
      f+1     :     0.007170
      f-1     :     0.000861
      f+2     :     0.012528
      f-2     :     0.004788
      f+3     :     0.011715
      f-3     :     0.012080
  1 O s       :     3.367796  s :     3.367796
      pz      :     1.700615  p :     4.632933
      px      :     1.380997
      py      :     1.551321
      dz2     :     0.006149  d :     0.071551
      dxz     :     0.017804
      dyz     :     0.008009
      dx2y2   :     0.019411
      dxy     :     0.020177
      f0      :     0.000485  f :     0.004639
      f+1     :     0.000622
      f-1     :     0.000070
      f+2     :     0.001051
      f-2     :     0.000549
      f+3     :     0.000893
      f-3     :     0.000969
  2 H s       :     0.674731  s :     0.674731
      pz      :     0.055244  p :     0.158016
      px      :     0.033555
      py      :     0.069217
  3 H s       :     0.846782  s :     0.846782
      pz      :     0.036168  p :     0.059824
      px      :     0.009717
      py      :     0.013939
  4 H s       :     0.831702  s :     0.831702
      pz      :     0.019207  p :     0.059595
      px      :     0.011611
      py      :     0.028778
  5 H s       :     0.846860  s :     0.846860
      pz      :     0.015603  p :     0.059851
      px      :     0.015280
      py      :     0.028968


                      *****************************
                      * MAYER POPULATION ANALYSIS *
                      *****************************

  NA   - Mulliken gross atomic population
  ZA   - Total nuclear charge
  QA   - Mulliken gross atomic charge
  VA   - Mayer's total valence
  BVA  - Mayer's bonded valence
  FA   - Mayer's free valence

  ATOM       NA         ZA         QA         VA         BVA        FA
  0 C      6.1512     6.0000    -0.1512     3.9351     3.9351     0.0000
  1 O      8.4774     8.0000    -0.4774     1.8884     1.8884     0.0000
  2 H      0.6868     1.0000     0.3132     0.9133     0.9133     0.0000
  3 H      0.9014     1.0000     0.0986     0.9596     0.9596     0.0000
  4 H      0.8818     1.0000     0.1182     0.9598     0.9598    -0.0000
  5 H      0.9014     1.0000     0.0986     0.9592     0.9592     0.0000

  Mayer bond orders larger than 0.1
B(  0-C ,  1-O ) :   0.9991 B(  0-C ,  3-H ) :   0.9757 B(  0-C ,  4-H ) :   0.9751 
B(  0-C ,  5-H ) :   0.9749 B(  1-O ,  2-H ) :   0.8999 

-------
TIMINGS
-------

Total SCF time: 0 days 0 hours 0 min 8 sec 

Total time                  ....       8.903 sec
Sum of individual times     ....       8.472 sec  ( 95.2%)

Fock matrix formation       ....       6.935 sec  ( 77.9%)
  XC integration            ....       1.960 sec  ( 28.3% of F)
    Basis function eval.    ....       0.422 sec  ( 21.5% of XC)
    Density eval.           ....       0.282 sec  ( 14.4% of XC)
    XC-Functional eval.     ....       0.667 sec  ( 34.0% of XC)
    XC-Potential eval.      ....       0.273 sec  ( 13.9% of XC)
Diagonalization             ....       0.025 sec  (  0.3%)
Density matrix formation    ....       0.002 sec  (  0.0%)
Population analysis         ....       0.012 sec  (  0.1%)
Initial guess               ....       0.163 sec  (  1.8%)
Orbital Transformation      ....       0.000 sec  (  0.0%)
Orbital Orthonormalization  ....       0.000 sec  (  0.0%)
DIIS solution               ....       0.012 sec  (  0.1%)
SOSCF solution              ....       0.018 sec  (  0.2%)
Grid generation             ....       1.304 sec  ( 14.6%)


-------------------------------------------------------------------------------
                          DFT DISPERSION CORRECTION                            
                                                                               
                              DFTD3 V3.1  Rev 1                                
                              USING zero damping                               
-------------------------------------------------------------------------------
The omegaB97X-D3 functional is recognized. Fit by Chai et al.
Active option DFTDOPT                   ...         3   

molecular C6(AA) [au] = 208.717191 


            DFT-D V3
 parameters
 s6 scaling factor         :     1.0000 
 rs6 scaling factor        :     1.2810 
 s8 scaling factor         :     1.0000 
 rs8 scaling factor        :     1.0940 
 Damping factor alpha6     :    14.0000 
 Damping factor alpha8     :    16.0000 
 ad hoc parameters k1-k3   :    16.0000     1.3333    -4.0000 

 Edisp/kcal,au: -0.150480782301  -0.000239806365 
 E6   /kcal   :  -0.029664744 
 E8   /kcal   :  -0.120816038 
 % E8         :  80.286689515 

-------------------------   ----------------
Dispersion correction           -0.000239806
-------------------------   ----------------


-------------------------   --------------------
FINAL SINGLE POINT ENERGY      -115.738040189404
-------------------------   --------------------



           ************************************************************
           *        Program running with 4 parallel MPI-processes     *
           *              working on a common directory               *
           ************************************************************
------------------------------------------------------------------------------
                         ORCA SCF GRADIENT CALCULATION
------------------------------------------------------------------------------

Gradient of the Kohn-Sham DFT energy:
Kohn-Sham wavefunction type      ... RKS
Hartree-Fock exchange scaling    ...    0.196
Number of operators              ...    1
Number of atoms                  ...    6
Basis set dimensions             ...   86
Integral neglect threshold       ... 2.5e-11
Integral primitive cutoff        ... 2.5e-12

Nuclear repulsion gradient       ... done
One Electron Gradient            ... done
Pre-screening matrix             ... done
Starting the two electron gradient:
Two electron gradient done
Exchange-correlation gradient    ... done
Dispersion correction            ... done

------------------
CARTESIAN GRADIENT
------------------

   1   C   :    0.000203351    0.000927868    0.000295477
   2   O   :   -0.000515300   -0.002570127    0.001007462
   3   H   :    0.000658586    0.001823484   -0.001149843
   4   H   :    0.000120276    0.000065978    0.000018646
   5   H   :    0.000167023    0.000036868    0.000085208
   6   H   :   -0.000633936   -0.000284071   -0.000256951

Difference to translation invariance:
           :    0.0000000000    0.0000000000    0.0000000000

Norm of the cartesian gradient     ...    0.0038158760
RMS gradient                       ...    0.0008994106
MAX gradient                       ...    0.0025701266

-------
TIMINGS
-------

Total SCF gradient time            ...        1.877 sec

One electron gradient       ....       0.010 sec  (  0.5%)
Prescreening matrices       ....       0.024 sec  (  1.3%)
Two electron gradient       ....       0.838 sec  ( 44.6%)
XC gradient                 ....       0.640 sec  ( 34.1%)
------------------------------------------------------------------------------
                         ORCA GEOMETRY RELAXATION STEP
------------------------------------------------------------------------------

Reading the OPT-File                    .... done
Getting information on internals        .... done
Copying old internal coords+grads       .... done
Making the new internal coordinates     .... (new redundants).... done
Validating the new internal coordinates .... (new redundants).... done
Calculating the B-matrix                .... done
Calculating the G,G- and P matrices     .... done
Transforming gradient to internals      .... done
Projecting the internal gradient        .... done
Number of atoms                         ....   6
Number of internal coordinates          ....  15
Current Energy                          ....  -115.738040189 Eh
Current gradient norm                   ....     0.003815876 Eh/bohr
Maximum allowed component of the step   ....  0.300
Current trust radius                    ....  0.300
Evaluating the initial hessian          ....  (Almloef) done
Projecting the Hessian                  .... done
Forming the augmented Hessian           .... done
Diagonalizing the augmented Hessian     .... done
Last element of RFO vector              ....  0.999989130
Lowest eigenvalues of augmented Hessian:
 -0.000010567  0.021176546  0.182877601  0.198127179  0.317830513
Length of the computed step             ....  0.004662649
The final length of the internal step   ....  0.004662649
Converting the step to cartesian space:
 Initial RMS(Int)=    0.0012038908
Transforming coordinates:
 Iter   0:  RMS(Cart)=    0.0007934691 RMS(Int)=    0.0012039697
 Iter   1:  RMS(Cart)=    0.0000006923 RMS(Int)=    0.0000006708
 Iter   2:  RMS(Cart)=    0.0000000013 RMS(Int)=    0.0000000016
Imposing constraints:
 Iter   0:  RMS(Cart)=    0.0000000097 RMS(Int)=    0.0000000079
CONVERGED
done
Storing new coordinates                 .... done

                                .--------------------.
          ----------------------|Geometry convergence|-------------------------
          Item                value                   Tolerance       Converged
          ---------------------------------------------------------------------
          RMS gradient        0.0005962487            0.0001000000      NO
          MAX gradient        0.0022402881            0.0003000000      NO
          RMS step            0.0012038908            0.0020000000      YES
          MAX step            0.0043047449            0.0040000000      NO
          ........................................................
          Max(Bonds)      0.0023      Max(Angles)    0.07
          Max(Dihed)        0.03      Max(Improp)    0.00
          ---------------------------------------------------------------------

The optimization has not yet converged - more geometry cycles are needed


    ---------------------------------------------------------------------------
                         Redundant Internal Coordinates
                            (Angstroem and degrees)

        Definition                    Value    dE/dq     Step     New-Value
    ----------------------------------------------------------------------------
     1. B(O   1,C   0)                1.4116  0.000088 -0.0001    1.4115   
     2. B(H   2,O   1)                0.9598  0.002240 -0.0023    0.9575   
     3. B(H   3,C   0)                1.0960 -0.000049  0.0001    1.0961   
     4. B(H   4,C   0)                1.0895 -0.000048  0.0001    1.0896   
     5. B(H   5,C   0)                1.0960 -0.000007  0.0000    1.0961   
     6. A(O   1,C   0,H   4)          106.92 -0.000436    0.04    106.96   
     7. A(O   1,C   0,H   3)          112.12 -0.000377    0.02    112.14   
     8. A(O   1,C   0,H   5)          112.63  0.001243    0.00    112.63 C 
     9. A(H   3,C   0,H   5)          108.66 -0.000316   -0.01    108.65   
    10. A(H   4,C   0,H   5)          108.12 -0.000246   -0.01    108.11   
    11. A(H   3,C   0,H   4)          108.22  0.000099   -0.04    108.18   
    12. A(C   0,O   1,H   2)          108.61 -0.000438    0.07    108.68   
    13. D(H   2,O   1,C   0,H   5)    -61.10 -0.000025   -0.02    -61.12   
    14. D(H   2,O   1,C   0,H   3)     61.83  0.000209   -0.02     61.81   
    15. D(H   2,O   1,C   0,H   4)   -179.72 -0.000158   -0.03   -179.75   
    ----------------------------------------------------------------------------

         *************************************************************
         *                GEOMETRY OPTIMIZATION CYCLE   2            *
         *************************************************************
---------------------------------
CARTESIAN COORDINATES (ANGSTROEM)
---------------------------------
  C      3.011553   -1.180708    0.598460
  O      4.395452   -1.131451    0.871789
  H      4.772058   -0.380090    0.413098
  H      2.806074   -1.319074   -0.469302
  H      2.611863   -2.040245    1.135730
  H      2.481278   -0.285989    0.944338

----------------------------
CARTESIAN COORDINATES (A.U.)
----------------------------
  NO LB      ZA    FRAG     MASS         X           Y           Z
   0 C     6.0000    0    12.011    5.691010   -2.231215    1.130926
   1 O     8.0000    0    15.999    8.306200   -2.138133    1.647443
   2 H     1.0000    0     1.008    9.017883   -0.718266    0.780641
   3 H     1.0000    0     1.008    5.302712   -2.492689   -0.886852
   4 H     1.0000    0     1.008    4.935706   -3.855505    2.146219
   5 H     1.0000    0     1.008    4.688936   -0.540440    1.784540

--------------------------------
INTERNAL COORDINATES (ANGSTROEM)
--------------------------------
 C      0   0   0     0.000000000000     0.00000000     0.00000000
 O      1   0   0     1.411492550321     0.00000000     0.00000000
 H      2   1   0     0.957483287437   108.67846461     0.00000000
 H      1   2   3     1.096121804907   112.13779124    61.80754597
 H      1   2   3     1.089593732702   106.95960704   180.24505598
 H      1   2   3     1.096059326239   112.62815769   298.88067814

---------------------------
INTERNAL COORDINATES (A.U.)
---------------------------
 C      0   0   0     0.000000000000     0.00000000     0.00000000
 O      1   0   0     2.667334360176     0.00000000     0.00000000
 H      2   1   0     1.809381191062   108.67846461     0.00000000
 H      1   2   3     2.071370020693   112.13779124    61.80754597
 H      1   2   3     2.059033752043   106.95960704   180.24505598
 H      1   2   3     2.071251953123   112.62815769   298.88067814



           ************************************************************
           *        Program running with 4 parallel MPI-processes     *
           *              working on a common directory               *
           ************************************************************


           ************************************************************
           *        Program running with 4 parallel MPI-processes     *
           *              working on a common directory               *
           ************************************************************

Diagonalization of the overlap matrix:
Smallest eigenvalue                        ... 1.650e-03
Time for diagonalization                   ...    0.003 sec
Threshold for overlap eigenvalues          ... 1.000e-08
Number of eigenvalues below threshold      ... 0
Time for construction of square roots      ...    0.004 sec
Total time needed                          ...    0.008 sec

-------------------
DFT GRID GENERATION
-------------------

General Integration Accuracy     IntAcc      ...  5.010
Radial Grid Type                 RadialGrid  ... Gauss-Chebyshev
Angular Grid (max. acc.)         AngularGrid ... Lebedev-434
Angular grid pruning method      GridPruning ... 3 (G Style)
Weight generation scheme         WeightScheme... Becke
Basis function cutoff            BFCut       ...    1.0000e-11
Integration weight cutoff        WCut        ...    1.0000e-14
Grids for H and He will be reduced by one unit

# of grid points (after initial pruning)     ...  48308 (   0.0 sec)
# of grid points (after weights+screening)   ...  46679 (   0.0 sec)
nearest neighbour list constructed           ...    0.0 sec
Grid point re-assignment to atoms done       ...    0.0 sec
Grid point division into batches done        ...    0.3 sec
Reduced shell lists constructed in    0.3 sec

Total number of grid points                  ...    46679
Total number of batches                      ...      733
Average number of points per batch           ...       63
Average number of grid points per atom       ...     7780
Average number of shells per batch           ...    33.12 (87.16%)
Average number of basis functions per batch  ...    76.83 (89.33%)
Average number of large shells per batch     ...    30.61 (92.43%)
Average number of large basis fcns per batch ...    72.29 (94.09%)
Maximum spatial batch extension              ...  15.76, 14.99, 16.58 au
Average spatial batch extension              ...   0.40,  0.42,  0.42 au

Time for grid setup =    0.390 sec

--------------
SCF ITERATIONS
--------------
ITER       Energy         Delta-E        Max-DP      RMS-DP      [F,P]     Damp
               ***  Starting incremental Fock matrix formation  ***
                      *** Initiating the SOSCF procedure ***
                      *** Re-Reading the Fockian *** 
                      *** Removing any level shift *** 
ITER      Energy       Delta-E        Grad      Rot      Max-DP    RMS-DP
  0   -115.73769648 -115.7376964772  0.000436  0.000436  0.000329  0.000014
               *** Restarting incremental Fock matrix formation ***
  1   -115.73769800  -0.0000015186  0.000125  0.000128  0.000188  0.000008
  2   -115.73769812  -0.0000001271  0.000107  0.000070  0.000105  0.000004
  3   -115.73769824  -0.0000001151  0.000008  0.000017  0.000021  0.000001
                 **** Energy Check signals convergence ****
              ***Rediagonalizing the Fockian in SOSCF/NRSCF***

               *****************************************************
               *                     SUCCESS                       *
               *           SCF CONVERGED AFTER   4 CYCLES          *
               *****************************************************

Setting up the final grid:

General Integration Accuracy     IntAcc      ...  5.340
Radial Grid Type                 RadialGrid  ... Gauss-Chebyshev
Angular Grid (max. acc.)         AngularGrid ... Lebedev-590
Angular grid pruning method      GridPruning ... 3 (G Style)
Weight generation scheme         WeightScheme... Becke
Basis function cutoff            BFCut       ...    1.0000e-11
Integration weight cutoff        WCut        ...    1.0000e-14
Grids for H and He will be reduced by one unit

# of grid points (after initial pruning)     ...  77324 (   0.0 sec)
# of grid points (after weights+screening)   ...  74516 (   0.0 sec)
nearest neighbour list constructed           ...    0.0 sec
Grid point re-assignment to atoms done       ...    0.0 sec
Grid point division into batches done        ...    0.8 sec
Reduced shell lists constructed in    0.8 sec

Total number of grid points                  ...    74516
Total number of batches                      ...     1168
Average number of points per batch           ...       63
Average number of grid points per atom       ...    12419
Average number of shells per batch           ...    32.90 (86.58%)
Average number of basis functions per batch  ...    76.33 (88.75%)
Average number of large shells per batch     ...    30.35 (92.24%)
Average number of large basis fcns per batch ...    71.61 (93.82%)
Maximum spatial batch extension              ...  13.18, 15.65, 15.48 au
Average spatial batch extension              ...   0.34,  0.36,  0.37 au

Final grid set up in    1.0 sec
Final integration                            ... done (   0.2 sec)
Change in XC energy                          ...    -0.000107513
Integrated number of electrons               ...    18.000000741
Previous integrated no of electrons          ...    18.000002262
Total Energy       :         -115.73780575 Eh           -3149.38581 eV
  Last Energy change         ...   -1.2804e-09  Tolerance :   1.0000e-08
  Last MAX-Density change    ...    9.2957e-06  Tolerance :   1.0000e-07
             **** THE GBW FILE WAS UPDATED (1_geo_opt.gbw) ****
             **** DENSITY FILE WAS UPDATED (1_geo_opt.scfp.tmp) ****
             **** ENERGY FILE WAS UPDATED (1_geo_opt.en.tmp) ****
Total SCF time: 0 days 0 hours 0 min 4 sec 


-------------------------------------------------------------------------------
                          DFT DISPERSION CORRECTION                            
                                                                               
                              DFTD3 V3.1  Rev 1                                
                              USING zero damping                               
-------------------------------------------------------------------------------
-------------------------   ----------------
Dispersion correction           -0.000239838
-------------------------   ----------------


-------------------------   --------------------
FINAL SINGLE POINT ENERGY      -115.738045590322
-------------------------   --------------------



           ************************************************************
           *        Program running with 4 parallel MPI-processes     *
           *              working on a common directory               *
           ************************************************************
------------------------------------------------------------------------------
                         ORCA SCF GRADIENT CALCULATION
------------------------------------------------------------------------------

Gradient of the Kohn-Sham DFT energy:
Kohn-Sham wavefunction type      ... RKS
Hartree-Fock exchange scaling    ...    0.196
Number of operators              ...    1
Number of atoms                  ...    6
Basis set dimensions             ...   86
Integral neglect threshold       ... 2.5e-11
Integral primitive cutoff        ... 2.5e-12

Nuclear repulsion gradient       ... done
One Electron Gradient            ... done
Pre-screening matrix             ... done
Starting the two electron gradient:
Two electron gradient done
Exchange-correlation gradient    ... done
Dispersion correction            ... done

------------------
CARTESIAN GRADIENT
------------------

   1   C   :    0.000299616    0.000915012    0.000359755
   2   O   :    0.000389982   -0.000645630   -0.000150781
   3   H   :   -0.000174962   -0.000014273   -0.000011320
   4   H   :    0.000057586    0.000034925   -0.000001714
   5   H   :    0.000074753   -0.000001269    0.000061273
   6   H   :   -0.000646974   -0.000288765   -0.000257212

Difference to translation invariance:
           :    0.0000000000   -0.0000000000    0.0000000000

Norm of the cartesian gradient     ...    0.0015036769
RMS gradient                       ...    0.0003544200
MAX gradient                       ...    0.0009150119

-------
TIMINGS
-------

Total SCF gradient time            ...        1.610 sec

One electron gradient       ....       0.009 sec  (  0.5%)
Prescreening matrices       ....       0.025 sec  (  1.6%)
Two electron gradient       ....       0.842 sec  ( 52.3%)
XC gradient                 ....       0.402 sec  ( 25.0%)
------------------------------------------------------------------------------
                         ORCA GEOMETRY RELAXATION STEP
------------------------------------------------------------------------------

Reading the OPT-File                    .... done
Getting information on internals        .... done
Copying old internal coords+grads       .... done
Making the new internal coordinates     .... (new redundants).... done
Validating the new internal coordinates .... (new redundants).... done
Calculating the B-matrix                .... done
Calculating the G,G- and P matrices     .... done
Transforming gradient to internals      .... done
Projecting the internal gradient        .... done
Number of atoms                         ....   6
Number of internal coordinates          ....  15
Current Energy                          ....  -115.738045590 Eh
Current gradient norm                   ....     0.001503677 Eh/bohr
Maximum allowed component of the step   ....  0.300
Current trust radius                    ....  0.300
Updating the Hessian (BFGS)             .... done
Forming the augmented Hessian           .... done
Diagonalizing the augmented Hessian     .... done
Last element of RFO vector              ....  0.999999152
Lowest eigenvalues of augmented Hessian:
 -0.000000407  0.021134135  0.182875490  0.197570779  0.296012287
Length of the computed step             ....  0.001302431
The final length of the internal step   ....  0.001302431
Converting the step to cartesian space:
 Initial RMS(Int)=    0.0003362862
Transforming coordinates:
 Iter   0:  RMS(Cart)=    0.0003067761 RMS(Int)=    0.0003363282
 Iter   1:  RMS(Cart)=    0.0000001219 RMS(Int)=    0.0000001583
 Iter   2:  RMS(Cart)=    0.0000000001 RMS(Int)=    0.0000000001
Imposing constraints:
 Iter   0:  RMS(Cart)=    0.0000000167 RMS(Int)=    0.0000000135
CONVERGED
done
Storing new coordinates                 .... done

                                .--------------------.
          ----------------------|Geometry convergence|-------------------------
          Item                value                   Tolerance       Converged
          ---------------------------------------------------------------------
          Energy change      -0.0000054009            0.0000050000      NO
          RMS gradient        0.0000970492            0.0001000000      YES
          MAX gradient        0.0002861004            0.0003000000      YES
          RMS step            0.0003362862            0.0020000000      YES
          MAX step            0.0008625600            0.0040000000      YES
          ........................................................
          Max(Bonds)      0.0002      Max(Angles)    0.05
          Max(Dihed)        0.03      Max(Improp)    0.00
          ---------------------------------------------------------------------

       Everything but the energy has converged. However, the energy
       appears to be close enough to convergence to make sure that the
       final evaluation at the new geometry represents the equilibrium energy.
       Convergence will therefore be signaled now


                    ***********************HURRAY********************
                    ***        THE OPTIMIZATION HAS CONVERGED     ***
                    *************************************************


    ---------------------------------------------------------------------------
                         Redundant Internal Coordinates

                          --- Optimized Parameters ---  
                            (Angstroem and degrees)

        Definition                    OldVal   dE/dq     Step     FinalVal
    ----------------------------------------------------------------------------
     1. B(O   1,C   0)                1.4115  0.000157 -0.0002    1.4113   
     2. B(H   2,O   1)                0.9575 -0.000075 -0.0000    0.9575   
     3. B(H   3,C   0)                1.0961 -0.000013  0.0000    1.0961   
     4. B(H   4,C   0)                1.0896  0.000004 -0.0000    1.0896   
     5. B(H   5,C   0)                1.0961 -0.000004  0.0000    1.0961   
     6. A(O   1,C   0,H   4)          106.96 -0.000330    0.02    106.98   
     7. A(O   1,C   0,H   3)          112.14 -0.000317    0.01    112.15   
     8. A(O   1,C   0,H   5)          112.63  0.001233   -0.00    112.63 C 
     9. A(H   3,C   0,H   5)          108.65 -0.000346   -0.01    108.64   
    10. A(H   4,C   0,H   5)          108.11 -0.000287   -0.01    108.11   
    11. A(H   3,C   0,H   4)          108.18  0.000008   -0.02    108.16   
    12. A(C   0,O   1,H   2)          108.68 -0.000286    0.05    108.73   
    13. D(H   2,O   1,C   0,H   5)    -61.12 -0.000021   -0.02    -61.14   
    14. D(H   2,O   1,C   0,H   3)     61.81  0.000211   -0.02     61.79   
    15. D(H   2,O   1,C   0,H   4)   -179.75 -0.000166   -0.03   -179.78   
    ----------------------------------------------------------------------------
                 *******************************************************
                 *** FINAL ENERGY EVALUATION AT THE STATIONARY POINT ***
                 ***               (AFTER    2 CYCLES)               ***
                 *******************************************************
---------------------------------
CARTESIAN COORDINATES (ANGSTROEM)
---------------------------------
  C      3.011594   -1.180711    0.598519
  O      4.395328   -1.131167    0.871767
  H      4.772566   -0.380133    0.413076
  H      2.805901   -1.319171   -0.469213
  H      2.611744   -2.040297    1.135586
  H      2.481146   -0.286080    0.944379

----------------------------
CARTESIAN COORDINATES (A.U.)
----------------------------
  NO LB      ZA    FRAG     MASS         X           Y           Z
   0 C     6.0000    0    12.011    5.691088   -2.231221    1.131037
   1 O     8.0000    0    15.999    8.305966   -2.137595    1.647401
   2 H     1.0000    0     1.008    9.018842   -0.718347    0.780600
   3 H     1.0000    0     1.008    5.302384   -2.492871   -0.886685
   4 H     1.0000    0     1.008    4.935482   -3.855603    2.145947
   5 H     1.0000    0     1.008    4.688686   -0.540612    1.784617

--------------------------------
INTERNAL COORDINATES (ANGSTROEM)
--------------------------------
 C      0   0   0     0.000000000000     0.00000000     0.00000000
 O      1   0   0     1.411324937505     0.00000000     0.00000000
 H      2   1   0     0.957474909375   108.72788566     0.00000000
 H      1   2   3     1.096145004419   112.14858388    61.78718117
 H      1   2   3     1.089590951597   106.98136505   180.21704607
 H      1   2   3     1.096065756258   112.62815737   298.85996009

---------------------------
INTERNAL COORDINATES (A.U.)
---------------------------
 C      0   0   0     0.000000000000     0.00000000     0.00000000
 O      1   0   0     2.667017617858     0.00000000     0.00000000
 H      2   1   0     1.809365358820   108.72788566     0.00000000
 H      1   2   3     2.071413861418   112.14858388    61.78718117
 H      1   2   3     2.059028496518   106.98136505   180.21704607
 H      1   2   3     2.071264104096   112.62815737   298.85996009

---------------------
BASIS SET INFORMATION
---------------------
There are 3 groups of distinct atoms

 Group   1 Type C   : 11s6p2d1f contracted to 5s3p2d1f pattern {62111/411/11/1}
 Group   2 Type O   : 11s6p2d1f contracted to 5s3p2d1f pattern {62111/411/11/1}
 Group   3 Type H   : 5s1p contracted to 3s1p pattern {311/1}

Atom   0C    basis set group =>   1
Atom   1O    basis set group =>   2
Atom   2H    basis set group =>   3
Atom   3H    basis set group =>   3
Atom   4H    basis set group =>   3
Atom   5H    basis set group =>   3


           ************************************************************
           *        Program running with 4 parallel MPI-processes     *
           *              working on a common directory               *
           ************************************************************
------------------------------------------------------------------------------
                           ORCA GTO INTEGRAL CALCULATION
------------------------------------------------------------------------------

                         BASIS SET STATISTICS AND STARTUP INFO

 # of primitive gaussian shells          ...   64
 # of primitive gaussian functions       ...  124
 # of contracted shells                  ...   38
 # of contracted basis functions         ...   86
 Highest angular momentum                ...    3
 Maximum contraction depth               ...    6
 Integral package used                   ... LIBINT
 Integral threshhold            Thresh   ...  2.500e-11
 Primitive cut-off              TCut     ...  2.500e-12


------------------------------ INTEGRAL EVALUATION ----------------------------


 * One electron integrals 
 Pre-screening matrix                    ... done
 Shell pair data                         ... done (   0.000 sec)



           ************************************************************
           *        Program running with 4 parallel MPI-processes     *
           *              working on a common directory               *
           ************************************************************
-------------------------------------------------------------------------------
                                 ORCA SCF
-------------------------------------------------------------------------------

------------
SCF SETTINGS
------------
Hamiltonian:
 Density Functional     Method          .... DFT(GTOs)
 Exchange Functional    Exchange        .... WB97X-D3
 Correlation Functional Correlation     .... WB97X-D3
 Gradients option       PostSCFGGA      .... off
 Hybrid DFT is turned on
   Fraction HF Exchange ScalHFX         ....  0.195728
   Scaling of DF-GGA-X  ScalDFX         ....  0.000000
   Scaling of DF-GGA-C  ScalDFC         ....  1.000000
   Scaling of DF-LDA-C  ScalLDAC        ....  1.000000
   Perturbative correction              ....  0.000000
   Density functional embedding theory  .... OFF
 Long-range corrected/Screened/Range-Separated Hybrid DFT is turned on
   Amount of maximum screened exact exchange              ....  0.804272
   Range separation parameter mu (erf(mu*r12)/r12)        ....  0.250000


General Settings:
 Integral files         IntName         .... 1_geo_opt
 Hartree-Fock type      HFTyp           .... RHF
 Total Charge           Charge          ....    0
 Multiplicity           Mult            ....    1
 Number of Electrons    NEL             ....   18
 Basis Dimension        Dim             ....   86
 Nuclear Repulsion      ENuc            ....     40.4390698549 Eh

Convergence Acceleration:
 DIIS                   CNVDIIS         .... on
   Start iteration      DIISMaxIt       ....    12
   Startup error        DIISStart       ....  0.200000
   # of expansion vecs  DIISMaxEq       ....     5
   Bias factor          DIISBfac        ....   1.050
   Max. coefficient     DIISMaxC        ....  10.000
 Newton-Raphson         CNVNR           .... off
 SOSCF                  CNVSOSCF        .... on
   Start iteration      SOSCFMaxIt      ....   150
   Startup grad/error   SOSCFStart      ....  0.003300
 Level Shifting         CNVShift        .... on
   Level shift para.    LevelShift      ....    0.2500
   Turn off err/grad.   ShiftErr        ....    0.0010
 Zerner damping         CNVZerner       .... off
 Static damping         CNVDamp         .... on
   Fraction old density DampFac         ....    0.7000
   Max. Damping (<1)    DampMax         ....    0.9800
   Min. Damping (>=0)   DampMin         ....    0.0000
   Turn off err/grad.   DampErr         ....    0.1000
 Fernandez-Rico         CNVRico         .... off

SCF Procedure:
 Maximum # iterations   MaxIter         ....   125
 SCF integral mode      SCFMode         .... Direct
   Integral package                     .... LIBINT
 Reset frequency        DirectResetFreq ....    20
 Integral Threshold     Thresh          ....  2.500e-11 Eh
 Primitive CutOff       TCut            ....  2.500e-12 Eh

Convergence Tolerance:
 Convergence Check Mode ConvCheckMode   .... Total+1el-Energy
 Convergence forced     ConvForced      .... 0
 Energy Change          TolE            ....  1.000e-08 Eh
 1-El. energy change                    ....  1.000e-05 Eh
 Orbital Gradient       TolG            ....  1.000e-05
 Orbital Rotation angle TolX            ....  1.000e-05
 DIIS Error             TolErr          ....  5.000e-07


Diagonalization of the overlap matrix:
Smallest eigenvalue                        ... 1.650e-03
Time for diagonalization                   ...    0.002 sec
Threshold for overlap eigenvalues          ... 1.000e-08
Number of eigenvalues below threshold      ... 0
Time for construction of square roots      ...    0.004 sec
Total time needed                          ...    0.006 sec

---------------------
INITIAL GUESS: MOREAD
---------------------
Guess MOs are being read from file: 1_geo_opt.gbw
Input Geometry matches current geometry (good)
Input basis set matches current basis set (good)
MOs were renormalized
MOs were reorthogonalized (Cholesky)
                      ------------------
                      INITIAL GUESS DONE (   0.0 sec)
                      ------------------
-------------------
DFT GRID GENERATION
-------------------

General Integration Accuracy     IntAcc      ...  5.010
Radial Grid Type                 RadialGrid  ... Gauss-Chebyshev
Angular Grid (max. acc.)         AngularGrid ... Lebedev-434
Angular grid pruning method      GridPruning ... 3 (G Style)
Weight generation scheme         WeightScheme... Becke
Basis function cutoff            BFCut       ...    1.0000e-11
Integration weight cutoff        WCut        ...    1.0000e-14
Grids for H and He will be reduced by one unit

# of grid points (after initial pruning)     ...  48308 (   0.0 sec)
# of grid points (after weights+screening)   ...  46679 (   0.0 sec)
nearest neighbour list constructed           ...    0.0 sec
Grid point re-assignment to atoms done       ...    0.0 sec
Grid point division into batches done        ...    0.3 sec
Reduced shell lists constructed in    0.3 sec

Total number of grid points                  ...    46679
Total number of batches                      ...      733
Average number of points per batch           ...       63
Average number of grid points per atom       ...     7780
Average number of shells per batch           ...    33.13 (87.18%)
Average number of basis functions per batch  ...    76.84 (89.35%)
Average number of large shells per batch     ...    30.62 (92.41%)
Average number of large basis fcns per batch ...    72.29 (94.08%)
Maximum spatial batch extension              ...  15.76, 14.98, 16.58 au
Average spatial batch extension              ...   0.40,  0.42,  0.42 au

Time for grid setup =    0.386 sec

--------------
SCF ITERATIONS
--------------
ITER       Energy         Delta-E        Max-DP      RMS-DP      [F,P]     Damp
               ***  Starting incremental Fock matrix formation  ***
                      *** Initiating the SOSCF procedure ***
                      *** Re-Reading the Fockian *** 
                      *** Removing any level shift *** 
ITER      Energy       Delta-E        Grad      Rot      Max-DP    RMS-DP
  0   -115.73769827 -115.7376982742  0.000057  0.000057  0.000062  0.000004
               *** Restarting incremental Fock matrix formation ***
  1   -115.73769834  -0.0000000699  0.000022  0.000022  0.000029  0.000002
  2   -115.73769835  -0.0000000090  0.000008  0.000014  0.000022  0.000001
  3   -115.73769835  -0.0000000006  0.000007  0.000004  0.000006  0.000000
                 **** Energy Check signals convergence ****
              ***Rediagonalizing the Fockian in SOSCF/NRSCF***

               *****************************************************
               *                     SUCCESS                       *
               *           SCF CONVERGED AFTER   4 CYCLES          *
               *****************************************************

Setting up the final grid:

General Integration Accuracy     IntAcc      ...  5.340
Radial Grid Type                 RadialGrid  ... Gauss-Chebyshev
Angular Grid (max. acc.)         AngularGrid ... Lebedev-590
Angular grid pruning method      GridPruning ... 3 (G Style)
Weight generation scheme         WeightScheme... Becke
Basis function cutoff            BFCut       ...    1.0000e-11
Integration weight cutoff        WCut        ...    1.0000e-14
Grids for H and He will be reduced by one unit

# of grid points (after initial pruning)     ...  77324 (   0.0 sec)
# of grid points (after weights+screening)   ...  74518 (   0.0 sec)
nearest neighbour list constructed           ...    0.0 sec
Grid point re-assignment to atoms done       ...    0.0 sec
Grid point division into batches done        ...    0.8 sec
Reduced shell lists constructed in    0.8 sec

Total number of grid points                  ...    74518
Total number of batches                      ...     1168
Average number of points per batch           ...       63
Average number of grid points per atom       ...    12420
Average number of shells per batch           ...    32.90 (86.57%)
Average number of basis functions per batch  ...    76.33 (88.76%)
Average number of large shells per batch     ...    30.34 (92.24%)
Average number of large basis fcns per batch ...    71.61 (93.81%)
Maximum spatial batch extension              ...  13.18, 15.65, 15.48 au
Average spatial batch extension              ...   0.34,  0.36,  0.36 au

Final grid set up in    0.9 sec
Final integration                            ... done (   0.2 sec)
Change in XC energy                          ...    -0.000107570
Integrated number of electrons               ...    18.000000740
Previous integrated no of electrons          ...    18.000002255

----------------
TOTAL SCF ENERGY
----------------

Total Energy       :         -115.73780592 Eh           -3149.38581 eV

Components:
Nuclear Repulsion  :           40.43906985 Eh            1100.40303 eV
Electronic Energy  :         -156.17687578 Eh           -4249.78885 eV
One Electron Energy:         -237.29616486 Eh           -6457.15692 eV
Two Electron Energy:           81.11928908 Eh            2207.36808 eV

Virial components:
Potential Energy   :         -230.98833676 Eh           -6285.51219 eV
Kinetic Energy     :          115.25053084 Eh            3136.12638 eV
Virial Ratio       :            2.00422796


DFT components:
N(Alpha)           :        9.000000369873 electrons
N(Beta)            :        9.000000369873 electrons
N(Total)           :       18.000000739746 electrons
E(XC)              :      -10.655608924041 Eh       
DFET-embed. en.    :        0.000000000000 Eh       

---------------
SCF CONVERGENCE
---------------

  Last Energy change         ...   -5.8074e-10  Tolerance :   1.0000e-08
  Last MAX-Density change    ...    1.1173e-06  Tolerance :   1.0000e-07
  Last RMS-Density change    ...    4.4351e-08  Tolerance :   5.0000e-09
  Last Orbital Gradient      ...    3.4746e-07  Tolerance :   1.0000e-05
  Last Orbital Rotation      ...    6.7522e-07  Tolerance :   1.0000e-05

             **** THE GBW FILE WAS UPDATED (1_geo_opt.gbw) ****
             **** DENSITY FILE WAS UPDATED (1_geo_opt.scfp.tmp) ****
             **** ENERGY FILE WAS UPDATED (1_geo_opt.en.tmp) ****
----------------
ORBITAL ENERGIES
----------------

  NO   OCC          E(Eh)            E(eV) 
   0   2.0000     -19.228270      -523.2278 
   1   2.0000     -10.315100      -280.6881 
   2   2.0000      -1.136975       -30.9387 
   3   2.0000      -0.795397       -21.6439 
   4   2.0000      -0.611818       -16.6484 
   5   2.0000      -0.541599       -14.7377 
   6   2.0000      -0.526260       -14.3203 
   7   2.0000      -0.433910       -11.8073 
   8   2.0000      -0.373711       -10.1692 
   9   0.0000       0.116681         3.1751 
  10   0.0000       0.156558         4.2602 
  11   0.0000       0.202506         5.5105 
  12   0.0000       0.205217         5.5842 
  13   0.0000       0.226567         6.1652 
  14   0.0000       0.304307         8.2806 
  15   0.0000       0.313530         8.5316 
  16   0.0000       0.404491        11.0068 
  17   0.0000       0.452840        12.3224 
  18   0.0000       0.485113        13.2006 
  19   0.0000       0.535668        14.5763 
  20   0.0000       0.543677        14.7942 
  21   0.0000       0.567487        15.4421 
  22   0.0000       0.598674        16.2908 
  23   0.0000       0.603469        16.4212 
  24   0.0000       0.671336        18.2680 
  25   0.0000       0.778514        21.1844 
  26   0.0000       0.832283        22.6476 
  27   0.0000       0.861024        23.4297 
  28   0.0000       0.989840        26.9349 
  29   0.0000       1.014148        27.5964 
  30   0.0000       1.109663        30.1955 
  31   0.0000       1.382711        37.6255 
  32   0.0000       1.513280        41.1784 
  33   0.0000       1.553865        42.2828 
  34   0.0000       1.602515        43.6066 
  35   0.0000       1.613054        43.8934 
  36   0.0000       1.624748        44.2116 
  37   0.0000       1.660420        45.1823 
  38   0.0000       1.687181        45.9105 
  39   0.0000       1.775234        48.3066 
  40   0.0000       1.951681        53.1079 
  41   0.0000       2.031037        55.2673 
  42   0.0000       2.055673        55.9377 
  43   0.0000       2.093631        56.9706 
  44   0.0000       2.114437        57.5368 
  45   0.0000       2.267900        61.7127 
  46   0.0000       2.333618        63.5010 
  47   0.0000       2.345636        63.8280 
  48   0.0000       2.381025        64.7910 
  49   0.0000       2.430785        66.1450 
  50   0.0000       2.497535        67.9614 
  51   0.0000       2.596460        70.6533 
  52   0.0000       2.639800        71.8326 
  53   0.0000       2.707370        73.6713 
  54   0.0000       2.842117        77.3379 
  55   0.0000       2.869884        78.0935 
  56   0.0000       2.889357        78.6234 
  57   0.0000       2.992953        81.4424 
  58   0.0000       3.095851        84.2424 
  59   0.0000       3.172428        86.3262 
  60   0.0000       3.298725        89.7629 
  61   0.0000       3.406619        92.6988 
  62   0.0000       3.441468        93.6471 
  63   0.0000       3.489914        94.9654 
  64   0.0000       3.611636        98.2776 
  65   0.0000       3.645548        99.2004 
  66   0.0000       3.667647        99.8017 
  67   0.0000       4.005368       108.9916 
  68   0.0000       4.224767       114.9618 
  69   0.0000       4.273726       116.2940 
  70   0.0000       4.454367       121.2095 
  71   0.0000       4.564144       124.1967 
  72   0.0000       5.346215       145.4779 
  73   0.0000       5.425500       147.6354 
  74   0.0000       5.554231       151.1383 
  75   0.0000       5.826405       158.5445 
  76   0.0000       5.834380       158.7615 
  77   0.0000       5.986101       162.8901 
  78   0.0000       6.379541       173.5961 
  79   0.0000       6.530634       177.7076 
  80   0.0000       6.745069       183.5427 
  81   0.0000       6.803473       185.1319 
  82   0.0000       7.039250       191.5477 
  83   0.0000       7.215740       196.3503 
  84   0.0000      22.406570       609.7138 
  85   0.0000      43.663920      1188.1557 

                    ********************************
                    * MULLIKEN POPULATION ANALYSIS *
                    ********************************

-----------------------
MULLIKEN ATOMIC CHARGES
-----------------------
   0 C :   -0.151076
   1 O :   -0.477303
   2 H :    0.313025
   3 H :    0.098554
   4 H :    0.118188
   5 H :    0.098612
Sum of atomic charges:   -0.0000000

--------------------------------
MULLIKEN REDUCED ORBITAL CHARGES
--------------------------------
  0 C s       :     3.222785  s :     3.222785
      pz      :     1.047640  p :     2.826573
      px      :     0.702078
      py      :     1.076855
      dz2     :     0.011126  d :     0.094297
      dxz     :     0.032587
      dyz     :     0.002624
      dx2y2   :     0.012657
      dxy     :     0.035303
      f0      :     0.001358  f :     0.007422
      f+1     :     0.000953
      f-1     :     0.000176
      f+2     :     0.001468
      f-2     :     0.000116
      f+3     :     0.001364
      f-3     :     0.001988
  1 O s       :     3.792826  s :     3.792826
      pz      :     1.761596  p :     4.652196
      px      :     1.312874
      py      :     1.577726
      dz2     :     0.003144  d :     0.030596
      dxz     :     0.006444
      dyz     :     0.005803
      dx2y2   :     0.008979
      dxy     :     0.006226
      f0      :     0.000271  f :     0.001685
      f+1     :     0.000235
      f-1     :     0.000087
      f+2     :     0.000287
      f-2     :     0.000233
      f+3     :     0.000368
      f-3     :     0.000204
  2 H s       :     0.639279  s :     0.639279
      pz      :     0.017024  p :     0.047696
      px      :     0.012710
      py      :     0.017962
  3 H s       :     0.882070  s :     0.882070
      pz      :     0.012067  p :     0.019376
      px      :     0.003014
      py      :     0.004295
  4 H s       :     0.861585  s :     0.861585
      pz      :     0.006298  p :     0.020227
      px      :     0.004196
      py      :     0.009734
  5 H s       :     0.882027  s :     0.882027
      pz      :     0.004929  p :     0.019361
      px      :     0.005001
      py      :     0.009430


                     *******************************
                     * LOEWDIN POPULATION ANALYSIS *
                     *******************************

----------------------
LOEWDIN ATOMIC CHARGES
----------------------
   0 C :   -0.385641
   1 O :   -0.075634
   2 H :    0.165830
   3 H :    0.093414
   4 H :    0.108728
   5 H :    0.093303

-------------------------------
LOEWDIN REDUCED ORBITAL CHARGES
-------------------------------
  0 C s       :     2.862698  s :     2.862698
      pz      :     1.096782  p :     3.052607
      px      :     0.846107
      py      :     1.109717
      dz2     :     0.072428  d :     0.413319
      dxz     :     0.114292
      dyz     :     0.020588
      dx2y2   :     0.082071
      dxy     :     0.123940
      f0      :     0.007847  f :     0.057017
      f+1     :     0.007169
      f-1     :     0.000863
      f+2     :     0.012527
      f-2     :     0.004793
      f+3     :     0.011727
      f-3     :     0.012091
  1 O s       :     3.366193  s :     3.366193
      pz      :     1.700445  p :     4.633188
      px      :     1.380720
      py      :     1.552023
      dz2     :     0.006146  d :     0.071605
      dxz     :     0.017830
      dyz     :     0.008016
      dx2y2   :     0.019403
      dxy     :     0.020210
      f0      :     0.000487  f :     0.004648
      f+1     :     0.000622
      f-1     :     0.000070
      f+2     :     0.001052
      f-2     :     0.000555
      f+3     :     0.000895
      f-3     :     0.000968
  2 H s       :     0.675088  s :     0.675088
      pz      :     0.055653  p :     0.159082
      px      :     0.033869
      py      :     0.069559
  3 H s       :     0.846776  s :     0.846776
      pz      :     0.036153  p :     0.059811
      px      :     0.009717
      py      :     0.013941
  4 H s       :     0.831687  s :     0.831687
      pz      :     0.019201  p :     0.059586
      px      :     0.011604
      py      :     0.028781
  5 H s       :     0.846848  s :     0.846848
      pz      :     0.015605  p :     0.059849
      px      :     0.015290
      py      :     0.028955


                      *****************************
                      * MAYER POPULATION ANALYSIS *
                      *****************************

  NA   - Mulliken gross atomic population
  ZA   - Total nuclear charge
  QA   - Mulliken gross atomic charge
  VA   - Mayer's total valence
  BVA  - Mayer's bonded valence
  FA   - Mayer's free valence

  ATOM       NA         ZA         QA         VA         BVA        FA
  0 C      6.1511     6.0000    -0.1511     3.9351     3.9351    -0.0000
  1 O      8.4773     8.0000    -0.4773     1.8887     1.8887    -0.0000
  2 H      0.6870     1.0000     0.3130     0.9136     0.9136     0.0000
  3 H      0.9014     1.0000     0.0986     0.9596     0.9596    -0.0000
  4 H      0.8818     1.0000     0.1182     0.9598     0.9598     0.0000
  5 H      0.9014     1.0000     0.0986     0.9593     0.9593    -0.0000

  Mayer bond orders larger than 0.1
B(  0-C ,  1-O ) :   0.9990 B(  0-C ,  3-H ) :   0.9757 B(  0-C ,  4-H ) :   0.9751 
B(  0-C ,  5-H ) :   0.9750 B(  1-O ,  2-H ) :   0.9002 

-------
TIMINGS
-------

Total SCF time: 0 days 0 hours 0 min 4 sec 

Total time                  ....       4.849 sec
Sum of individual times     ....       4.512 sec  ( 93.1%)

Fock matrix formation       ....       3.202 sec  ( 66.0%)
  XC integration            ....       0.951 sec  ( 29.7% of F)
    Basis function eval.    ....       0.204 sec  ( 21.4% of XC)
    Density eval.           ....       0.128 sec  ( 13.5% of XC)
    XC-Functional eval.     ....       0.328 sec  ( 34.5% of XC)
    XC-Potential eval.      ....       0.122 sec  ( 12.8% of XC)
Diagonalization             ....       0.004 sec  (  0.1%)
Density matrix formation    ....       0.002 sec  (  0.0%)
Population analysis         ....       0.012 sec  (  0.2%)
Initial guess               ....       0.003 sec  (  0.1%)
Orbital Transformation      ....       0.000 sec  (  0.0%)
Orbital Orthonormalization  ....       0.002 sec  (  0.0%)
DIIS solution               ....       0.000 sec  (  0.0%)
SOSCF solution              ....       0.013 sec  (  0.3%)
Grid generation             ....       1.277 sec  ( 26.3%)


-------------------------------------------------------------------------------
                          DFT DISPERSION CORRECTION                            
                                                                               
                              DFTD3 V3.1  Rev 1                                
                              USING zero damping                               
-------------------------------------------------------------------------------
The omegaB97X-D3 functional is recognized. Fit by Chai et al.
Active option DFTDOPT                   ...         3   

molecular C6(AA) [au] = 208.715518 


            DFT-D V3
 parameters
 s6 scaling factor         :     1.0000 
 rs6 scaling factor        :     1.2810 
 s8 scaling factor         :     1.0000 
 rs8 scaling factor        :     1.0940 
 Damping factor alpha6     :    14.0000 
 Damping factor alpha8     :    16.0000 
 ad hoc parameters k1-k3   :    16.0000     1.3333    -4.0000 

 Edisp/kcal,au: -0.150568185730  -0.000239945652 
 E6   /kcal   :  -0.029662239 
 E8   /kcal   :  -0.120905947 
 % E8         :  80.299796501 

-------------------------   ----------------
Dispersion correction           -0.000239946
-------------------------   ----------------


-------------------------   --------------------
FINAL SINGLE POINT ENERGY      -115.738045869842
-------------------------   --------------------

                                *** OPTIMIZATION RUN DONE ***

                            ***************************************
                            *     ORCA property calculations      *
                            ***************************************

                                    ---------------------
                                    Active property flags
                                    ---------------------
   (+) Dipole Moment


------------------------------------------------------------------------------
                       ORCA ELECTRIC PROPERTIES CALCULATION
------------------------------------------------------------------------------

Dipole Moment Calculation                       ... on
Quadrupole Moment Calculation                   ... off
Polarizability Calculation                      ... off
GBWName                                         ... 1_geo_opt.gbw
Electron density file                           ... 1_geo_opt.scfp.tmp
The origin for moment calculation is the CENTER OF MASS  = ( 7.033886, -2.143027  1.366854)

-------------
DIPOLE MOMENT
-------------
                                X             Y             Z
Electronic contribution:      1.76071      -0.02873       0.41902
Nuclear contribution   :     -2.07029       0.47897      -0.81346
                        -----------------------------------------
Total Dipole Moment    :     -0.30959       0.45023      -0.39444
                        -----------------------------------------
Magnitude (a.u.)       :      0.67390
Magnitude (Debye)      :      1.71291



--------------------
Rotational spectrum 
--------------------
 
Rotational constants in cm-1:     4.296817     0.833702     0.804768 
Rotational constants in MHz : 128815.326211 24993.759477 24126.350627 

 Dipole components along the rotational axes: 
x,y,z [a.u.] :    -0.332495     0.586161    -0.000621 
x,y,z [Debye]:    -0.845136     1.489903    -0.001579 

 
------------------------------------------------------------------------------
                      ORCA CHELPG CHARGES GENERATION
------------------------------------------------------------------------------

GBW file                           ... 1_geo_opt.gbw

Reading the GBW file               ... done

Grid spacing                       ...     0.300000
Point Cut-Off                      ...     2.800000
Van-der-Waals Radii                ...        COSMO
Total charge                       ...            0


Number of points X direction       ...           26
Number of points Y direction       ...           24
Number of points Z direction       ...           24
Maximum number of possible points  ...        14976
Final number of points             ...         5951


CHELPG Charges            
--------------------------------
  0   C   :       0.095978
  1   O   :      -0.607000
  2   H   :       0.403762
  3   H   :       0.013722
  4   H   :       0.080345
  5   H   :       0.013193
--------------------------------
Total charge:     0.000000
--------------------------------

CHELPG charges calculated...

Timings for individual parts in CHELPG calculation:
Grid generation                 ...        0.001 sec (=   0.000 min)
Potential calculation           ...        0.624 sec (=   0.010 min)
Fit to the potential            ...        0.002 sec (=   0.000 min)
------------------------------------------------------------------------------


Timings for individual modules:

Sum of individual times         ...       45.394 sec (=   0.757 min)
GTO integral calculation        ...        8.917 sec (=   0.149 min)  19.6 %
SCF iterations                  ...       23.100 sec (=   0.385 min)  50.9 %
SCF Gradient evaluation         ...        9.377 sec (=   0.156 min)  20.7 %
Geometry relaxation             ...        3.315 sec (=   0.055 min)   7.3 %
CHELPG charge generation        ...        0.686 sec (=   0.011 min)   1.5 %
                             ****ORCA TERMINATED NORMALLY****
TOTAL RUN TIME: 0 days 0 hours 0 minutes 48 seconds 13 msec
