LAMMPS data file via vdw_self_gen.py, on 2021-08-05 13:24:36.806638

6000 atoms
4 atom types
5500 bonds
4 bond types
9000 angles
6 angle types
10500 dihedrals
5 dihedral types

-39.5247219745956073  39.5247219745956144 xlo xhi
-39.5247219745956073  39.5247219745956144 ylo yhi
-39.5247219745956073  39.5247219745956144 zlo zhi

Masses

1  1.007940
2  1.007940
3  12.011000
4  14.006740

Atoms

1         0    4   -0.9730690000000000  -13.3100705611034620  13.0213985092989475 -28.8668783887424887 0 0 0
2         0    3    0.3740070000000000  -13.1239713868188943  12.5852785953520172 -30.2508624999553035 0 0 0
3         0    3    0.3740070000000000  -13.2257407018627031  13.7645273119331044 -31.2320065633106161 0 0 0
4         0    4   -0.9730690000000000  -13.0398127914179049  13.3283768166166325 -32.6160059544784104 0 0 0
5         0    2    0.3512850000000000  -13.2691125470388602  12.2059106602845944 -28.2562673940872777 0 0 0
6         0    2    0.3512850000000000  -14.2497019313685236  13.4032315462217912 -28.7601241975925355 0 0 0
7         0    1   -0.0517540000000000  -13.8790093672448336  11.8284207659902485 -30.4928492947357377 0 0 0
8         0    1   -0.0517540000000000  -12.1400772357545765  12.1109985467751518 -30.3396492017937689 0 0 0
9         0    1   -0.0517540000000000  -12.4706354315751771  14.5213301019135503 -30.9900879061925352 0 0 0
10        0    1   -0.0517540000000000  -14.2095954650198735  14.2388660028434213 -31.1431373407505205 0 0 0
11        0    2    0.3512850000000000  -12.1001472641246899  12.9467001676535922 -32.7228997024392214 0 0 0
12        0    2    0.3512850000000000  -13.0810132150529324  14.1438488734994650 -33.2266366521472847 0 0 0
13        1    4   -0.9730690000000000   14.6716158470068123  5.0864916184241675   21.0455489764200792 0 0 0
14        1    3    0.3740070000000000   13.2691454856586954  4.9507754037558955   21.4391267917453341 0 0 0
15        1    3    0.3740070000000000   13.0806900732749298  3.8325878429612596   22.4772834940438884 0 0 0
16        1    4   -0.9730690000000000   11.6781922350288507  3.6967585845023323   22.8707310553040521 0 0 0
17        1    2    0.3512850000000000   14.7451192862870482  5.8127702945447188   20.3337482271745067 0 0 0
18        1    2    0.3512850000000000   14.9779012589717464  4.2235157579237814   20.5965924662644859 0 0 0
19        1    1   -0.0517540000000000   12.6653319724679108  4.7426210662259116   20.5483098926826528 0 0 0
20        1    1   -0.0517540000000000   12.9276090499275185  5.9056644996760692   21.8543520570662189 0 0 0
21        1    1   -0.0517540000000000   13.6844157828787480  4.0407970614841018   23.3681388457623775 0 0 0
22        1    1   -0.0517540000000000   13.4223271881956698  2.8777249486713776   22.0620894885272101 0 0 0
23        1    2    0.3512850000000000   11.3718733576229702  4.5596173244326206   23.3198615276288734 0 0 0
24        1    2    0.3512850000000000   11.6046663610616143  2.9703048968585968   23.5823636746844265 0 0 0
25        2    4   -0.9730690000000000   14.4798337910111563  21.9601526598260790 -20.5969230586442151 0 0 0
26        2    3    0.3740070000000000   13.8978598846292964  22.2158043837028849 -21.9145702308680441 0 0 0
27        2    3    0.3740070000000000   12.4519523940618821  21.7006546228995703 -22.0017508179579160 0 0 0
28        2    4   -0.9730690000000000   11.8700390513672787  21.9561533149871657 -23.3194564137324498 0 0 0
29        2    2    0.3512850000000000   15.4460711051183814  22.2856140004379668 -20.5948868381321191 0 0 0
30        2    2    0.3512850000000000   14.5240096375207717  20.9533261911359503 -20.4405613180229189 0 0 0
31        2    1   -0.0517540000000000   14.5162209594943246  21.7321765928842936 -22.6795587769520353 0 0 0
32        2    1   -0.0517540000000000   13.9206930245084912  23.2948214386326384 -22.1044996553761415 0 0 0
33        2    1   -0.0517540000000000   11.8335713384099339  22.1843607451104035 -21.2368375378100680 0 0 0
34        2    1   -0.0517540000000000   12.4291159010615981  20.6216596986079885 -21.8117150967356963 0 0 0
35        2    2    0.3512850000000000   11.8256524481713079  22.9629561718348150 -23.4758292943739981 0 0 0
36        2    2    0.3512850000000000   10.9038683630280886  21.6304666772443426 -23.3215574586984609 0 0 0
37        3    4   -0.9730690000000000  -20.6333471704408282 -21.8764077098593752  32.0808490981971346 0 0 0
38        3    3    0.3740070000000000  -21.9322449127212415 -21.6521695526912978  31.4461622414963564 0 0 0
39        3    3    0.3740070000000000  -21.9841440745716596 -22.2642633114558564  30.0368092305084424 0 0 0
40        3    4   -0.9730690000000000  -23.2829856356288509 -22.0398732943976619  29.4020569349512400 0 0 0
41        3    2    0.3512850000000000  -20.6317022716664269 -21.4262196505639864  32.9956560631771154 0 0 0
42        3    2    0.3512850000000000  -19.9098882334488749 -21.4063368501881826  31.5370287319230691 0 0 0
43        3    1   -0.0517540000000000  -22.1251873698165547 -20.5743583889041339  31.3954666986371542 0 0 0
44        3    1   -0.0517540000000000  -22.7112032244444535 -22.0983145868581090  32.0746929889428216 0 0 0
45        3    1   -0.0517540000000000  -21.7913106618944923 -23.3420865866388922  30.0875175259736949 0 0 0
46        3    1   -0.0517540000000000  -21.2051160882506835 -21.8181912068773940  29.4083188157481032 0 0 0
47        3    2    0.3512850000000000  -24.0064811807654337 -22.5100612735305816  29.9457039724180305 0 0 0
48        3    2    0.3512850000000000  -23.2845356736545561 -22.4898640853385956  28.4871427942525237 0 0 0
49        4    4   -0.9730690000000000   14.3391383206936300 -30.4626233176058925 -32.1983910574967069 0 0 0
50        4    3    0.3740070000000000   13.7207678169797660 -30.2222769646032319 -30.8945133589241010 0 0 0
51        4    3    0.3740070000000000   12.6291409689621137 -31.2606623494757159 -30.5883519321076705 0 0 0
52        4    4   -0.9730690000000000   12.0106525361931915 -31.0202101649171809 -29.2845476666321858 0 0 0
53        4    2    0.3512850000000000   15.0300298080554757 -29.7338117937141426 -32.3745912077053006 0 0 0
54        4    2    0.3512850000000000   13.6331588694411696 -30.3601908250412258 -32.9272261803305781 0 0 0
55        4    1   -0.0517540000000000   13.2940429455893216 -29.2127276067604420 -30.8807397313691361 0 0 0
56        4    1   -0.0517540000000000   14.4994182978702941 -30.2626576016948974 -30.1244840243159864 0 0 0
57        4    1   -0.0517540000000000   13.0558866086393905 -32.2701971258702116 -30.6020180605480938 0 0 0
58        4    1   -0.0517540000000000   11.8505514133819609 -31.2203483379686553 -31.3584416748115338 0 0 0
59        4    2    0.3512850000000000   12.7165140305866498 -31.1228028683086642 -28.5556382560443822 0 0 0
60        4    2    0.3512850000000000   11.3195862819895385 -31.7488961402654475 -29.1084619459400393 0 0 0
61        5    4   -0.9730690000000000   31.3741247928404476  2.6158133494650033  -30.6963701426025004 0 0 0
62        5    3    0.3740070000000000   30.6747995834705165  3.8157437435920261  -30.2366345632855591 0 0 0
63        5    3    0.3740070000000000   30.8080144437839536  4.9674697033803703  -31.2462925829344371 0 0 0
64        5    4   -0.9730690000000000   30.1088327376181013  6.1674538015758600  -30.7864732020456344 0 0 0
65        5    2    0.3512850000000000   31.2889036289882476  1.8915990381246233  -29.9837729477711825 0 0 0
66        5    2    0.3512850000000000   32.3709514022089380  2.8178495349283970  -30.7713243153904052 0 0 0
67        5    1   -0.0517540000000000   31.0824387379154174  4.1181854553636512  -29.2651238503522961 0 0 0
68        5    1   -0.0517540000000000   29.6170073514931964  3.5702325221006990  -30.0894198306998746 0 0 0
69        5    1   -0.0517540000000000   30.4002783622763744  4.6650666683043669  -32.2177671122009883 0 0 0
70        5    1   -0.0517540000000000   31.8658113388787072  5.2129016619853861  -31.3935814481727782 0 0 0
71        5    2    0.3512850000000000   29.1119774592385419  5.9655670779043808  -30.7116671483333441 0 0 0
72        5    2    0.3512850000000000   30.1942652575132726  6.8917467427360766  -31.4989779524367037 0 0 0
73        6    4   -0.9730690000000000  -12.6402547315726999 -23.3998499498582326  23.0497765527599263 0 0 0
74        6    3    0.3740070000000000  -12.5190372420740204 -22.3513639587856261  22.0367469634269462 0 0 0
75        6    3    0.3740070000000000  -13.8307186276483378 -21.5649464379075368  21.8796876507651099 0 0 0
76        6    4   -0.9730690000000000  -13.7095506377840692 -20.5165724987489781  20.8665335859134622 0 0 0
77        6    2    0.3512850000000000  -11.7622115633392959 -23.9160159604997880  23.0962159948004988 0 0 0
78        6    2    0.3512850000000000  -13.3448561766938649 -24.0738121216638845  22.7507584397497418 0 0 0
79        6    1   -0.0517540000000000  -12.2371482698845444 -22.8074398204313482  21.0807097516082464 0 0 0
80        6    1   -0.0517540000000000  -11.7106558756256209 -21.6721881006515673  22.3301955338901230 0 0 0
81        6    1   -0.0517540000000000  -14.1125477513331248 -21.1087833081295742  22.8356932014154381 0 0 0
82        6    1   -0.0517540000000000  -14.6391143441270053 -22.2441453401755673  21.5863442613102983 0 0 0
83        6    2    0.3512850000000000  -13.0051052901103663 -19.8424663372376742  21.1655524415954588 0 0 0
84        6    2    0.3512850000000000  -14.5876873881894937 -20.0005626632142963  20.8199321200688559 0 0 0
85        7    4   -0.9730690000000000  -21.5423386507191665 -4.0868729456176913   14.9887570707751596 0 0 0
86        7    3    0.3740070000000000  -21.2996861269891617 -4.3201343862197294   13.5650455988976120 0 0 0
87        7    3    0.3740070000000000  -22.6166448607603385 -4.4630328365659011   12.7847713339545201 0 0 0
88        7    4   -0.9730690000000000  -22.3739870474051692 -4.6964666892441285   11.3610871768320614 0 0 0
89        7    2    0.3512850000000000  -20.6457129295354669 -4.0327894969132609   15.4711273375703442 0 0 0
90        7    2    0.3512850000000000  -22.0230876555530912 -4.8953729726713906   15.3828486058344094 0 0 0
91        7    1   -0.0517540000000000  -20.6932235809376053 -5.2257111122342570   13.4483935173153597 0 0 0
92        7    1   -0.0517540000000000  -20.7198570571791940 -3.4802082628222388   13.1660534931639646 0 0 0
93        7    1   -0.0517540000000000  -23.2230549762527083 -3.5574176034674863   12.9013341505326835 0 0 0
94        7    1   -0.0517540000000000  -23.1965137864866620 -5.3028914321841931   13.1838386161802923 0 0 0
95        7    2    0.3512850000000000  -21.8934078948447173 -3.8879423993124567   10.9668704957862673 0 0 0
96        7    2    0.3512850000000000  -23.2706319306407963 -4.7507891622080711   10.8787605015398476 0 0 0
97        8    4   -0.9730690000000000   3.0564351114502255   23.0325272513582355  13.9615896805439927 0 0 0
98        8    3    0.3740070000000000   3.8979242378588870   21.8538058642728323  13.7548109488923576 0 0 0
99        8    3    0.3740070000000000   4.8853937391774807   22.0625870232867101  12.5950943396699024 0 0 0
100       8    4   -0.9730690000000000   5.7267647209656127   20.8837982996519003  12.3882060286509130 0 0 0
101       8    2    0.3512850000000000   2.3965200179523833   22.8381541205010379  14.7141020943781555 0 0 0
102       8    2    0.3512850000000000   2.4906660824836493   23.1898694512608401  13.1277738283367906 0 0 0
103       8    1   -0.0517540000000000   3.2577823829310022   20.9873672217295741  13.5523851133938127 0 0 0
104       8    1   -0.0517540000000000   4.4482790589752810   21.6493153152936699  14.6801030809523603 0 0 0
105       8    1   -0.0517540000000000   5.5256041677825554   22.9289548806246906  12.7975700460568707 0 0 0
106       8    1   -0.0517540000000000   4.3350351488107659   22.2671821192796990  11.6698314602106770 0 0 0
107       8    2    0.3512850000000000   6.2927031009216936   20.7264874080900618  13.2218976229402543 0 0 0
108       8    2    0.3512850000000000   6.3865215301512981   21.0780975419548611  11.6355236543564118 0 0 0
109       9    4   -0.9730690000000000   5.2720728980875950  -12.4852880298779976 -11.6566484289525629 0 0 0
110       9    3    0.3740070000000000   4.2197273192395839  -13.1491897147415919 -12.4260955275982923 0 0 0
111       9    3    0.3740070000000000   4.5635852127469736  -13.2007127233151937 -13.9236720133779617 0 0 0
112       9    4   -0.9730690000000000   3.5111569941166119  -13.8644621052925778 -14.6931408949808251 0 0 0
113       9    2    0.3512850000000000   4.9879854007327591  -12.4430880027894677 -10.6783554109051035 0 0 0
114       9    2    0.3512850000000000   5.3522067500780146  -11.5168423467453600 -11.9661505484718464 0 0 0
115       9    1   -0.0517540000000000   3.2743474378702162  -12.6153154651474111 -12.2754008026664305 0 0 0
116       9    1   -0.0517540000000000   4.0906118956996522  -14.1660708223338858 -12.0385979613788674 0 0 0
117       9    1   -0.0517540000000000   5.5089042466888802  -13.7346788465552887 -14.0743742764634288 0 0 0
118       9    1   -0.0517540000000000   4.6928036340819768  -12.1838351637529403 -14.3111352449837490 0 0 0
119       9    2    0.3512850000000000   3.4310775198032362  -14.8329623960843620 -14.3838366670273068 0 0 0
120       9    2    0.3512850000000000   3.7951499903153465  -13.9064422817463402 -15.6714801215760620 0 0 0
121       10   4   -0.9730690000000000  -14.2448624061394096 -20.6842125262883236  14.0626348967049957 0 0 0
122       10   3    0.3740070000000000  -13.5615737896375492 -21.3349587237574951  12.9446494070234905 0 0 0
123       10   3    0.3740070000000000  -12.7883412683700364 -22.5814289209696142  13.4051401426699996 0 0 0
124       10   4   -0.9730690000000000  -12.1049116942208190 -23.2320752640759665  12.2871803443853977 0 0 0
125       10   2    0.3512850000000000  -14.7144522337031507 -19.8469006560431360  13.7192138673617521 0 0 0
126       10   2    0.3512850000000000  -13.5505857254497410 -20.3589933314366611  14.7351766451121602 0 0 0
127       10   1   -0.0517540000000000  -12.8761592443981989 -20.6184742158610064  12.4773908215286209 0 0 0
128       10   1   -0.0517540000000000  -14.3081658215561038 -21.6164551489491856  12.1934953323623567 0 0 0
129       10   1   -0.0517540000000000  -13.4737699364830199 -23.2979556087828392  13.8722976272298286 0 0 0
130       10   1   -0.0517540000000000  -12.0418270410536241 -22.2999402098170023  14.1563696291172594 0 0 0
131       10   2    0.3512850000000000  -12.7991171552810084 -23.5574904541474837  11.6146787660936219 0 0 0
132       10   2    0.3512850000000000  -11.6351215820897611 -24.0692614371753493  12.6306604187930471 0 0 0
133       11   4   -0.9730690000000000   4.6768952814103439  -31.6228853396281124 -23.6006020478715293 0 0 0
134       11   3    0.3740070000000000   4.9859762040685931  -31.1238887584613693 -22.2605584301737167 0 0 0
135       11   3    0.3740070000000000   3.7972849635713848  -30.3591162562153940 -21.6557738762426233 0 0 0
136       11   4   -0.9730690000000000   4.1064295663270833  -29.8599718561808025 -20.3157980407511296 0 0 0
137       11   2    0.3512850000000000   5.5009622740982840  -32.0917233266689763 -23.9756331280098749 0 0 0
138       11   2    0.3512850000000000   4.4999238654272258  -30.8317598305951606 -24.2193924681935258 0 0 0
139       11   1   -0.0517540000000000   5.8647840559045257  -30.4710414165505910 -22.3149720526551292 0 0 0
140       11   1   -0.0517540000000000   5.2454002571410285  -31.9749327248689035 -21.6207962311272226 0 0 0
141       11   1   -0.0517540000000000   2.9185133806361616  -31.0119928314253812 -21.6012601039681016 0 0 0
142       11   1   -0.0517540000000000   3.5378003560302509  -29.5081398788264337 -22.2955957819126134 0 0 0
143       11   2    0.3512850000000000   4.2832331544395155  -30.6510311890516327 -19.6968955734684990 0 0 0
144       11   2    0.3512850000000000   3.2824259404064300  -29.3909216877529360 -19.9408687629301085 0 0 0
145       12   4   -0.9730690000000000   5.7031714640297411  -20.6542342879815450 -4.0235909058412700  0 0 0
146       12   3    0.3740070000000000   4.7318999153995227  -21.7128326362567705 -3.7474630044071038  0 0 0
147       12   3    0.3740070000000000   4.0514610428931652  -22.2035832478060868 -5.0357933114891971  0 0 0
148       12   4   -0.9730690000000000   3.0800638983874618  -23.2620626109223458 -4.7596415729410477  0 0 0
149       12   2    0.3512850000000000   6.1034325746576714  -20.3362374218641406 -3.1414271942443728  0 0 0
150       12   2    0.3512850000000000   5.2168199640486730  -19.8483352859065256 -4.4161326925603959  0 0 0
151       12   1   -0.0517540000000000   3.9797730901291897  -21.3350362592528739 -3.0452886166432775  0 0 0
152       12   1   -0.0517540000000000   5.2505561785845662  -22.5459419469509186 -3.2598187688278761  0 0 0
153       12   1   -0.0517540000000000   4.8035740581824236  -22.5814778823468636 -5.7379191735807407  0 0 0
154       12   1   -0.0517540000000000   3.5328988421149226  -21.3704475018179032 -5.5234850174682180  0 0 0
155       12   2    0.3512850000000000   3.5663488581869105  -24.0680691017655235 -4.3672704278608876  0 0 0
156       12   2    0.3512850000000000   2.6796294128465932  -23.5798883144325551 -5.6417986135964213  0 0 0
157       13   4   -0.9730690000000000  -3.0568043239451490  -32.0706105672411326  21.8720819081471234 0 0 0
158       13   3    0.3740070000000000  -4.4058078418686160  -31.5100034291265487  21.9505334691583514 0 0 0
159       13   3    0.3740070000000000  -4.3774676275724858  -29.9729301219255895  21.9657217094759964 0 0 0
160       13   4   -0.9730690000000000  -5.7264646860583541  -29.4123271962234902  22.0443477426375587 0 0 0
161       13   2    0.3512850000000000  -3.1207985784359495  -33.0878204196145660  21.8991490326081752 0 0 0
162       13   2    0.3512850000000000  -2.5339116507276840  -31.8014714474069855  22.7052970207503364 0 0 0
163       13   1   -0.0517540000000000  -4.8982936395316585  -31.8860658390709730  22.8546952564104977 0 0 0
164       13   1   -0.0517540000000000  -4.9828631798445127  -31.8631842560389344  21.0884761718659917 0 0 0
165       13   1   -0.0517540000000000  -3.8850818961385434  -29.5968685930612203  21.0615131678284087 0 0 0
166       13   1   -0.0517540000000000  -3.8003223015161827  -29.6197606553690349  22.8277192314582287 0 0 0
167       13   2    0.3512850000000000  -6.2493709781635030  -29.6812588362543011  21.2110894252070139 0 0 0
168       13   2    0.3512850000000000  -5.6624425956581419  -28.3951037348929134  22.0175223617564271 0 0 0
169       14   4   -0.9730690000000000   31.7857893544970551 -29.7526560302928793  31.9610799668515284 0 0 0
170       14   3    0.3740070000000000   31.3565372923008567 -30.2862051219512978  30.6682870460823906 0 0 0
171       14   3    0.3740070000000000   30.1263292486671226 -31.1965945770614859  30.8145997642685714 0 0 0
172       14   4   -0.9730690000000000   29.6971838012524501 -31.7302806641685464  29.5218259624797099 0 0 0
173       14   2    0.3512850000000000   32.6210689141361883 -29.1847477144829810  31.8220404771982821 0 0 0
174       14   2    0.3512850000000000   32.0702143868442562 -30.5247426885981419  32.5636450093500898 0 0 0
175       14   1   -0.0517540000000000   32.1855865324034980 -30.8437773561944582  30.2174386284447856 0 0 0
176       14   1   -0.0517540000000000   31.1219065028494981 -29.4473737836891054  30.0033188348191047 0 0 0
177       14   1   -0.0517540000000000   29.2972513482441741 -30.6389947933899371  31.2653451303897540 0 0 0
178       14   1   -0.0517540000000000   30.3609354418601214 -32.0353617777402633  31.4796521265536491 0 0 0
179       14   2    0.3512850000000000   29.4125656637429778 -30.9582823769695992  28.9192599484509323 0 0 0
180       14   2    0.3512850000000000   28.8620366094274985 -32.2983882116870120  29.6609122013369131 0 0 0
181       15   4   -0.9730690000000000   22.3406217706748187  21.3195421365926308  32.4740019889529776 0 0 0
182       15   3    0.3740070000000000   21.6267062185625285  21.4402694545055574  31.2027840685074835 0 0 0
183       15   3    0.3740070000000000   22.2896973865338666  22.4759925370235187  30.2800985263906206 0 0 0
184       15   4   -0.9730690000000000   21.5756782654732859  22.5968430437127523  29.0089484144868983 0 0 0
185       15   2    0.3512850000000000   21.8489596290103343  20.6503214799578245  33.0655726345965775 0 0 0
186       15   2    0.3512850000000000   22.2988383695992454  22.2113742072210520  32.9669418864994910 0 0 0
187       15   1   -0.0517540000000000   20.5868072091297023  21.7243759418863505  31.4011959850064315 0 0 0
188       15   1   -0.0517540000000000   21.6140007382427903  20.4598551802425384  30.7133979581700913 0 0 0
189       15   1   -0.0517540000000000   23.3295573661115370  22.1918293487878273  30.0816002288551978 0 0 0
190       15   1   -0.0517540000000000   22.3024947260129061  23.4563770853654283  30.7695344188981821 0 0 0
191       15   2    0.3512850000000000   21.6175669867564899  21.7051145166375754  28.5158559181643589 0 0 0
192       15   2    0.3512850000000000   22.0672178311966043  23.2662515653710607  28.4174730676973972 0 0 0
193       16   4   -0.9730690000000000   12.5734724201617833 -11.4384720644430686 -22.3811718021316928 0 0 0
194       16   3    0.3740070000000000   13.4969855248525796 -12.5707119060783405 -22.3076735805334074 0 0 0
195       16   3    0.3740070000000000   12.8528071019540864 -13.7791089116805434 -21.6087894424792992 0 0 0
196       16   4   -0.9730690000000000   13.7763822224141617 -14.9112905750875822 -21.5351386779751941 0 0 0
197       16   2    0.3512850000000000   13.0513914877176251 -10.6515629654312214 -22.8192485218497474 0 0 0
198       16   2    0.3512850000000000   12.3423757563991376 -11.1335908918972226 -21.4357925977777839 0 0 0
199       16   1   -0.0517540000000000   14.4003242799821312 -12.2621492086865072 -21.7689325575369423 0 0 0
200       16   1   -0.0517540000000000   13.7965353936079644 -12.8453752321641499 -23.3253681697064614 0 0 0
201       16   1   -0.0517540000000000   11.9495343651932266 -14.0877371727441396 -22.1475899884120366 0 0 0
202       16   1   -0.0517540000000000   12.5531644889402134 -13.5044069297510916 -20.5911361356059643 0 0 0
203       16   2    0.3512850000000000   14.0073894122580853 -15.2163573502517160 -22.4804664422090426 0 0 0
204       16   2    0.3512850000000000   13.2985254449015091 -15.6981246901668374 -21.0968385810864767 0 0 0
205       17   4   -0.9730690000000000   29.0459592267160929 -31.2199403983781067 -21.2857122826606258 0 0 0
206       17   3    0.3740070000000000   30.1002245766606862 -31.0178740044664494 -22.2796636126852690 0 0 0
207       17   3    0.3740070000000000   31.3826803224847524 -30.4651344361780758 -21.6366904936894500 0 0 0
208       17   4   -0.9730690000000000   32.4368882852130440 -30.2629059506193911 -22.6306723688506182 0 0 0
209       17   2    0.3512850000000000   28.2066423612421602 -31.5532598810461096 -21.7589871493131461 0 0 0
210       17   2    0.3512850000000000   28.7964475382187004 -30.3202485208681125 -20.8753484437984476 0 0 0
211       17   1   -0.0517540000000000   29.7385085630641584 -30.3278686536874140 -23.0507199504480482 0 0 0
212       17   1   -0.0517540000000000   30.3113194550375979 -31.9766186438571971 -22.7666133145668290 0 0 0
213       17   1   -0.0517540000000000   31.7444539844144700 -31.1551888270579873 -20.8657146030408995 0 0 0
214       17   1   -0.0517540000000000   31.1715530537566110 -29.5064452092263103 -21.1496531543344339 0 0 0
215       17   2    0.3512850000000000   32.6865940965802295 -31.1625664287511839 -23.0409560179973099 0 0 0
216       17   2    0.3512850000000000   33.2761336328371868 -29.9293541420893447 -22.1574151059189788 0 0 0
217       18   4   -0.9730690000000000  -30.7496151166860372  22.8986276799977588 -11.5404827296676551 0 0 0
218       18   3    0.3740070000000000  -30.6521782313766558  21.7493922968420890 -12.4404880571986958 0 0 0
219       18   3    0.3740070000000000  -30.8306180833595036  22.1669731996041151 -13.9093017318942920 0 0 0
220       18   4   -0.9730690000000000  -30.7333527972559750  21.0177091167071133 -14.8092918924416850 0 0 0
221       18   2    0.3512850000000000  -30.6601040017816615  22.5722554632583261 -10.5787069168873717 0 0 0
222       18   2    0.3512850000000000  -31.6836545697523100  23.3016708616089474 -11.6127774823982506 0 0 0
223       18   1   -0.0517540000000000  -31.4143622000907534  21.0117963850733886 -12.1638988249835993 0 0 0
224       18   1   -0.0517540000000000  -29.6718856071728894  21.2791039030870195 -12.3036394509545328 0 0 0
225       18   1   -0.0517540000000000  -30.0683709988220507  22.9044831536277123 -14.1859197331709126 0 0 0
226       18   1   -0.0517540000000000  -31.8108664628480753  22.6373554709730129 -14.0461182538931144 0 0 0
227       18   2    0.3512850000000000  -29.7992900941798062  20.6147145312665252 -14.7372025608620003 0 0 0
228       18   2    0.3512850000000000  -30.8231069328999929  21.3440644352581081 -15.7710602640303179 0 0 0
229       19   4   -0.9730690000000000   23.0220290252296955  3.3884506153308593   3.2009650531707483  0 0 0
230       19   3    0.3740070000000000   22.0387495228733030  4.3843145832213199   3.6271831661167422  0 0 0
231       19   3    0.3740070000000000   21.8776873618227583  4.3990251730930812   5.1560620955690855  0 0 0
232       19   4   -0.9730690000000000   20.8942796439430722  5.3947714846604686   5.5822654515092101  0 0 0
233       19   2    0.3512850000000000   23.0714417724761418  3.3892902190895313   2.1825832715804165  0 0 0
234       19   2    0.3512850000000000   22.6927432613572577  2.4596838820332874   3.4637639843533012  0 0 0
235       19   1   -0.0517540000000000   21.0766806685795096  4.1654073336093402   3.1497139312280931  0 0 0
236       19   1   -0.0517540000000000   22.3645275298042421  5.3705134365878457   3.2776794390712984  0 0 0
237       19   1   -0.0517540000000000   22.8397279274755682  4.6180389485948332   5.6335241202149113  0 0 0
238       19   1   -0.0517540000000000   21.5520136235589383  3.4127958701036558   5.5055667529490009  0 0 0
239       19   2    0.3512850000000000   21.2235669618636180  6.3235827248619980   5.3196741659874194  0 0 0
240       19   2    0.3512850000000000   20.8446991983199972  5.3937550282745992   6.6006478677106148  0 0 0
241       20   4   -0.9730690000000000  -20.5334058546084890  14.0214465523480172 -5.2912176512530733  0 0 0
242       20   3    0.3740070000000000  -21.5409319666223382  12.9979812150499132 -5.0125505755883264  0 0 0
243       20   3    0.3740070000000000  -22.3754732311854738  13.3518772800750689 -3.7708071822090563  0 0 0
244       20   4   -0.9730690000000000  -23.3828852862474541  12.3283240062986632 -3.4920413230056542  0 0 0
245       20   2    0.3512850000000000  -19.9830176100766828  13.7305339453377417 -6.0986744073482164  0 0 0
246       20   2    0.3512850000000000  -19.8795882684311778  14.0684602736291868 -4.5099287729138480  0 0 0
247       20   1   -0.0517540000000000  -21.0413166259783786  12.0331928855080559 -4.8674929140427983  0 0 0
248       20   1   -0.0517540000000000  -22.1954472210218050  12.9033209020255288 -5.8863477776303839  0 0 0
249       20   1   -0.0517540000000000  -22.8751721478844168  14.3166081467590285 -3.9159085823302111  0 0 0
250       20   1   -0.0517540000000000  -21.7209391349686456  13.4466404573359810 -2.8970393729341719  0 0 0
251       20   2    0.3512850000000000  -24.0368531762951925  12.2813677011457418 -4.2731915934996820  0 0 0
252       20   2    0.3512850000000000  -23.9331159739839947  12.6191345328695910 -2.6844291467053614  0 0 0
253       21   4   -0.9730690000000000  -20.8830984843788769  13.5716355325421034  5.8891881974915465  0 0 0
254       21   3    0.3740070000000000  -22.1077284416704885  13.3062336559148306  5.1341459379545888  0 0 0
255       21   3    0.3740070000000000  -21.8086241809232639  13.0434871268630204  3.6491782262604682  0 0 0
256       21   4   -0.9730690000000000  -23.0332737164161045  12.7782558755709985  2.8941042856723644  0 0 0
257       21   2    0.3512850000000000  -21.1304213454268641  13.7734197455157847  6.8575157822466446  0 0 0
258       21   2    0.3512850000000000  -20.4461176530854765  14.4202298224121854  5.5299730507034228  0 0 0
259       21   1   -0.0517540000000000  -22.7842518467396324  14.1626596216170331  5.2357549053969610  0 0 0
260       21   1   -0.0517540000000000  -22.6082461118300841  12.4356265826950700  5.5727775935811916  0 0 0
261       21   1   -0.0517540000000000  -21.1321916099061653  12.1869984397213109  3.5475653606111432  0 0 0
262       21   1   -0.0517540000000000  -21.3080123315525150  13.9140543792389710  3.2105832391024069  0 0 0
263       21   2    0.3512850000000000  -23.4702246397756937  11.9295792778028051  3.2531259617252282  0 0 0
264       21   2    0.3512850000000000  -22.7859561355988802  12.5767078384884154  1.9257167587148682  0 0 0
265       22   4   -0.9730690000000000  -3.1445409959924939   3.0683314349203812  -3.8921614405233060  0 0 0
266       22   3    0.3740070000000000  -3.8287376557349577   4.3612288457555328  -3.8689942664827939  0 0 0
267       22   3    0.3740070000000000  -4.9545748045091873   4.4220031019452888  -4.9141858308978943  0 0 0
268       22   4   -0.9730690000000000  -5.6386574668252489   5.7149649310647224  -4.8911342201362311  0 0 0
269       22   2    0.3512850000000000  -2.3868420041387770   3.0844278676587682  -3.2101226438284476  0 0 0
270       22   2    0.3512850000000000  -2.6994731721293377   2.9418200068749121  -4.8010121037984144  0 0 0
271       22   1   -0.0517540000000000  -3.0983198333025630   5.1567772148716529  -4.0562543307511936  0 0 0