
                                 *****************
                                 * O   R   C   A *
                                 *****************

           --- An Ab Initio, DFT and Semiempirical electronic structure package ---

                  #######################################################
                  #                        -***-                        #
                  #          Department of theory and spectroscopy      #
                  #               Directorship: Frank Neese             #
                  #        Max Planck Institute fuer Kohlenforschung    #
                  #                Kaiser Wilhelm Platz 1               #
                  #                 D-45470 Muelheim/Ruhr               #
                  #                      Germany                        #
                  #                                                     #
                  #                  All rights reserved                #
                  #                        -***-                        #
                  #######################################################


                         Program Version 4.1.2  - RELEASE  -


 With contributions from (in alphabetic order):
   Daniel Aravena         : Magnetic Properties
   Michael Atanasov       : Ab Initio Ligand Field Theory
   Alexander A. Auer      : GIAO ZORA
   Ute Becker             : Parallelization
   Giovanni Bistoni       : ED, Open-shell LED
   Martin Brehm           : Molecular dynamics
   Dmytro Bykov           : SCF Hessian
   Vijay G. Chilkuri      : MRCI spin determinant printing
   Dipayan Datta          : RHF DLPNO-CCSD density
   Achintya Kumar Dutta   : EOM-CC, STEOM-CC
   Dmitry Ganyushin       : Spin-Orbit,Spin-Spin,Magnetic field MRCI
   Miquel Garcia          : C-PCM Hessian
   Yang Guo               : DLPNO-NEVPT2, CIM, IAO-localization
   Andreas Hansen         : Spin unrestricted coupled pair/coupled cluster methods
   Benjamin Helmich-Paris : CASSCF linear response (MC-RPA)
   Lee Huntington         : MR-EOM, pCC
   Robert Izsak           : Overlap fitted RIJCOSX, COSX-SCS-MP3, EOM
   Christian Kollmar      : KDIIS, OOCD, Brueckner-CCSD(T), CCSD density
   Simone Kossmann        : Meta GGA functionals, TD-DFT gradient, OOMP2, MP2 Hessian
   Martin Krupicka        : AUTO-CI
   Lucas Lang             : DCDCAS
   Dagmar Lenk            : GEPOL surface, SMD
   Dimitrios Liakos       : Extrapolation schemes; parallel MDCI
   Dimitrios Manganas     : ROCIS; embedding schemes
   Dimitrios Pantazis     : SARC Basis sets
   Taras Petrenko         : DFT Hessian,TD-DFT gradient, ASA, ECA, R-Raman, ABS, FL, XAS/XES, NRVS
   Peter Pinski           : DLPNO-MP2, DLPNO-MP2 Gradient
   Christoph Reimann      : Effective Core Potentials
   Marius Retegan         : Local ZFS, SOC
   Christoph Riplinger    : Optimizer, TS searches, QM/MM, DLPNO-CCSD(T), (RO)-DLPNO pert. Triples
   Tobias Risthaus        : Range-separated hybrids, TD-DFT gradient, RPA, STAB
   Michael Roemelt        : Restricted open shell CIS
   Masaaki Saitow         : Open-shell DLPNO
   Barbara Sandhoefer     : DKH picture change effects
   Avijit Sen             : IP-ROCIS
   Kantharuban Sivalingam : CASSCF convergence, NEVPT2, FIC-MRCI
   Bernardo de Souza      : ESD, SOC TD-DFT
   Georgi Stoychev        : AutoAux, RI-MP2 NMR
   Willem Van den Heuvel  : Paramagnetic NMR
   Boris Wezisla          : Elementary symmetry handling
   Frank Wennmohs         : Technical directorship


 We gratefully acknowledge several colleagues who have allowed us to
 interface, adapt or use parts of their codes:
   Stefan Grimme, W. Hujo, H. Kruse,             : VdW corrections, initial TS optimization,
                  C. Bannwarth                     DFT functionals, gCP, sTDA/sTD-DF
   Ed Valeev                                     : LibInt (2-el integral package), F12 methods
   Garnet Chan, S. Sharma, J. Yang, R. Olivares  : DMRG
   Ulf Ekstrom                                   : XCFun DFT Library
   Mihaly Kallay                                 : mrcc  (arbitrary order and MRCC methods)
   Andreas Klamt, Michael Diedenhofen            : otool_cosmo (COSMO solvation model)
   Jiri Pittner, Ondrej Demel                    : Mk-CCSD
   Frank Weinhold                                : gennbo (NPA and NBO analysis)
   Christopher J. Cramer and Donald G. Truhlar   : smd solvation model
   Lars Goerigk                                  : TD-DFT with DH, B97 family of functionals
   V. Asgeirsson, H. Jonsson                     : NEB implementation
   FAccTs GmbH                                   : IRC, NEB, NEB-TS, Multilevel


 Your calculation uses the libint2 library for the computation of 2-el integrals
 For citations please refer to: http://libint.valeyev.net

 This ORCA versions uses:
   CBLAS   interface :  Fast vector & matrix operations
   LAPACKE interface :  Fast linear algebra routines
   SCALAPACK package :  Parallel linear algebra routines


Your calculation utilizes the atom-pairwise dispersion correction
with the zero-damping scheme (D30)
Cite in your paper:
S.Grimme, J.Antony, S.Ehrlich and H.Krieg, J.Chem.Phys., 132, (2010), 154104 
   

XCFun DFT library Copyright 2009-2010 Ulf Ekstrom and contributors.
See http://admol.org/xcfun for more information. This is free soft-
ware; see the source code for copying conditions. There is ABSOLUTELY
NO WARRANTY; not even for MERCHANTABILITY or FITNESS FOR A PARTICULAR
PURPOSE. For details see the documentation. Scientific users of this 
library should cite U. Ekstrom, L. Visscher, R. Bast, A. J. Thorvald-
sen and K. Ruud; J.Chem.Theor.Comp. 2010, DOI: 10.1021/ct100117s
XCFun Version 0.99 
----- Orbital basis set information -----
Your calculation utilizes the basis: def2-TZVP
   F. Weigend and R. Ahlrichs, Phys. Chem. Chem. Phys. 7, 3297 (2005).

================================================================================
                                        WARNINGS
                       Please study these warnings very carefully!
================================================================================


INFO   : the flag for use of LIBINT has been found!

Your calculation utilizes the atom-pairwise dispersion correction
with the zero-damping scheme (D30)
Cite in your paper:
S.Grimme, J.Antony, S.Ehrlich and H.Krieg, J.Chem.Phys., 132, (2010), 154104 
   

XCFun DFT library Copyright 2009-2010 Ulf Ekstrom and contributors.
See http://admol.org/xcfun for more information. This is free soft-
ware; see the source code for copying conditions. There is ABSOLUTELY
NO WARRANTY; not even for MERCHANTABILITY or FITNESS FOR A PARTICULAR
PURPOSE. For details see the documentation. Scientific users of this 
library should cite U. Ekstrom, L. Visscher, R. Bast, A. J. Thorvald-
sen and K. Ruud; J.Chem.Theor.Comp. 2010, DOI: 10.1021/ct100117s
XCFun Version 0.99 
----- Orbital basis set information -----
Your calculation utilizes the basis: def2-TZVP
   F. Weigend and R. Ahlrichs, Phys. Chem. Chem. Phys. 7, 3297 (2005).

================================================================================
                                        WARNINGS
                       Please study these warnings very carefully!
================================================================================


WARNING: MOInp is set but Guess=PModel. MOInp will be ignored!
         To read the initial guess from a file you must also specify
         'MORead' in the simple input or 'Guess MORead' in the %scf block


INFO   : the flag for use of LIBINT has been found!

Your calculation utilizes the atom-pairwise dispersion correction
with the zero-damping scheme (D30)
Cite in your paper:
S.Grimme, J.Antony, S.Ehrlich and H.Krieg, J.Chem.Phys., 132, (2010), 154104 
   

XCFun DFT library Copyright 2009-2010 Ulf Ekstrom and contributors.
See http://admol.org/xcfun for more information. This is free soft-
ware; see the source code for copying conditions. There is ABSOLUTELY
NO WARRANTY; not even for MERCHANTABILITY or FITNESS FOR A PARTICULAR
PURPOSE. For details see the documentation. Scientific users of this 
library should cite U. Ekstrom, L. Visscher, R. Bast, A. J. Thorvald-
sen and K. Ruud; J.Chem.Theor.Comp. 2010, DOI: 10.1021/ct100117s
XCFun Version 0.99 
----- Orbital basis set information -----
Your calculation utilizes the basis: def2-TZVP
   F. Weigend and R. Ahlrichs, Phys. Chem. Chem. Phys. 7, 3297 (2005).

================================================================================
                                        WARNINGS
                       Please study these warnings very carefully!
================================================================================


WARNING: MOInp is set but Guess=PModel. MOInp will be ignored!
         To read the initial guess from a file you must also specify
         'MORead' in the simple input or 'Guess MORead' in the %scf block


INFO   : the flag for use of LIBINT has been found!

================================================================================
                                       INPUT FILE
================================================================================
NAME = 7-72.in
|  1> #Run DFT-D3 single point of the dimer
|  2> ! wB97X-D3 def2-TZVP TIGHTSCF CHELPG PMODEL PAL8
|  3> 
|  4> %base "7-72_DFT_AB"
|  5> 
|  6> %scf
|  7> MaxIter 1000
|  8> end
|  9> 
| 10> * xyz 0 1
| 11>   C                      7.285926             0.821066             2.316241            
| 12>   O                      7.532912             0.471736             1.007627            
| 13>   H                      8.045949             -0.406475            0.930814            
| 14>   H                      7.486048             -0.087081            3.004934            
| 15>   H                      7.841240             1.695538             2.765298            
| 16>   H                      6.188296             0.937388             2.320612            
| 17>   C                      8.231847             4.812904             2.218231            
| 18>   O                      7.857317             4.358539             3.507066            
| 19>   H                      8.511085             3.740002             3.820354            
| 20>   H                      9.259510             4.563071             1.868465            
| 21>   H                      7.425748             4.418321             1.520043            
| 22>   H                      8.132544             5.888729             2.119775            
| 23> *
| 24> 
| 25> #Run DFT-D3 single point of the molecule with dimer basis set
| 26> $new_job
| 27> %base "7-72_DFT_A"
| 28> ! wB97X-D3 def2-TZVP TIGHTSCF CHELPG PMODEL
| 29> 
| 30> %scf
| 31> MaxIter 1000
| 32> end
| 33> 
| 34> * xyz 0 1
| 35>   C                      7.285926             0.821066             2.316241            
| 36>   O                      7.532912             0.471736             1.007627            
| 37>   H                      8.045949             -0.406475            0.930814            
| 38>   H                      7.486048             -0.087081            3.004934            
| 39>   H                      7.841240             1.695538             2.765298            
| 40>   H                      6.188296             0.937388             2.320612            
| 41>   C                    : 8.231847             4.812904             2.218231            
| 42>   O                    : 7.857317             4.358539             3.507066            
| 43>   H                    : 8.511085             3.740002             3.820354            
| 44>   H                    : 9.259510             4.563071             1.868465            
| 45>   H                    : 7.425748             4.418321             1.520043            
| 46>   H                    : 8.132544             5.888729             2.119775            
| 47> *
| 48> 
| 49> #Run DFT-D3 single point of the particle with dimer basis set
| 50> $new_job
| 51> %base "7-72_DFT_B"
| 52> ! wB97X-D3 def2-TZVP TIGHTSCF CHELPG PMODEL
| 53> 
| 54> %scf
| 55> MaxIter 1000
| 56> end
| 57> 
| 58> * xyz 0 1
| 59>   C                    : 7.285926             0.821066             2.316241            
| 60>   O                    : 7.532912             0.471736             1.007627            
| 61>   H                    : 8.045949             -0.406475            0.930814            
| 62>   H                    : 7.486048             -0.087081            3.004934            
| 63>   H                    : 7.841240             1.695538             2.765298            
| 64>   H                    : 6.188296             0.937388             2.320612            
| 65>   C                      8.231847             4.812904             2.218231            
| 66>   O                      7.857317             4.358539             3.507066            
| 67>   H                      8.511085             3.740002             3.820354            
| 68>   H                      9.259510             4.563071             1.868465            
| 69>   H                      7.425748             4.418321             1.520043            
| 70>   H                      8.132544             5.888729             2.119775            
| 71> *
| 72> 
| 73>                          ****END OF INPUT****
================================================================================


                 $$$$$$$$$$$$$$$$$$$$$$$$$$$$$$$$$$$$$$$$$$$$$$ 
                 $ THERE ARE  3 JOBS TO BE PROCESSED THIS RUN $
                 $$$$$$$$$$$$$$$$$$$$$$$$$$$$$$$$$$$$$$$$$$$$$$ 




                 $$$$$$$$$$$$$$$$  JOB NUMBER  1 $$$$$$$$$$$$$$


                       ****************************
                       * Single Point Calculation *
                       ****************************

---------------------------------
CARTESIAN COORDINATES (ANGSTROEM)
---------------------------------
  C      7.285926    0.821066    2.316241
  O      7.532912    0.471736    1.007627
  H      8.045949   -0.406475    0.930814
  H      7.486048   -0.087081    3.004934
  H      7.841240    1.695538    2.765298
  H      6.188296    0.937388    2.320612
  C      8.231847    4.812904    2.218231
  O      7.857317    4.358539    3.507066
  H      8.511085    3.740002    3.820354
  H      9.259510    4.563071    1.868465
  H      7.425748    4.418321    1.520043
  H      8.132544    5.888729    2.119775

----------------------------
CARTESIAN COORDINATES (A.U.)
----------------------------
  NO LB      ZA    FRAG     MASS         X           Y           Z
   0 C     6.0000    0    12.011   13.768405    1.551590    4.377061
   1 O     8.0000    0    15.999   14.235141    0.891452    1.904139
   2 H     1.0000    0     1.008   15.204640   -0.768126    1.758984
   3 H     1.0000    0     1.008   14.146581   -0.164559    5.678502
   4 H     1.0000    0     1.008   14.817796    3.204102    5.225656
   5 H     1.0000    0     1.008   11.694185    1.771407    4.385321
   6 C     6.0000    0    12.011   15.555936    9.095070    4.191849
   7 O     8.0000    0    15.999   14.848177    8.236445    6.627394
   8 H     1.0000    0     1.008   16.083620    7.067580    7.219423
   9 H     1.0000    0     1.008   17.497938    8.622955    3.530887
  10 H     1.0000    0     1.008   14.032630    8.349417    2.872465
  11 H     1.0000    0     1.008   15.368281   11.128085    4.005794

--------------------------------
INTERNAL COORDINATES (ANGSTROEM)
--------------------------------
 C      0   0   0     0.000000000000     0.00000000     0.00000000
 O      1   0   0     1.376773087365     0.00000000     0.00000000
 H      2   1   0     1.019981255151   112.35086573     0.00000000
 H      1   2   3     1.157185307866   109.60487552   346.02568269
 H      1   2   3     1.129038133381   119.09969729   109.10444116
 H      1   2   3     1.103785092409   102.05776804   235.53981624
 C      5   1   2     3.189016605302   138.51593643    58.62693464
 O      7   5   1     1.416974216897    59.87667483   128.84569968
 H      8   7   5     0.952969038918   109.01512812    57.17083157
 H      7   5   1     1.113931786158    86.99761566   252.91010280
 H      7   5   1     1.137083033483    71.29378484     7.93986382
 H      7   5   1     1.084875154278   166.83904921    73.62806563

---------------------------
INTERNAL COORDINATES (A.U.)
---------------------------
 C      0   0   0     0.000000000000     0.00000000     0.00000000
 O      1   0   0     2.601724083673     0.00000000     0.00000000
 H      2   1   0     1.927485233968   112.35086573     0.00000000
 H      1   2   3     2.186763318065   109.60487552   346.02568269
 H      1   2   3     2.133572866844   119.09969729   109.10444116
 H      1   2   3     2.085851535359   102.05776804   235.53981624
 C      5   1   2     6.026368020549   138.51593643    58.62693464
 O      7   5   1     2.677693208762    59.87667483   128.84569968
 H      8   7   5     1.800850497662   109.01512812    57.17083157
 H      7   5   1     2.105026007709    86.99761566   252.91010280
 H      7   5   1     2.148775524811    71.29378484     7.93986382
 H      7   5   1     2.050116931081   166.83904921    73.62806563

---------------------
BASIS SET INFORMATION
---------------------
There are 3 groups of distinct atoms

 Group   1 Type C   : 11s6p2d1f contracted to 5s3p2d1f pattern {62111/411/11/1}
 Group   2 Type O   : 11s6p2d1f contracted to 5s3p2d1f pattern {62111/411/11/1}
 Group   3 Type H   : 5s1p contracted to 3s1p pattern {311/1}

Atom   0C    basis set group =>   1
Atom   1O    basis set group =>   2
Atom   2H    basis set group =>   3
Atom   3H    basis set group =>   3
Atom   4H    basis set group =>   3
Atom   5H    basis set group =>   3
Atom   6C    basis set group =>   1
Atom   7O    basis set group =>   2
Atom   8H    basis set group =>   3
Atom   9H    basis set group =>   3
Atom  10H    basis set group =>   3
Atom  11H    basis set group =>   3


           ************************************************************
           *        Program running with 8 parallel MPI-processes     *
           *              working on a common directory               *
           ************************************************************
------------------------------------------------------------------------------
                           ORCA GTO INTEGRAL CALCULATION
------------------------------------------------------------------------------

                         BASIS SET STATISTICS AND STARTUP INFO

 # of primitive gaussian shells          ...  128
 # of primitive gaussian functions       ...  248
 # of contracted shells                  ...   76
 # of contracted basis functions         ...  172
 Highest angular momentum                ...    3
 Maximum contraction depth               ...    6
 Integral package used                   ... LIBINT
 Integral threshhold            Thresh   ...  2.500e-11
 Primitive cut-off              TCut     ...  2.500e-12


------------------------------ INTEGRAL EVALUATION ----------------------------


 * One electron integrals 
 Pre-screening matrix                    ... done
 Shell pair data                         ... done (   0.001 sec)



           ************************************************************
           *        Program running with 8 parallel MPI-processes     *
           *              working on a common directory               *
           ************************************************************
-------------------------------------------------------------------------------
                                 ORCA SCF
-------------------------------------------------------------------------------

------------
SCF SETTINGS
------------
Hamiltonian:
 Density Functional     Method          .... DFT(GTOs)
 Exchange Functional    Exchange        .... WB97X-D3
 Correlation Functional Correlation     .... WB97X-D3
 Gradients option       PostSCFGGA      .... off
 Hybrid DFT is turned on
   Fraction HF Exchange ScalHFX         ....  0.195728
   Scaling of DF-GGA-X  ScalDFX         ....  0.000000
   Scaling of DF-GGA-C  ScalDFC         ....  1.000000
   Scaling of DF-LDA-C  ScalLDAC        ....  1.000000
   Perturbative correction              ....  0.000000
   Density functional embedding theory  .... OFF
 Long-range corrected/Screened/Range-Separated Hybrid DFT is turned on
   Amount of maximum screened exact exchange              ....  0.804272
   Range separation parameter mu (erf(mu*r12)/r12)        ....  0.250000


General Settings:
 Integral files         IntName         .... 7-72_DFT_AB
 Hartree-Fock type      HFTyp           .... RHF
 Total Charge           Charge          ....    0
 Multiplicity           Mult            ....    1
 Number of Electrons    NEL             ....   36
 Basis Dimension        Dim             ....  172
 Nuclear Repulsion      ENuc            ....    120.8024781540 Eh

Convergence Acceleration:
 DIIS                   CNVDIIS         .... on
   Start iteration      DIISMaxIt       ....    12
   Startup error        DIISStart       ....  0.200000
   # of expansion vecs  DIISMaxEq       ....     5
   Bias factor          DIISBfac        ....   1.050
   Max. coefficient     DIISMaxC        ....  10.000
 Newton-Raphson         CNVNR           .... off
 SOSCF                  CNVSOSCF        .... on
   Start iteration      SOSCFMaxIt      ....   150
   Startup grad/error   SOSCFStart      ....  0.003300
 Level Shifting         CNVShift        .... on
   Level shift para.    LevelShift      ....    0.2500
   Turn off err/grad.   ShiftErr        ....    0.0010
 Zerner damping         CNVZerner       .... off
 Static damping         CNVDamp         .... on
   Fraction old density DampFac         ....    0.7000
   Max. Damping (<1)    DampMax         ....    0.9800
   Min. Damping (>=0)   DampMin         ....    0.0000
   Turn off err/grad.   DampErr         ....    0.1000
 Fernandez-Rico         CNVRico         .... off

SCF Procedure:
 Maximum # iterations   MaxIter         ....  1000
 SCF integral mode      SCFMode         .... Direct
   Integral package                     .... LIBINT
 Reset frequency        DirectResetFreq ....    20
 Integral Threshold     Thresh          ....  2.500e-11 Eh
 Primitive CutOff       TCut            ....  2.500e-12 Eh

Convergence Tolerance:
 Convergence Check Mode ConvCheckMode   .... Total+1el-Energy
 Convergence forced     ConvForced      .... 0
 Energy Change          TolE            ....  1.000e-08 Eh
 1-El. energy change                    ....  1.000e-05 Eh
 Orbital Gradient       TolG            ....  1.000e-05
 Orbital Rotation angle TolX            ....  1.000e-05
 DIIS Error             TolErr          ....  5.000e-07


Diagonalization of the overlap matrix:
Smallest eigenvalue                        ... 1.440e-03
Time for diagonalization                   ...    0.004 sec
Threshold for overlap eigenvalues          ... 1.000e-08
Number of eigenvalues below threshold      ... 0
Time for construction of square roots      ...    0.006 sec
Total time needed                          ...    0.010 sec

-------------------
DFT GRID GENERATION
-------------------

General Integration Accuracy     IntAcc      ...  4.340
Radial Grid Type                 RadialGrid  ... Gauss-Chebyshev
Angular Grid (max. acc.)         AngularGrid ... Lebedev-110
Angular grid pruning method      GridPruning ... 3 (G Style)
Weight generation scheme         WeightScheme... Becke
Basis function cutoff            BFCut       ...    1.0000e-11
Integration weight cutoff        WCut        ...    1.0000e-14
Grids for H and He will be reduced by one unit

# of grid points (after initial pruning)     ...  13096 (   0.0 sec)
# of grid points (after weights+screening)   ...  12498 (   0.0 sec)
nearest neighbour list constructed           ...    0.0 sec
Grid point re-assignment to atoms done       ...    0.0 sec
Grid point division into batches done        ...    0.0 sec
Reduced shell lists constructed in    0.0 sec

Total number of grid points                  ...    12498
Total number of batches                      ...      202
Average number of points per batch           ...       61
Average number of grid points per atom       ...     1042
Average number of shells per batch           ...    51.41 (67.64%)
Average number of basis functions per batch  ...   112.07 (65.16%)
Average number of large shells per batch     ...    41.89 (81.48%)
Average number of large basis fcns per batch ...    92.26 (82.32%)
Maximum spatial batch extension              ...  18.30,  7.69, 15.16 au
Average spatial batch extension              ...   0.35,  0.26,  0.31 au

Time for grid setup =    0.037 sec

------------------------------
INITIAL GUESS: MODEL POTENTIAL
------------------------------
Loading Hartree-Fock densities                     ... done
Calculating cut-offs                               ... done
Setting up the integral package                    ... done
Initializing the effective Hamiltonian             ... done
Starting the Coulomb interaction                   ... done (   0.0 sec)
Reading the grid                                   ... done
Mapping shells                                     ... done
Starting the XC term evaluation                    ... done (   0.0 sec)
  promolecular density results
     # of electrons  =     35.999688331
     EX              =    -28.835230267
     EC              =     -1.149883783
     EX+EC           =    -29.985114051
Transforming the Hamiltonian                       ... done (   0.0 sec)
Diagonalizing the Hamiltonian                      ... done (   0.0 sec)
Back transforming the eigenvectors                 ... done (   0.0 sec)
Now organizing SCF variables                       ... done
                      ------------------
                      INITIAL GUESS DONE (   0.1 sec)
                      ------------------
--------------
SCF ITERATIONS
--------------
ITER       Energy         Delta-E        Max-DP      RMS-DP      [F,P]     Damp
               ***  Starting incremental Fock matrix formation  ***
  0   -231.2845057159   0.000000000000 0.03750605  0.00112229  0.2547585 0.7000
  1   -231.3582506173  -0.073744901400 0.02443279  0.00081246  0.1261371 0.7000
                               ***Turning on DIIS***
  2   -231.3915687729  -0.033318155601 0.04696047  0.00145030  0.0480318 0.0000
  3   -231.4454568349  -0.053888062030 0.01795367  0.00053535  0.0620738 0.0000
  4   -231.4546764571  -0.009219622132 0.00411886  0.00010703  0.0061368 0.0000
                      *** Initiating the SOSCF procedure ***
                           *** Shutting down DIIS ***
                      *** Re-Reading the Fockian *** 
                      *** Removing any level shift *** 
ITER      Energy       Delta-E        Grad      Rot      Max-DP    RMS-DP
  5   -231.45486174  -0.0001852841  0.000422  0.000422  0.001031  0.000038
               *** Restarting incremental Fock matrix formation ***
  6   -231.45487868  -0.0000169417  0.000144  0.000189  0.000736  0.000023
  7   -231.45488040  -0.0000017179  0.000041  0.000102  0.000384  0.000011
  8   -231.45488054  -0.0000001348  0.000026  0.000018  0.000053  0.000002
  9   -231.45488058  -0.0000000402  0.000009  0.000010  0.000024  0.000001
 10   -231.45488058  -0.0000000038  0.000003  0.000004  0.000007  0.000000
                  ***Gradient check signals convergence***
              ***Rediagonalizing the Fockian in SOSCF/NRSCF***

               *****************************************************
               *                     SUCCESS                       *
               *           SCF CONVERGED AFTER  11 CYCLES          *
               *****************************************************

Setting up the final grid:

General Integration Accuracy     IntAcc      ...  4.670
Radial Grid Type                 RadialGrid  ... Gauss-Chebyshev
Angular Grid (max. acc.)         AngularGrid ... Lebedev-302
Angular grid pruning method      GridPruning ... 3 (G Style)
Weight generation scheme         WeightScheme... Becke
Basis function cutoff            BFCut       ...    1.0000e-11
Integration weight cutoff        WCut        ...    1.0000e-14
Grids for H and He will be reduced by one unit

# of grid points (after initial pruning)     ...  52000 (   0.0 sec)
# of grid points (after weights+screening)   ...  49176 (   0.0 sec)
nearest neighbour list constructed           ...    0.0 sec
Grid point re-assignment to atoms done       ...    0.0 sec
Grid point division into batches done        ...    0.2 sec
Reduced shell lists constructed in    0.2 sec

Total number of grid points                  ...    49176
Total number of batches                      ...      774
Average number of points per batch           ...       63
Average number of grid points per atom       ...     4098
Average number of shells per batch           ...    49.83 (65.56%)
Average number of basis functions per batch  ...   108.40 (63.02%)
Average number of large shells per batch     ...    40.35 (80.97%)
Average number of large basis fcns per batch ...    88.78 (81.90%)
Maximum spatial batch extension              ...  16.22, 11.18, 13.45 au
Average spatial batch extension              ...   0.21,  0.19,  0.21 au

Final grid set up in    0.2 sec
Final integration                            ... done (   0.1 sec)
Change in XC energy                          ...    -0.000118504
Integrated number of electrons               ...    36.000019357
Previous integrated no of electrons          ...    36.004110257

----------------
TOTAL SCF ENERGY
----------------

Total Energy       :         -231.45499908 Eh           -6298.21072 eV

Components:
Nuclear Repulsion  :          120.80247815 Eh            3287.20255 eV
Electronic Energy  :         -352.25747724 Eh           -9585.41327 eV
One Electron Energy:         -554.49197000 Eh          -15088.49359 eV
Two Electron Energy:          202.23449276 Eh            5503.08032 eV

Virial components:
Potential Energy   :         -461.72647097 Eh          -12564.21603 eV
Kinetic Energy     :          230.27147188 Eh            6266.00531 eV
Virial Ratio       :            2.00513970


DFT components:
N(Alpha)           :       18.000009678534 electrons
N(Beta)            :       18.000009678534 electrons
N(Total)           :       36.000019357069 electrons
E(XC)              :      -21.257925065936 Eh       
DFET-embed. en.    :        0.000000000000 Eh       

---------------
SCF CONVERGENCE
---------------

  Last Energy change         ...   -4.6796e-10  Tolerance :   1.0000e-08
  Last MAX-Density change    ...    3.1626e-06  Tolerance :   1.0000e-07
  Last RMS-Density change    ...    9.7602e-08  Tolerance :   5.0000e-09
  Last Orbital Gradient      ...    1.1122e-06  Tolerance :   1.0000e-05
  Last Orbital Rotation      ...    1.9050e-06  Tolerance :   1.0000e-05

             **** THE GBW FILE WAS UPDATED (7-72_DFT_AB.gbw) ****
             **** DENSITY FILE WAS UPDATED (7-72_DFT_AB.scfp.tmp) ****
             **** ENERGY FILE WAS UPDATED (7-72_DFT_AB.en.tmp) ****
----------------
ORBITAL ENERGIES
----------------

  NO   OCC          E(Eh)            E(eV) 
   0   2.0000     -19.235009      -523.4112 
   1   2.0000     -19.231959      -523.3282 
   2   2.0000     -10.320713      -280.8409 
   3   2.0000     -10.316429      -280.7243 
   4   2.0000      -1.137984       -30.9661 
   5   2.0000      -1.137509       -30.9532 
   6   2.0000      -0.792469       -21.5642 
   7   2.0000      -0.781958       -21.2782 
   8   2.0000      -0.613317       -16.6892 
   9   2.0000      -0.610322       -16.6077 
  10   2.0000      -0.548148       -14.9159 
  11   2.0000      -0.531142       -14.4531 
  12   2.0000      -0.526962       -14.3394 
  13   2.0000      -0.521259       -14.1842 
  14   2.0000      -0.437964       -11.9176 
  15   2.0000      -0.415638       -11.3101 
  16   2.0000      -0.374206       -10.1827 
  17   2.0000      -0.365704        -9.9513 
  18   0.0000       0.097016         2.6399 
  19   0.0000       0.108814         2.9610 
  20   0.0000       0.150450         4.0940 
  21   0.0000       0.169157         4.6030 
  22   0.0000       0.189079         5.1451 
  23   0.0000       0.190926         5.1954 
  24   0.0000       0.205822         5.6007 
  25   0.0000       0.228525         6.2185 
  26   0.0000       0.231295         6.2939 
  27   0.0000       0.259506         7.0615 
  28   0.0000       0.302029         8.2186 
  29   0.0000       0.303374         8.2552 
  30   0.0000       0.318948         8.6790 
  31   0.0000       0.390168        10.6170 
  32   0.0000       0.409859        11.1528 
  33   0.0000       0.428472        11.6593 
  34   0.0000       0.448250        12.1975 
  35   0.0000       0.460413        12.5285 
  36   0.0000       0.467864        12.7312 
  37   0.0000       0.493411        13.4264 
  38   0.0000       0.528809        14.3896 
  39   0.0000       0.532930        14.5018 
  40   0.0000       0.540626        14.7112 
  41   0.0000       0.554452        15.0874 
  42   0.0000       0.564714        15.3666 
  43   0.0000       0.572596        15.5811 
  44   0.0000       0.597894        16.2695 
  45   0.0000       0.619345        16.8532 
  46   0.0000       0.649326        17.6691 
  47   0.0000       0.670348        18.2411 
  48   0.0000       0.700247        19.0547 
  49   0.0000       0.712443        19.3866 
  50   0.0000       0.759347        20.6629 
  51   0.0000       0.765327        20.8256 
  52   0.0000       0.808418        21.9982 
  53   0.0000       0.816916        22.2294 
  54   0.0000       0.866793        23.5866 
  55   0.0000       0.898490        24.4492 
  56   0.0000       0.988653        26.9026 
  57   0.0000       1.035363        28.1737 
  58   0.0000       1.059555        28.8320 
  59   0.0000       1.090302        29.6686 
  60   0.0000       1.118228        30.4285 
  61   0.0000       1.130045        30.7501 
  62   0.0000       1.356370        36.9087 
  63   0.0000       1.415095        38.5067 
  64   0.0000       1.454945        39.5911 
  65   0.0000       1.492855        40.6226 
  66   0.0000       1.549644        42.1680 
  67   0.0000       1.562994        42.5312 
  68   0.0000       1.591085        43.2956 
  69   0.0000       1.610837        43.8331 
  70   0.0000       1.622833        44.1595 
  71   0.0000       1.633182        44.4411 
  72   0.0000       1.641426        44.6655 
  73   0.0000       1.667858        45.3847 
  74   0.0000       1.684545        45.8388 
  75   0.0000       1.702051        46.3152 
  76   0.0000       1.723815        46.9074 
  77   0.0000       1.724701        46.9315 
  78   0.0000       1.768499        48.1233 
  79   0.0000       1.815062        49.3904 
  80   0.0000       1.942358        52.8542 
  81   0.0000       1.949755        53.0555 
  82   0.0000       1.968559        53.5672 
  83   0.0000       2.025574        55.1187 
  84   0.0000       2.034066        55.3497 
  85   0.0000       2.062131        56.1134 
  86   0.0000       2.086115        56.7661 
  87   0.0000       2.095867        57.0314 
  88   0.0000       2.162861        58.8544 
  89   0.0000       2.176684        59.2306 
  90   0.0000       2.231717        60.7281 
  91   0.0000       2.260042        61.4989 
  92   0.0000       2.309989        62.8580 
  93   0.0000       2.350756        63.9673 
  94   0.0000       2.370021        64.4916 
  95   0.0000       2.388999        65.0080 
  96   0.0000       2.400254        65.3142 
  97   0.0000       2.408039        65.5261 
  98   0.0000       2.443138        66.4812 
  99   0.0000       2.465641        67.0935 
 100   0.0000       2.466872        67.1270 
 101   0.0000       2.525982        68.7355 
 102   0.0000       2.555993        69.5521 
 103   0.0000       2.568464        69.8915 
 104   0.0000       2.591235        70.5111 
 105   0.0000       2.618815        71.2616 
 106   0.0000       2.647875        72.0523 
 107   0.0000       2.678645        72.8896 
 108   0.0000       2.823478        76.8307 
 109   0.0000       2.845119        77.4196 
 110   0.0000       2.856939        77.7413 
 111   0.0000       2.869661        78.0875 
 112   0.0000       2.906804        79.0982 
 113   0.0000       2.935330        79.8744 
 114   0.0000       2.971351        80.8546 
 115   0.0000       3.014537        82.0297 
 116   0.0000       3.085699        83.9661 
 117   0.0000       3.110173        84.6321 
 118   0.0000       3.166685        86.1699 
 119   0.0000       3.178924        86.5029 
 120   0.0000       3.254339        88.5551 
 121   0.0000       3.273323        89.0717 
 122   0.0000       3.367388        91.6313 
 123   0.0000       3.378138        91.9238 
 124   0.0000       3.448401        93.8358 
 125   0.0000       3.469910        94.4211 
 126   0.0000       3.512384        95.5768 
 127   0.0000       3.549452        96.5855 
 128   0.0000       3.572993        97.2261 
 129   0.0000       3.646018        99.2132 
 130   0.0000       3.649717        99.3138 
 131   0.0000       3.668001        99.8114 
 132   0.0000       3.677889       100.0804 
 133   0.0000       3.686529       100.3156 
 134   0.0000       3.908510       106.3560 
 135   0.0000       3.959267       107.7371 
 136   0.0000       4.152525       112.9959 
 137   0.0000       4.197223       114.2122 
 138   0.0000       4.257780       115.8601 
 139   0.0000       4.303159       117.0949 
 140   0.0000       4.394464       119.5794 
 141   0.0000       4.406883       119.9174 
 142   0.0000       4.545967       123.7021 
 143   0.0000       4.603643       125.2715 
 144   0.0000       5.335453       145.1851 
 145   0.0000       5.346175       145.4768 
 146   0.0000       5.399035       146.9152 
 147   0.0000       5.401982       146.9954 
 148   0.0000       5.559365       151.2780 
 149   0.0000       5.575528       151.7178 
 150   0.0000       5.814661       158.2250 
 151   0.0000       5.818902       158.3404 
 152   0.0000       5.863892       159.5646 
 153   0.0000       5.892969       160.3558 
 154   0.0000       5.958261       162.1325 
 155   0.0000       5.967934       162.3957 
 156   0.0000       6.212882       169.0611 
 157   0.0000       6.361902       173.1162 
 158   0.0000       6.508240       177.0982 
 159   0.0000       6.524641       177.5445 
 160   0.0000       6.754929       183.8110 
 161   0.0000       6.779865       184.4895 
 162   0.0000       6.822632       185.6532 
 163   0.0000       6.838477       186.0844 
 164   0.0000       7.035840       191.4549 
 165   0.0000       7.042782       191.6438 
 166   0.0000       7.171131       195.1364 
 167   0.0000       7.209940       196.1925 
 168   0.0000      22.334775       607.7601 
 169   0.0000      22.352788       608.2503 
 170   0.0000      43.666901      1188.2368 
 171   0.0000      43.717500      1189.6137 

                    ********************************
                    * MULLIKEN POPULATION ANALYSIS *
                    ********************************

-----------------------
MULLIKEN ATOMIC CHARGES
-----------------------
   0 C :   -0.131843
   1 O :   -0.475340
   2 H :    0.325914
   3 H :    0.095610
   4 H :    0.051785
   5 H :    0.118741
   6 C :   -0.188941
   7 O :   -0.462255
   8 H :    0.312990
   9 H :    0.110468
  10 H :    0.121768
  11 H :    0.121103
Sum of atomic charges:    0.0000000

--------------------------------
MULLIKEN REDUCED ORBITAL CHARGES
--------------------------------
  0 C s       :     3.219518  s :     3.219518
      pz      :     0.704983  p :     2.796593
      px      :     1.056315
      py      :     1.035295
      dz2     :     0.023684  d :     0.107075
      dxz     :     0.029613
      dyz     :     0.032577
      dx2y2   :     0.013637
      dxy     :     0.007565
      f0      :     0.002525  f :     0.008657
      f+1     :     0.002570
      f-1     :     0.001851
      f+2     :     0.000662
      f-2     :     0.000494
      f+3     :     0.000476
      f-3     :     0.000078
  1 O s       :     3.794850  s :     3.794850
      pz      :     1.425447  p :     4.648098
      px      :     1.744339
      py      :     1.478312
      dz2     :     0.013150  d :     0.030681
      dxz     :     0.004802
      dyz     :     0.004350
      dx2y2   :     0.002574
      dxy     :     0.005805
      f0      :     0.000317  f :     0.001710
      f+1     :     0.000265
      f-1     :     0.000380
      f+2     :     0.000085
      f-2     :     0.000127
      f+3     :     0.000452
      f-3     :     0.000084
  2 H s       :     0.632976  s :     0.632976
      pz      :     0.009147  p :     0.041110
      px      :     0.015642
      py      :     0.016321
  3 H s       :     0.887224  s :     0.887224
      pz      :     0.005686  p :     0.017166
      px      :     0.003595
      py      :     0.007886
  4 H s       :     0.928695  s :     0.928695
      pz      :     0.004285  p :     0.019520
      px      :     0.005432
      py      :     0.009803
  5 H s       :     0.860810  s :     0.860810
      pz      :     0.003183  p :     0.020449
      px      :     0.013170
      py      :     0.004096
  6 C s       :     3.232871  s :     3.232871
      pz      :     0.749041  p :     2.847072
      px      :     1.040162
      py      :     1.057870
      dz2     :     0.026029  d :     0.101064
      dxz     :     0.032468
      dyz     :     0.022904
      dx2y2   :     0.015185
      dxy     :     0.004478
      f0      :     0.002484  f :     0.007934
      f+1     :     0.001456
      f-1     :     0.001610
      f+2     :     0.000789
      f-2     :     0.001002
      f+3     :     0.000167
      f-3     :     0.000427
  7 O s       :     3.791637  s :     3.791637
      pz      :     1.408444  p :     4.639049
      px      :     1.611382
      py      :     1.619223
      dz2     :     0.008396  d :     0.029912
      dxz     :     0.007887
      dyz     :     0.003683
      dx2y2   :     0.002631
      dxy     :     0.007315
      f0      :     0.000322  f :     0.001657
      f+1     :     0.000185
      f-1     :     0.000347
      f+2     :     0.000117
      f-2     :     0.000296
      f+3     :     0.000162
      f-3     :     0.000228
  8 H s       :     0.637668  s :     0.637668
      pz      :     0.014001  p :     0.049343
      px      :     0.017282
      py      :     0.018060
  9 H s       :     0.870578  s :     0.870578
      pz      :     0.003490  p :     0.018955
      px      :     0.011314
      py      :     0.004151
 10 H s       :     0.859369  s :     0.859369
      pz      :     0.006260  p :     0.018862
      px      :     0.007817
      py      :     0.004785
 11 H s       :     0.858260  s :     0.858260
      pz      :     0.003192  p :     0.020637
      px      :     0.004610
      py      :     0.012834


                     *******************************
                     * LOEWDIN POPULATION ANALYSIS *
                     *******************************

----------------------
LOEWDIN ATOMIC CHARGES
----------------------
   0 C :   -0.430980
   1 O :   -0.079272
   2 H :    0.204821
   3 H :    0.101946
   4 H :    0.092937
   5 H :    0.108715
   6 C :   -0.395810
   7 O :   -0.072491
   8 H :    0.157956
   9 H :    0.101029
  10 H :    0.111391
  11 H :    0.099758

-------------------------------
LOEWDIN REDUCED ORBITAL CHARGES
-------------------------------
  0 C s       :     2.879694  s :     2.879694
      pz      :     0.876459  p :     3.047101
      px      :     1.088782
      py      :     1.081859
      dz2     :     0.129391  d :     0.440671
      dxz     :     0.096353
      dyz     :     0.133814
      dx2y2   :     0.052028
      dxy     :     0.029085
      f0      :     0.018842  f :     0.063514
      f+1     :     0.017407
      f-1     :     0.012208
      f+2     :     0.006289
      f-2     :     0.005626
      f+3     :     0.002556
      f-3     :     0.000587
  1 O s       :     3.371012  s :     3.371012
      pz      :     1.502110  p :     4.626578
      px      :     1.671225
      py      :     1.453243
      dz2     :     0.029417  d :     0.076787
      dxz     :     0.015795
      dyz     :     0.015301
      dx2y2   :     0.004733
      dxy     :     0.011542
      f0      :     0.001150  f :     0.004895
      f+1     :     0.001111
      f-1     :     0.001365
      f+2     :     0.000266
      f-2     :     0.000291
      f+3     :     0.000689
      f-3     :     0.000022
  2 H s       :     0.663018  s :     0.663018
      pz      :     0.022739  p :     0.132161
      px      :     0.046822
      py      :     0.062600
  3 H s       :     0.847732  s :     0.847732
      pz      :     0.015860  p :     0.050322
      px      :     0.010793
      py      :     0.023669
  4 H s       :     0.851104  s :     0.851104
      pz      :     0.011670  p :     0.055959
      px      :     0.016650
      py      :     0.027639
  5 H s       :     0.832769  s :     0.832769
      pz      :     0.008971  p :     0.058516
      px      :     0.037115
      py      :     0.012430
  6 C s       :     2.874157  s :     2.874157
      pz      :     0.876343  p :     3.059893
      px      :     1.086345
      py      :     1.097205
      dz2     :     0.113870  d :     0.406066
      dxz     :     0.124319
      dyz     :     0.081779
      dx2y2   :     0.068252
      dxy     :     0.017846
      f0      :     0.015116  f :     0.055695
      f+1     :     0.010685
      f-1     :     0.011856
      f+2     :     0.004623
      f-2     :     0.009523
      f+3     :     0.001583
      f-3     :     0.002310
  7 O s       :     3.365502  s :     3.365502
      pz      :     1.454661  p :     4.632073
      px      :     1.600322
      py      :     1.577090
      dz2     :     0.021216  d :     0.070327
      dxz     :     0.018519
      dyz     :     0.014075
      dx2y2   :     0.003347
      dxy     :     0.013170
      f0      :     0.001156  f :     0.004588
      f+1     :     0.000843
      f-1     :     0.000816
      f+2     :     0.000396
      f-2     :     0.000638
      f+3     :     0.000291
      f-3     :     0.000449
  8 H s       :     0.678628  s :     0.678628
      pz      :     0.036344  p :     0.163416
      px      :     0.065502
      py      :     0.061571
  9 H s       :     0.840874  s :     0.840874
      pz      :     0.011597  p :     0.058097
      px      :     0.032984
      py      :     0.013516
 10 H s       :     0.834890  s :     0.834890
      pz      :     0.016766  p :     0.053720
      px      :     0.022780
      py      :     0.014174
 11 H s       :     0.838233  s :     0.838233
      pz      :     0.009508  p :     0.062010
      px      :     0.014149
      py      :     0.038353


                      *****************************
                      * MAYER POPULATION ANALYSIS *
                      *****************************

  NA   - Mulliken gross atomic population
  ZA   - Total nuclear charge
  QA   - Mulliken gross atomic charge
  VA   - Mayer's total valence
  BVA  - Mayer's bonded valence
  FA   - Mayer's free valence

  ATOM       NA         ZA         QA         VA         BVA        FA
  0 C      6.1318     6.0000    -0.1318     3.9282     3.9282     0.0000
  1 O      8.4753     8.0000    -0.4753     1.8725     1.8725     0.0000
  2 H      0.6741     1.0000     0.3259     0.8999     0.8999     0.0000
  3 H      0.9044     1.0000     0.0956     0.9633     0.9633     0.0000
  4 H      0.9482     1.0000     0.0518     0.9727     0.9727     0.0000
  5 H      0.8813     1.0000     0.1187     0.9591     0.9591    -0.0000
  6 C      6.1889     6.0000    -0.1889     3.9293     3.9293     0.0000
  7 O      8.4623     8.0000    -0.4623     1.9056     1.9056     0.0000
  8 H      0.6870     1.0000     0.3130     0.9175     0.9175     0.0000
  9 H      0.8895     1.0000     0.1105     0.9607     0.9607     0.0000
 10 H      0.8782     1.0000     0.1218     0.9578     0.9578     0.0000
 11 H      0.8789     1.0000     0.1211     0.9545     0.9545    -0.0000

  Mayer bond orders larger than 0.1
B(  0-C ,  1-O ) :   1.0090 B(  0-C ,  3-H ) :   0.9878 B(  0-C ,  4-H ) :   0.9467 
B(  0-C ,  5-H ) :   0.9840 B(  1-O ,  2-H ) :   0.8841 B(  6-C ,  7-O ) :   0.9925 
B(  6-C ,  9-H ) :   0.9729 B(  6-C , 10-H ) :   0.9823 B(  6-C , 11-H ) :   0.9738 
B(  7-O ,  8-H ) :   0.9016 

-------
TIMINGS
-------

Total SCF time: 0 days 0 hours 0 min 21 sec 

Total time                  ....      21.529 sec
Sum of individual times     ....      21.057 sec  ( 97.8%)

Fock matrix formation       ....      20.231 sec  ( 94.0%)
  XC integration            ....      10.024 sec  ( 49.6% of F)
    Basis function eval.    ....       0.058 sec  (  0.6% of XC)
    Density eval.           ....       0.087 sec  (  0.9% of XC)
    XC-Functional eval.     ....       0.115 sec  (  1.1% of XC)
    XC-Potential eval.      ....       0.062 sec  (  0.6% of XC)
Diagonalization             ....       0.297 sec  (  1.4%)
Density matrix formation    ....       0.005 sec  (  0.0%)
Population analysis         ....       0.026 sec  (  0.1%)
Initial guess               ....       0.097 sec  (  0.5%)
Orbital Transformation      ....       0.000 sec  (  0.0%)
Orbital Orthonormalization  ....       0.000 sec  (  0.0%)
DIIS solution               ....       0.085 sec  (  0.4%)
SOSCF solution              ....       0.038 sec  (  0.2%)
Grid generation             ....       0.279 sec  (  1.3%)


-------------------------------------------------------------------------------
                          DFT DISPERSION CORRECTION                            
                                                                               
                              DFTD3 V3.1  Rev 1                                
                              USING zero damping                               
-------------------------------------------------------------------------------
The omegaB97X-D3 functional is recognized. Fit by Chai et al.
Active option DFTDOPT                   ...         3   

molecular C6(AA) [au] = 835.586824 


            DFT-D V3
 parameters
 s6 scaling factor         :     1.0000 
 rs6 scaling factor        :     1.2810 
 s8 scaling factor         :     1.0000 
 rs8 scaling factor        :     1.0940 
 Damping factor alpha6     :    14.0000 
 Damping factor alpha8     :    16.0000 
 ad hoc parameters k1-k3   :    16.0000     1.3333    -4.0000 

 Edisp/kcal,au: -1.013632920964  -0.001615326708 
 E6   /kcal   :  -0.464520257 
 E8   /kcal   :  -0.549112664 
 % E8         :  54.172733823 

-------------------------   ----------------
Dispersion correction           -0.001615327
-------------------------   ----------------


-------------------------   --------------------
FINAL SINGLE POINT ENERGY      -231.456614410489
-------------------------   --------------------


                            ***************************************
                            *     ORCA property calculations      *
                            ***************************************

                                    ---------------------
                                    Active property flags
                                    ---------------------
   (+) Dipole Moment


------------------------------------------------------------------------------
                       ORCA ELECTRIC PROPERTIES CALCULATION
------------------------------------------------------------------------------

Dipole Moment Calculation                       ... on
Quadrupole Moment Calculation                   ... off
Polarizability Calculation                      ... off
GBWName                                         ... 7-72_DFT_AB.gbw
Electron density file                           ... 7-72_DFT_AB.scfp.tmp
The origin for moment calculation is the CENTER OF MASS  = (14.626351,  4.891062  4.281437)

-------------
DIPOLE MOMENT
-------------
                                X             Y             Z
Electronic contribution:     -0.13379      -0.66957      -0.11127
Nuclear contribution   :      0.90961       0.03577       0.21102
                        -----------------------------------------
Total Dipole Moment    :      0.77583      -0.63379       0.09975
                        -----------------------------------------
Magnitude (a.u.)       :      1.00675
Magnitude (Debye)      :      2.55896



--------------------
Rotational spectrum 
--------------------
 
Rotational constants in cm-1:     0.458868     0.057366     0.052427 
Rotational constants in MHz : 13756.526566  1719.789998  1571.718780 

 Dipole components along the rotational axes: 
x,y,z [a.u.] :     0.454347     0.067181     0.895883 
x,y,z [Debye]:     1.154858     0.170760     2.277153 

 
------------------------------------------------------------------------------
                      ORCA CHELPG CHARGES GENERATION
------------------------------------------------------------------------------

GBW file                           ... 7-72_DFT_AB.gbw

Reading the GBW file               ... done

Grid spacing                       ...     0.300000
Point Cut-Off                      ...     2.800000
Van-der-Waals Radii                ...        COSMO
Total charge                       ...            0


Number of points X direction       ...           28
Number of points Y direction       ...           39
Number of points Z direction       ...           28
Maximum number of possible points  ...        30576
Final number of points             ...        10232


CHELPG Charges            
--------------------------------
  0   C   :       0.122455
  1   O   :      -0.602608
  2   H   :       0.399238
  3   H   :      -0.004858
  4   H   :       0.010269
  5   H   :       0.060109
  6   C   :       0.150709
  7   O   :      -0.618285
  8   H   :       0.402323
  9   H   :       0.000326
 10   H   :       0.046232
 11   H   :       0.034091
--------------------------------
Total charge:     0.000000
--------------------------------

CHELPG charges calculated...

Timings for individual parts in CHELPG calculation:
Grid generation                 ...        0.001 sec (=   0.000 min)
Potential calculation           ...        2.131 sec (=   0.036 min)
Fit to the potential            ...        0.003 sec (=   0.000 min)
------------------------------------------------------------------------------


Timings for individual modules:

Sum of individual times         ...       30.086 sec (=   0.501 min)
GTO integral calculation        ...        4.516 sec (=   0.075 min)  15.0 %
SCF iterations                  ...       23.403 sec (=   0.390 min)  77.8 %
CHELPG charge generation        ...        2.167 sec (=   0.036 min)   7.2 %


                 $$$$$$$$$$$$$$$$  JOB NUMBER  2 $$$$$$$$$$$$$$


                       ****************************
                       * Single Point Calculation *
                       ****************************

---------------------------------
CARTESIAN COORDINATES (ANGSTROEM)
---------------------------------
  C      7.285926    0.821066    2.316241
  O      7.532912    0.471736    1.007627
  H      8.045949   -0.406475    0.930814
  H      7.486048   -0.087081    3.004934
  H      7.841240    1.695538    2.765298
  H      6.188296    0.937388    2.320612
  C      8.231847    4.812904    2.218231
  O      7.857317    4.358539    3.507066
  H      8.511085    3.740002    3.820354
  H      9.259510    4.563071    1.868465
  H      7.425748    4.418321    1.520043
  H      8.132544    5.888729    2.119775

----------------------------
CARTESIAN COORDINATES (A.U.)
----------------------------
  NO LB      ZA    FRAG     MASS         X           Y           Z
   0 C     6.0000    0    12.011   13.768405    1.551590    4.377061
   1 O     8.0000    0    15.999   14.235141    0.891452    1.904139
   2 H     1.0000    0     1.008   15.204640   -0.768126    1.758984
   3 H     1.0000    0     1.008   14.146581   -0.164559    5.678502
   4 H     1.0000    0     1.008   14.817796    3.204102    5.225656
   5 H     1.0000    0     1.008   11.694185    1.771407    4.385321
   6 C     0.0000    0     0.000   15.555936    9.095070    4.191849
   7 O     0.0000    0     0.000   14.848177    8.236445    6.627394
   8 H     0.0000    0     0.000   16.083620    7.067580    7.219423
   9 H     0.0000    0     0.000   17.497938    8.622955    3.530887
  10 H     0.0000    0     0.000   14.032630    8.349417    2.872465
  11 H     0.0000    0     0.000   15.368281   11.128085    4.005794

--------------------------------
INTERNAL COORDINATES (ANGSTROEM)
--------------------------------
 C      0   0   0     0.000000000000     0.00000000     0.00000000
 O      1   0   0     1.376773087365     0.00000000     0.00000000
 H      2   1   0     1.019981255151   112.35086573     0.00000000
 H      1   2   3     1.157185307866   109.60487552   346.02568269
 H      1   2   3     1.129038133381   119.09969729   109.10444116
 H      1   2   3     1.103785092409   102.05776804   235.53981624
 C      5   1   2     3.189016605302   138.51593643    58.62693464
 O      7   5   1     1.416974216897    59.87667483   128.84569968
 H      8   7   5     0.952969038918   109.01512812    57.17083157
 H      7   5   1     1.113931786158    86.99761566   252.91010280
 H      7   5   1     1.137083033483    71.29378484     7.93986382
 H      7   5   1     1.084875154278   166.83904921    73.62806563

---------------------------
INTERNAL COORDINATES (A.U.)
---------------------------
 C      0   0   0     0.000000000000     0.00000000     0.00000000
 O      1   0   0     2.601724083673     0.00000000     0.00000000
 H      2   1   0     1.927485233968   112.35086573     0.00000000
 H      1   2   3     2.186763318065   109.60487552   346.02568269
 H      1   2   3     2.133572866844   119.09969729   109.10444116
 H      1   2   3     2.085851535359   102.05776804   235.53981624
 C      5   1   2     6.026368020549   138.51593643    58.62693464
 O      7   5   1     2.677693208762    59.87667483   128.84569968
 H      8   7   5     1.800850497662   109.01512812    57.17083157
 H      7   5   1     2.105026007709    86.99761566   252.91010280
 H      7   5   1     2.148775524811    71.29378484     7.93986382
 H      7   5   1     2.050116931081   166.83904921    73.62806563

---------------------
BASIS SET INFORMATION
---------------------
There are 3 groups of distinct atoms

 Group   1 Type C   : 11s6p2d1f contracted to 5s3p2d1f pattern {62111/411/11/1}
 Group   2 Type O   : 11s6p2d1f contracted to 5s3p2d1f pattern {62111/411/11/1}
 Group   3 Type H   : 5s1p contracted to 3s1p pattern {311/1}

Atom   0C    basis set group =>   1
Atom   1O    basis set group =>   2
Atom   2H    basis set group =>   3
Atom   3H    basis set group =>   3
Atom   4H    basis set group =>   3
Atom   5H    basis set group =>   3
Atom   6C    basis set group =>   1
Atom   7O    basis set group =>   2
Atom   8H    basis set group =>   3
Atom   9H    basis set group =>   3
Atom  10H    basis set group =>   3
Atom  11H    basis set group =>   3


           ************************************************************
           *        Program running with 8 parallel MPI-processes     *
           *              working on a common directory               *
           ************************************************************
------------------------------------------------------------------------------
                           ORCA GTO INTEGRAL CALCULATION
------------------------------------------------------------------------------

                         BASIS SET STATISTICS AND STARTUP INFO

 # of primitive gaussian shells          ...  128
 # of primitive gaussian functions       ...  248
 # of contracted shells                  ...   76
 # of contracted basis functions         ...  172
 Highest angular momentum                ...    3
 Maximum contraction depth               ...    6
 Integral package used                   ... LIBINT
 Integral threshhold            Thresh   ...  2.500e-11
 Primitive cut-off              TCut     ...  2.500e-12


------------------------------ INTEGRAL EVALUATION ----------------------------


 * One electron integrals 
 Pre-screening matrix                    ... done
 Shell pair data                         ... done (   0.001 sec)



           ************************************************************
           *        Program running with 8 parallel MPI-processes     *
           *              working on a common directory               *
           ************************************************************
-------------------------------------------------------------------------------
                                 ORCA SCF
-------------------------------------------------------------------------------

------------
SCF SETTINGS
------------
Hamiltonian:
 Density Functional     Method          .... DFT(GTOs)
 Exchange Functional    Exchange        .... WB97X-D3
 Correlation Functional Correlation     .... WB97X-D3
 Gradients option       PostSCFGGA      .... off
 Hybrid DFT is turned on
   Fraction HF Exchange ScalHFX         ....  0.195728
   Scaling of DF-GGA-X  ScalDFX         ....  0.000000
   Scaling of DF-GGA-C  ScalDFC         ....  1.000000
   Scaling of DF-LDA-C  ScalLDAC        ....  1.000000
   Perturbative correction              ....  0.000000
   Density functional embedding theory  .... OFF
 Long-range corrected/Screened/Range-Separated Hybrid DFT is turned on
   Amount of maximum screened exact exchange              ....  0.804272
   Range separation parameter mu (erf(mu*r12)/r12)        ....  0.250000


General Settings:
 Integral files         IntName         .... 7-72_DFT_A
 Hartree-Fock type      HFTyp           .... RHF
 Total Charge           Charge          ....    0
 Multiplicity           Mult            ....    1
 Number of Electrons    NEL             ....   18
 Basis Dimension        Dim             ....  172
 Nuclear Repulsion      ENuc            ....     40.2998295268 Eh

Convergence Acceleration:
 DIIS                   CNVDIIS         .... on
   Start iteration      DIISMaxIt       ....    12
   Startup error        DIISStart       ....  0.200000
   # of expansion vecs  DIISMaxEq       ....     5
   Bias factor          DIISBfac        ....   1.050
   Max. coefficient     DIISMaxC        ....  10.000
 Newton-Raphson         CNVNR           .... off
 SOSCF                  CNVSOSCF        .... on
   Start iteration      SOSCFMaxIt      ....   150
   Startup grad/error   SOSCFStart      ....  0.003300
 Level Shifting         CNVShift        .... on
   Level shift para.    LevelShift      ....    0.2500
   Turn off err/grad.   ShiftErr        ....    0.0010
 Zerner damping         CNVZerner       .... off
 Static damping         CNVDamp         .... on
   Fraction old density DampFac         ....    0.7000
   Max. Damping (<1)    DampMax         ....    0.9800
   Min. Damping (>=0)   DampMin         ....    0.0000
   Turn off err/grad.   DampErr         ....    0.1000
 Fernandez-Rico         CNVRico         .... off

SCF Procedure:
 Maximum # iterations   MaxIter         ....  1000
 SCF integral mode      SCFMode         .... Direct
   Integral package                     .... LIBINT
 Reset frequency        DirectResetFreq ....    20
 Integral Threshold     Thresh          ....  2.500e-11 Eh
 Primitive CutOff       TCut            ....  2.500e-12 Eh

Convergence Tolerance:
 Convergence Check Mode ConvCheckMode   .... Total+1el-Energy
 Convergence forced     ConvForced      .... 0
 Energy Change          TolE            ....  1.000e-08 Eh
 1-El. energy change                    ....  1.000e-05 Eh
 Orbital Gradient       TolG            ....  1.000e-05
 Orbital Rotation angle TolX            ....  1.000e-05
 DIIS Error             TolErr          ....  5.000e-07


Diagonalization of the overlap matrix:
Smallest eigenvalue                        ... 1.440e-03
Time for diagonalization                   ...    0.004 sec
Threshold for overlap eigenvalues          ... 1.000e-08
Number of eigenvalues below threshold      ... 0
Time for construction of square roots      ...    0.005 sec
Total time needed                          ...    0.010 sec

-------------------
DFT GRID GENERATION
-------------------

General Integration Accuracy     IntAcc      ...  4.340
Radial Grid Type                 RadialGrid  ... Gauss-Chebyshev
Angular Grid (max. acc.)         AngularGrid ... Lebedev-110
Angular grid pruning method      GridPruning ... 3 (G Style)
Weight generation scheme         WeightScheme... Becke
Basis function cutoff            BFCut       ...    1.0000e-11
Integration weight cutoff        WCut        ...    1.0000e-14
Grids for H and He will be reduced by one unit

# of grid points (after initial pruning)     ...  13096 (   0.0 sec)
# of grid points (after weights+screening)   ...  12498 (   0.0 sec)
nearest neighbour list constructed           ...    0.0 sec
Grid point re-assignment to atoms done       ...    0.0 sec
Grid point division into batches done        ...    0.0 sec
Reduced shell lists constructed in    0.0 sec

Total number of grid points                  ...    12498
Total number of batches                      ...      202
Average number of points per batch           ...       61
Average number of grid points per atom       ...     1042
Average number of shells per batch           ...    51.41 (67.64%)
Average number of basis functions per batch  ...   112.07 (65.16%)
Average number of large shells per batch     ...    41.89 (81.48%)
Average number of large basis fcns per batch ...    92.26 (82.32%)
Maximum spatial batch extension              ...  18.30,  7.69, 15.16 au
Average spatial batch extension              ...   0.35,  0.26,  0.31 au

Time for grid setup =    0.039 sec

------------------------------
INITIAL GUESS: MODEL POTENTIAL
------------------------------
Loading Hartree-Fock densities                     ... done
Calculating cut-offs                               ... done
Setting up the integral package                    ... done
Initializing the effective Hamiltonian             ... done
Starting the Coulomb interaction                   ... done (   0.0 sec)
Reading the grid                                   ... done
Mapping shells                                     ... done
Starting the XC term evaluation                    ... done (   0.0 sec)
  promolecular density results
     # of electrons  =     18.000435155
     EX              =    -14.412153991
     EC              =     -0.573649873
     EX+EC           =    -14.985803864
Transforming the Hamiltonian                       ... done (   0.0 sec)
Diagonalizing the Hamiltonian                      ... done (   0.0 sec)
Back transforming the eigenvectors                 ... done (   0.0 sec)
Now organizing SCF variables                       ... done
                      ------------------
                      INITIAL GUESS DONE (   0.1 sec)
                      ------------------
--------------
SCF ITERATIONS
--------------
ITER       Energy         Delta-E        Max-DP      RMS-DP      [F,P]     Damp
               ***  Starting incremental Fock matrix formation  ***
  0   -115.6362191402   0.000000000000 0.03752239  0.00077261  0.2548428 0.7000
  1   -115.6740864330  -0.037867292794 0.02239026  0.00054863  0.1260720 0.7000
                               ***Turning on DIIS***
  2   -115.6910286488  -0.016942215723 0.03234814  0.00096745  0.0479062 0.0000
  3   -115.7182933823  -0.027264733535 0.01777113  0.00036524  0.0621268 0.0000
  4   -115.7231101657  -0.004816783444 0.00391179  0.00007345  0.0061685 0.0000
                      *** Initiating the SOSCF procedure ***
                           *** Shutting down DIIS ***
                      *** Re-Reading the Fockian *** 
                      *** Removing any level shift *** 
ITER      Energy       Delta-E        Grad      Rot      Max-DP    RMS-DP
  5   -115.72320474  -0.0000945785  0.000420  0.000420  0.000749  0.000026
               *** Restarting incremental Fock matrix formation ***
  6   -115.72321373  -0.0000089893  0.000124  0.000174  0.000510  0.000017
  7   -115.72321461  -0.0000008738  0.000043  0.000106  0.000278  0.000009
  8   -115.72321468  -0.0000000678  0.000035  0.000023  0.000052  0.000001
  9   -115.72321470  -0.0000000249  0.000009  0.000010  0.000023  0.000001
                  ***Gradient check signals convergence***
              ***Rediagonalizing the Fockian in SOSCF/NRSCF***

               *****************************************************
               *                     SUCCESS                       *
               *           SCF CONVERGED AFTER  10 CYCLES          *
               *****************************************************

Setting up the final grid:

General Integration Accuracy     IntAcc      ...  4.670
Radial Grid Type                 RadialGrid  ... Gauss-Chebyshev
Angular Grid (max. acc.)         AngularGrid ... Lebedev-302
Angular grid pruning method      GridPruning ... 3 (G Style)
Weight generation scheme         WeightScheme... Becke
Basis function cutoff            BFCut       ...    1.0000e-11
Integration weight cutoff        WCut        ...    1.0000e-14
Grids for H and He will be reduced by one unit

# of grid points (after initial pruning)     ...  52000 (   0.0 sec)
# of grid points (after weights+screening)   ...  49176 (   0.0 sec)
nearest neighbour list constructed           ...    0.0 sec
Grid point re-assignment to atoms done       ...    0.0 sec
Grid point division into batches done        ...    0.2 sec
Reduced shell lists constructed in    0.2 sec

Total number of grid points                  ...    49176
Total number of batches                      ...      774
Average number of points per batch           ...       63
Average number of grid points per atom       ...     4098
Average number of shells per batch           ...    49.83 (65.56%)
Average number of basis functions per batch  ...   108.40 (63.02%)
Average number of large shells per batch     ...    40.35 (80.97%)
Average number of large basis fcns per batch ...    88.78 (81.90%)
Maximum spatial batch extension              ...  16.22, 11.18, 13.45 au
Average spatial batch extension              ...   0.21,  0.19,  0.21 au

Final grid set up in    0.3 sec
Final integration                            ... done (   0.1 sec)
Change in XC energy                          ...    -0.000039078
Integrated number of electrons               ...    18.000010643
Previous integrated no of electrons          ...    18.002894487

----------------
TOTAL SCF ENERGY
----------------

Total Energy       :         -115.72325378 Eh           -3148.98983 eV

Components:
Nuclear Repulsion  :           40.29982953 Eh            1096.61411 eV
Electronic Energy  :         -156.02308331 Eh           -4245.60394 eV
One Electron Energy:         -237.06435756 Eh           -6450.84912 eV
Two Electron Energy:           81.04127425 Eh            2205.24518 eV

Virial components:
Potential Energy   :         -230.81082312 Eh           -6280.68180 eV
Kinetic Energy     :          115.08756934 Eh            3131.69197 eV
Virial Ratio       :            2.00552348


DFT components:
N(Alpha)           :        9.000005321685 electrons
N(Beta)            :        9.000005321685 electrons
N(Total)           :       18.000010643369 electrons
E(XC)              :      -10.618121389300 Eh       
DFET-embed. en.    :        0.000000000000 Eh       

---------------
SCF CONVERGENCE
---------------

  Last Energy change         ...   -2.0191e-09  Tolerance :   1.0000e-08
  Last MAX-Density change    ...    5.5424e-06  Tolerance :   1.0000e-07
  Last RMS-Density change    ...    1.6208e-07  Tolerance :   5.0000e-09
  Last Orbital Gradient      ...    2.4972e-06  Tolerance :   1.0000e-05
  Last Orbital Rotation      ...    5.4824e-06  Tolerance :   1.0000e-05

             **** THE GBW FILE WAS UPDATED (7-72_DFT_A.gbw) ****
             **** DENSITY FILE WAS UPDATED (7-72_DFT_A.scfp.tmp) ****
             **** ENERGY FILE WAS UPDATED (7-72_DFT_A.en.tmp) ****
----------------
ORBITAL ENERGIES
----------------

  NO   OCC          E(Eh)            E(eV) 
   0   2.0000     -19.233982      -523.3833 
   1   2.0000     -10.320479      -280.8345 
   2   2.0000      -1.136975       -30.9387 
   3   2.0000      -0.781564       -21.2674 
   4   2.0000      -0.609955       -16.5977 
   5   2.0000      -0.545663       -14.8483 
   6   2.0000      -0.524212       -14.2645 
   7   2.0000      -0.415067       -11.2945 
   8   2.0000      -0.370240       -10.0747 
   9   0.0000       0.088110         2.3976 
  10   0.0000       0.104295         2.8380 
  11   0.0000       0.149830         4.0771 
  12   0.0000       0.175931         4.7873 
  13   0.0000       0.186602         5.0777 
  14   0.0000       0.200471         5.4551 
  15   0.0000       0.205674         5.5967 
  16   0.0000       0.240998         6.5579 
  17   0.0000       0.253072         6.8864 
  18   0.0000       0.282014         7.6740 
  19   0.0000       0.306318         8.3353 
  20   0.0000       0.322014         8.7625 
  21   0.0000       0.338221         9.2034 
  22   0.0000       0.354547         9.6477 
  23   0.0000       0.415091        11.2952 
  24   0.0000       0.428367        11.6565 
  25   0.0000       0.455868        12.4048 
  26   0.0000       0.467343        12.7171 
  27   0.0000       0.479610        13.0509 
  28   0.0000       0.513343        13.9688 
  29   0.0000       0.537016        14.6129 
  30   0.0000       0.544761        14.8237 
  31   0.0000       0.568576        15.4717 
  32   0.0000       0.573738        15.6122 
  33   0.0000       0.612093        16.6559 
  34   0.0000       0.638766        17.3817 
  35   0.0000       0.671348        18.2683 
  36   0.0000       0.684811        18.6346 
  37   0.0000       0.711270        19.3546 
  38   0.0000       0.770154        20.9569 
  39   0.0000       0.798741        21.7348 
  40   0.0000       0.812069        22.0975 
  41   0.0000       0.839298        22.8385 
  42   0.0000       0.889317        24.1995 
  43   0.0000       0.942954        25.6591 
  44   0.0000       0.995728        27.0951 
  45   0.0000       1.053809        28.6756 
  46   0.0000       1.094530        29.7837 
  47   0.0000       1.125931        30.6381 
  48   0.0000       1.150784        31.3144 
  49   0.0000       1.170004        31.8374 
  50   0.0000       1.178225        32.0611 
  51   0.0000       1.216292        33.0970 
  52   0.0000       1.243108        33.8267 
  53   0.0000       1.357334        36.9349 
  54   0.0000       1.360677        37.0259 
  55   0.0000       1.400505        38.1097 
  56   0.0000       1.466857        39.9152 
  57   0.0000       1.496505        40.7220 
  58   0.0000       1.523421        41.4544 
  59   0.0000       1.572354        42.7859 
  60   0.0000       1.596440        43.4413 
  61   0.0000       1.623259        44.1711 
  62   0.0000       1.668403        45.3996 
  63   0.0000       1.684239        45.8305 
  64   0.0000       1.720585        46.8195 
  65   0.0000       1.773012        48.2461 
  66   0.0000       1.836993        49.9871 
  67   0.0000       1.938745        52.7559 
  68   0.0000       1.943554        52.8868 
  69   0.0000       1.954493        53.1845 
  70   0.0000       1.958942        53.3055 
  71   0.0000       2.062695        56.1288 
  72   0.0000       2.081606        56.6434 
  73   0.0000       2.137843        58.1737 
  74   0.0000       2.177635        59.2565 
  75   0.0000       2.195490        59.7423 
  76   0.0000       2.206497        60.0418 
  77   0.0000       2.219705        60.4012 
  78   0.0000       2.240526        60.9678 
  79   0.0000       2.329867        63.3989 
  80   0.0000       2.354712        64.0750 
  81   0.0000       2.371624        64.5352 
  82   0.0000       2.402755        65.3823 
  83   0.0000       2.440646        66.4134 
  84   0.0000       2.468759        67.1783 
  85   0.0000       2.479045        67.4582 
  86   0.0000       2.557226        69.5856 
  87   0.0000       2.575970        70.0957 
  88   0.0000       2.601302        70.7850 
  89   0.0000       2.630457        71.5784 
  90   0.0000       2.667748        72.5931 
  91   0.0000       2.690901        73.2231 
  92   0.0000       2.816588        76.6432 
  93   0.0000       2.829318        76.9897 
  94   0.0000       2.859343        77.8067 
  95   0.0000       2.899587        78.9018 
  96   0.0000       2.925639        79.6107 
  97   0.0000       3.009011        81.8793 
  98   0.0000       3.067545        83.4721 
  99   0.0000       3.095883        84.2432 
 100   0.0000       3.112770        84.7028 
 101   0.0000       3.143340        85.5346 
 102   0.0000       3.176542        86.4381 
 103   0.0000       3.251344        88.4736 
 104   0.0000       3.272677        89.0541 
 105   0.0000       3.327976        90.5588 
 106   0.0000       3.375425        91.8500 
 107   0.0000       3.378310        91.9285 
 108   0.0000       3.455752        94.0358 
 109   0.0000       3.489038        94.9415 
 110   0.0000       3.513178        95.5984 
 111   0.0000       3.565366        97.0185 
 112   0.0000       3.641185        99.0817 
 113   0.0000       3.647628        99.2570 
 114   0.0000       3.663646        99.6929 
 115   0.0000       3.678585       100.0994 
 116   0.0000       3.706344       100.8547 
 117   0.0000       3.908223       106.3481 
 118   0.0000       4.071449       110.7898 
 119   0.0000       4.130005       112.3831 
 120   0.0000       4.157300       113.1259 
 121   0.0000       4.240607       115.3928 
 122   0.0000       4.258158       115.8704 
 123   0.0000       4.278589       116.4263 
 124   0.0000       4.385729       119.3418 
 125   0.0000       4.415106       120.1411 
 126   0.0000       4.531517       123.3088 
 127   0.0000       4.546324       123.7118 
 128   0.0000       4.567403       124.2854 
 129   0.0000       4.591519       124.9416 
 130   0.0000       4.619170       125.6940 
 131   0.0000       4.981665       135.5580 
 132   0.0000       5.038271       137.0983 
 133   0.0000       5.120459       139.3348 
 134   0.0000       5.336494       145.2134 
 135   0.0000       5.391901       146.7211 
 136   0.0000       5.400419       146.9529 
 137   0.0000       5.448248       148.2544 
 138   0.0000       5.560427       151.3069 
 139   0.0000       5.693939       154.9400 
 140   0.0000       5.836158       158.8099 
 141   0.0000       5.864865       159.5911 
 142   0.0000       5.893771       160.3777 
 143   0.0000       5.959428       162.1643 
 144   0.0000       6.009611       163.5298 
 145   0.0000       6.213973       169.0908 
 146   0.0000       6.509526       177.1332 
 147   0.0000       6.604802       179.7258 
 148   0.0000       6.686357       181.9450 
 149   0.0000       6.756167       183.8447 
 150   0.0000       6.838402       186.0824 
 151   0.0000       6.869146       186.9190 
 152   0.0000       7.037463       191.4991 
 153   0.0000       7.129009       193.9902 
 154   0.0000       7.172569       195.1755 
 155   0.0000       7.241928       197.0629 
 156   0.0000       7.400018       201.3647 
 157   0.0000       8.140747       221.5210 
 158   0.0000       8.919297       242.7064 
 159   0.0000       9.339860       254.1505 
 160   0.0000       9.553228       259.9566 
 161   0.0000       9.569548       260.4006 
 162   0.0000       9.813027       267.0260 
 163   0.0000       9.876166       268.7441 
 164   0.0000       9.932200       270.2689 
 165   0.0000      10.070957       274.0447 
[...]
  82   0.0000       2.397633        65.2429 
  83   0.0000       2.408324        65.5338 
  84   0.0000       2.447541        66.6010 
  85   0.0000       2.520369        68.5827 
  86   0.0000       2.563519        69.7569 
  87   0.0000       2.592824        70.5543 
  88   0.0000       2.618453        71.2517 
  89   0.0000       2.630198        71.5713 
  90   0.0000       2.676297        72.8257 
  91   0.0000       2.734850        74.4190 
  92   0.0000       2.811253        76.4981 
  93   0.0000       2.846086        77.4459 
  94   0.0000       2.862759        77.8996 
  95   0.0000       2.887028        78.5600 
  96   0.0000       2.935416        79.8767 
  97   0.0000       2.952118        80.3312 
  98   0.0000       3.047479        82.9261 
  99   0.0000       3.088854        84.0520 
 100   0.0000       3.107099        84.5485 
 101   0.0000       3.145510        85.5937 
 102   0.0000       3.166045        86.1525 
 103   0.0000       3.247599        88.3717 
 104   0.0000       3.255933        88.5984 
 105   0.0000       3.355977        91.3208 
 106   0.0000       3.366727        91.6133 
 107   0.0000       3.421684        93.1088 
 108   0.0000       3.453355        93.9706 
 109   0.0000       3.502460        95.3068 
 110   0.0000       3.551152        96.6318 
 111   0.0000       3.554536        96.7238 
 112   0.0000       3.574415        97.2648 
 113   0.0000       3.645817        99.2077 
 114   0.0000       3.668675        99.8297 
 115   0.0000       3.684539       100.2614 
 116   0.0000       3.753552       102.1393 
 117   0.0000       3.959800       107.7516 
 118   0.0000       4.048383       110.1621 
 119   0.0000       4.159454       113.1845 
 120   0.0000       4.196014       114.1793 
 121   0.0000       4.238260       115.3289 
 122   0.0000       4.298265       116.9617 
 123   0.0000       4.307842       117.2223 
 124   0.0000       4.375430       119.0615 
 125   0.0000       4.404986       119.8658 
 126   0.0000       4.514975       122.8587 
 127   0.0000       4.570018       124.3565 
 128   0.0000       4.595669       125.0545 
 129   0.0000       4.614499       125.5669 
 130   0.0000       4.658347       126.7601 
 131   0.0000       4.844169       131.8166 
 132   0.0000       5.015482       136.4782 
 133   0.0000       5.077221       138.1582 
 134   0.0000       5.231024       142.3434 
 135   0.0000       5.346493       145.4855 
 136   0.0000       5.400601       146.9578 
 137   0.0000       5.409516       147.2004 
 138   0.0000       5.575046       151.7047 
 139   0.0000       5.664084       154.1275 
 140   0.0000       5.766790       156.9223 
 141   0.0000       5.816337       158.2706 
 142   0.0000       5.818578       158.3316 
 143   0.0000       5.900588       160.5632 
 144   0.0000       5.967558       162.3855 
 145   0.0000       6.362617       173.1356 
 146   0.0000       6.524964       177.5533 
 147   0.0000       6.581450       179.0904 
 148   0.0000       6.668809       181.4675 
 149   0.0000       6.780729       184.5130 
 150   0.0000       6.823528       185.6776 
 151   0.0000       6.841171       186.1577 
 152   0.0000       7.042321       191.6313 
 153   0.0000       7.164905       194.9670 
 154   0.0000       7.209795       196.1885 
 155   0.0000       7.319058       199.1617 
 156   0.0000       7.453960       202.8326 
 157   0.0000       7.871379       214.1911 
 158   0.0000       8.910895       242.4778 
 159   0.0000       9.268670       252.2133 
 160   0.0000       9.525510       259.2023 
 161   0.0000       9.551111       259.8989 
 162   0.0000       9.825571       267.3674 
 163   0.0000       9.865428       268.4519 
 164   0.0000       9.955824       270.9117 
 165   0.0000      10.131031       275.6794 
 166   0.0000      11.236775       305.7682 
 167   0.0000      19.138642       520.7889 
 168   0.0000      22.332447       607.6968 
 169   0.0000      43.667370      1188.2496 
 170   0.0000      65.861541      1792.1837 
 171   0.0000     126.475135      3441.5634 

                    ********************************
                    * MULLIKEN POPULATION ANALYSIS *
                    ********************************

-----------------------
MULLIKEN ATOMIC CHARGES
-----------------------
   0 C :    0.009124
   1 O :   -0.000171
   2 H :   -0.000016
   3 H :   -0.000479
   4 H :   -0.019202
   5 H :   -0.000344
   6 C :   -0.184559
   7 O :   -0.461514
   8 H :    0.316081
   9 H :    0.108411
  10 H :    0.111019
  11 H :    0.121650
Sum of atomic charges:   -0.0000000

--------------------------------
MULLIKEN REDUCED ORBITAL CHARGES
--------------------------------
  0 C s       :    -0.006559  s :    -0.006559
      pz      :    -0.000969  p :    -0.002546
      px      :    -0.000187
      py      :    -0.001389
      dz2     :     0.000021  d :    -0.000018
      dxz     :    -0.000001
      dyz     :    -0.000000
      dx2y2   :    -0.000026
      dxy     :    -0.000011
      f0      :    -0.000000  f :    -0.000000
      f+1     :     0.000000
      f-1     :    -0.000000
      f+2     :     0.000000
      f-2     :     0.000000
      f+3     :     0.000000
      f-3     :    -0.000000
  1 O s       :     0.000027  s :     0.000027
      pz      :     0.000080  p :     0.000143
      px      :    -0.000004
      py      :     0.000068
      dz2     :     0.000000  d :     0.000000
      dxz     :     0.000000
      dyz     :     0.000001
      dx2y2   :    -0.000000
      dxy     :    -0.000000
      f0      :     0.000000  f :    -0.000000
      f+1     :    -0.000000
      f-1     :     0.000000
      f+2     :    -0.000000
      f-2     :    -0.000000
      f+3     :    -0.000000
      f-3     :    -0.000000
  2 H s       :     0.000016  s :     0.000016
      pz      :    -0.000000  p :    -0.000000
      px      :    -0.000000
      py      :     0.000000
  3 H s       :     0.000479  s :     0.000479
      pz      :    -0.000000  p :    -0.000000
      px      :    -0.000000
      py      :     0.000000
  4 H s       :     0.019205  s :     0.019205
      pz      :    -0.000001  p :    -0.000003
      px      :     0.000002
      py      :    -0.000003
  5 H s       :     0.000346  s :     0.000346
      pz      :     0.000000  p :    -0.000002
      px      :    -0.000001
      py      :    -0.000000
  6 C s       :     3.230506  s :     3.230506
      pz      :     0.750140  p :     2.843852
      px      :     1.033996
      py      :     1.059715
      dz2     :     0.025991  d :     0.102250
      dxz     :     0.032599
      dyz     :     0.023919
      dx2y2   :     0.015237
      dxy     :     0.004505
      f0      :     0.002466  f :     0.007951
      f+1     :     0.001457
      f-1     :     0.001635
      f+2     :     0.000797
      f-2     :     0.001003
      f+3     :     0.000169
      f-3     :     0.000425
  7 O s       :     3.790371  s :     3.790371
      pz      :     1.405040  p :     4.639523
      px      :     1.614219
      py      :     1.620264
      dz2     :     0.008439  d :     0.029959
      dxz     :     0.007895
      dyz     :     0.003707
      dx2y2   :     0.002599
      dxy     :     0.007319
      f0      :     0.000322  f :     0.001661
      f+1     :     0.000186
      f-1     :     0.000348
      f+2     :     0.000116
      f-2     :     0.000298
      f+3     :     0.000163
      f-3     :     0.000229
  8 H s       :     0.634830  s :     0.634830
      pz      :     0.013967  p :     0.049089
      px      :     0.017196
      py      :     0.017926
  9 H s       :     0.872667  s :     0.872667
      pz      :     0.003471  p :     0.018922
      px      :     0.011308
      py      :     0.004143
 10 H s       :     0.870140  s :     0.870140
      pz      :     0.006233  p :     0.018841
      px      :     0.007837
      py      :     0.004771
 11 H s       :     0.857730  s :     0.857730
      pz      :     0.003189  p :     0.020620
      px      :     0.004592
      py      :     0.012838


                     *******************************
                     * LOEWDIN POPULATION ANALYSIS *
                     *******************************

----------------------
LOEWDIN ATOMIC CHARGES
----------------------
   0 C :   -0.002899
   1 O :   -0.000073
   2 H :   -0.000006
   3 H :   -0.000019
   4 H :   -0.007911
   5 H :   -0.000109
   6 C :   -0.393634
   7 O :   -0.068307
   8 H :    0.163929
   9 H :    0.100432
  10 H :    0.108797
  11 H :    0.099800

-------------------------------
LOEWDIN REDUCED ORBITAL CHARGES
-------------------------------
  0 C s       :     0.000149  s :     0.000149
      pz      :     0.000756  p :     0.002660
      px      :     0.000135
      py      :     0.001769
      dz2     :     0.000008  d :     0.000088
      dxz     :     0.000001
      dyz     :     0.000042
      dx2y2   :     0.000030
      dxy     :     0.000006
      f0      :     0.000001  f :     0.000003
      f+1     :     0.000000
      f-1     :     0.000000
      f+2     :     0.000001
      f-2     :     0.000000
      f+3     :     0.000000
      f-3     :     0.000000
  1 O s       :     0.000006  s :     0.000006
      pz      :     0.000002  p :     0.000065
      px      :     0.000004
      py      :     0.000060
      dz2     :     0.000001  d :     0.000001
      dxz     :     0.000000
      dyz     :     0.000000
      dx2y2   :     0.000000
      dxy     :     0.000000
      f0      :     0.000000  f :     0.000000
      f+1     :     0.000000
      f-1     :     0.000000
      f+2     :     0.000000
      f-2     :     0.000000
      f+3     :     0.000000
      f-3     :     0.000000
  2 H s       :     0.000006  s :     0.000006
      pz      :     0.000000  p :     0.000000
      px      :     0.000000
      py      :     0.000000
  3 H s       :     0.000018  s :     0.000018
      pz      :     0.000000  p :     0.000002
      px      :     0.000000
      py      :     0.000001
  4 H s       :     0.007711  s :     0.007711
      pz      :     0.000031  p :     0.000200
      px      :     0.000007
      py      :     0.000162
  5 H s       :     0.000108  s :     0.000108
      pz      :     0.000001  p :     0.000001
      px      :     0.000000
      py      :     0.000000
  6 C s       :     2.873810  s :     2.873810
      pz      :     0.877140  p :     3.056758
      px      :     1.084548
      py      :     1.095070
      dz2     :     0.113923  d :     0.407366
      dxz     :     0.125086
      dyz     :     0.082225
      dx2y2   :     0.068257
      dxy     :     0.017876
      f0      :     0.015126  f :     0.055699
      f+1     :     0.010687
      f-1     :     0.011826
      f+2     :     0.004623
      f-2     :     0.009545
      f+3     :     0.001585
      f-3     :     0.002309
  7 O s       :     3.364860  s :     3.364860
      pz      :     1.452681  p :     4.628810
      px      :     1.600645
      py      :     1.575483
      dz2     :     0.021179  d :     0.070057
      dxz     :     0.018466
      dyz     :     0.014065
      dx2y2   :     0.003268
      dxy     :     0.013080
      f0      :     0.001153  f :     0.004580
      f+1     :     0.000843
      f-1     :     0.000817
      f+2     :     0.000394
      f-2     :     0.000636
      f+3     :     0.000288
      f-3     :     0.000448
  8 H s       :     0.673098  s :     0.673098
      pz      :     0.036214  p :     0.162973
      px      :     0.065369
      py      :     0.061390
  9 H s       :     0.841538  s :     0.841538
      pz      :     0.011564  p :     0.058030
      px      :     0.032958
      py      :     0.013508
 10 H s       :     0.837714  s :     0.837714
      pz      :     0.016654  p :     0.053488
      px      :     0.022688
      py      :     0.014147
 11 H s       :     0.838224  s :     0.838224
      pz      :     0.009502  p :     0.061976
      px      :     0.014091
      py      :     0.038383


                      *****************************
                      * MAYER POPULATION ANALYSIS *
                      *****************************

  NA   - Mulliken gross atomic population
  ZA   - Total nuclear charge
  QA   - Mulliken gross atomic charge
  VA   - Mayer's total valence
  BVA  - Mayer's bonded valence
  FA   - Mayer's free valence

  ATOM       NA         ZA         QA         VA         BVA        FA
  0 C     -0.0091     0.0000     0.0091    -0.0183    -0.0183    -0.0000
  1 O      0.0002     0.0000    -0.0002     0.0003     0.0003     0.0000
  2 H      0.0000     0.0000    -0.0000     0.0000     0.0000     0.0000
  3 H      0.0005     0.0000    -0.0005     0.0010     0.0010    -0.0000
  4 H      0.0192     0.0000    -0.0192     0.0380     0.0380    -0.0000
  5 H      0.0003     0.0000    -0.0003     0.0007     0.0007     0.0000
  6 C      6.1846     6.0000    -0.1846     3.9401     3.9401    -0.0000
  7 O      8.4615     8.0000    -0.4615     1.9073     1.9073    -0.0000
  8 H      0.6839     1.0000     0.3161     0.9154     0.9154     0.0000
  9 H      0.8916     1.0000     0.1084     0.9606     0.9606    -0.0000
 10 H      0.8890     1.0000     0.1110     0.9595     0.9595     0.0000
 11 H      0.8783     1.0000     0.1217     0.9541     0.9541    -0.0000

  Mayer bond orders larger than 0.1
B(  6-C ,  7-O ) :   0.9994 B(  6-C ,  9-H ) :   0.9730 B(  6-C , 10-H ) :   0.9840 
B(  6-C , 11-H ) :   0.9738 B(  7-O ,  8-H ) :   0.9006 

-------
TIMINGS
-------

Total SCF time: 0 days 0 hours 0 min 8 sec 

Total time                  ....       8.951 sec
Sum of individual times     ....       8.664 sec  ( 96.8%)

Fock matrix formation       ....       8.156 sec  ( 91.1%)
  XC integration            ....       1.056 sec  ( 12.9% of F)
    Basis function eval.    ....       0.056 sec  (  5.3% of XC)
    Density eval.           ....       0.055 sec  (  5.2% of XC)
    XC-Functional eval.     ....       0.082 sec  (  7.8% of XC)
    XC-Potential eval.      ....       0.060 sec  (  5.7% of XC)
Diagonalization             ....       0.045 sec  (  0.5%)
Density matrix formation    ....       0.005 sec  (  0.1%)
Population analysis         ....       0.021 sec  (  0.2%)
Initial guess               ....       0.101 sec  (  1.1%)
Orbital Transformation      ....       0.000 sec  (  0.0%)
Orbital Orthonormalization  ....       0.000 sec  (  0.0%)
DIIS solution               ....       0.021 sec  (  0.2%)
SOSCF solution              ....       0.027 sec  (  0.3%)
Grid generation             ....       0.288 sec  (  3.2%)


-------------------------------------------------------------------------------
                          DFT DISPERSION CORRECTION                            
                                                                               
                              DFTD3 V3.1  Rev 1                                
                              USING zero damping                               
-------------------------------------------------------------------------------
The omegaB97X-D3 functional is recognized. Fit by Chai et al.
Active option DFTDOPT                   ...         3   

molecular C6(AA) [au] = 208.808959 


            DFT-D V3
 parameters
 s6 scaling factor         :     1.0000 
 rs6 scaling factor        :     1.2810 
 s8 scaling factor         :     1.0000 
 rs8 scaling factor        :     1.0940 
 Damping factor alpha6     :    14.0000 
 Damping factor alpha8     :    16.0000 
 ad hoc parameters k1-k3   :    16.0000     1.3333    -4.0000 

 Edisp/kcal,au: -0.167176201092  -0.000266412206 
 E6   /kcal   :  -0.033049817 
 E8   /kcal   :  -0.134126384 
 % E8         :  80.230549195 

-------------------------   ----------------
Dispersion correction           -0.000266412
-------------------------   ----------------


-------------------------   --------------------
FINAL SINGLE POINT ENERGY      -115.732444829001
-------------------------   --------------------


                            ***************************************
                            *     ORCA property calculations      *
                            ***************************************

                                    ---------------------
                                    Active property flags
                                    ---------------------
   (+) Dipole Moment


------------------------------------------------------------------------------
                       ORCA ELECTRIC PROPERTIES CALCULATION
------------------------------------------------------------------------------

Dipole Moment Calculation                       ... on
Quadrupole Moment Calculation                   ... off
Polarizability Calculation                      ... off
GBWName                                         ... 7-72_DFT_B.gbw
Electron density file                           ... 7-72_DFT_B.scfp.tmp
The origin for moment calculation is the CENTER OF MASS  = (15.226411,  8.628212  5.435041)

-------------
DIPOLE MOMENT
-------------
                                X             Y             Z
Electronic contribution:     -0.44682      -0.51259       1.73847
Nuclear contribution   :      1.02810       0.32221      -2.03192
                        -----------------------------------------
Total Dipole Moment    :      0.58128      -0.19038      -0.29345
                        -----------------------------------------
Magnitude (a.u.)       :      0.67842
Magnitude (Debye)      :      1.72440



--------------------
Rotational spectrum 
--------------------
 
Rotational constants in cm-1:     4.249802     0.823738     0.789473 
Rotational constants in MHz : 127405.869045 24695.043369 23667.790808 

 Dipole components along the rotational axes: 
x,y,z [a.u.] :    -0.324978    -0.591993     0.064660 
x,y,z [Debye]:    -0.826029    -1.504728     0.164354 

 
------------------------------------------------------------------------------
                      ORCA CHELPG CHARGES GENERATION
------------------------------------------------------------------------------

GBW file                           ... 7-72_DFT_B.gbw

Reading the GBW file               ... done

Grid spacing                       ...     0.300000
Point Cut-Off                      ...     2.800000
Van-der-Waals Radii                ...        COSMO
Total charge                       ...            0


Number of points X direction       ...           28
Number of points Y direction       ...           39
Number of points Z direction       ...           28
Maximum number of possible points  ...        30576
Final number of points             ...         5950


CHELPG Charges            
--------------------------------
  0   C   :       0.007216
  1   O   :      -0.035583
  2   H   :       0.020342
  3   H   :      -0.008092
  4   H   :      -0.001321
  5   H   :       0.002135
  6   C   :       0.019360
  7   O   :      -0.567208
  8   H   :       0.394436
  9   H   :       0.036351
 10   H   :       0.059361
 11   H   :       0.073002
--------------------------------
Total charge:    -0.000000
--------------------------------

CHELPG charges calculated...

Timings for individual parts in CHELPG calculation:
Grid generation                 ...        0.001 sec (=   0.000 min)
Potential calculation           ...        1.173 sec (=   0.020 min)
Fit to the potential            ...        0.002 sec (=   0.000 min)
------------------------------------------------------------------------------


Timings for individual modules:

Sum of individual times         ...       11.778 sec (=   0.196 min)
GTO integral calculation        ...        0.772 sec (=   0.013 min)   6.6 %
SCF iterations                  ...        9.803 sec (=   0.163 min)  83.2 %
CHELPG charge generation        ...        1.203 sec (=   0.020 min)  10.2 %



                             ****ORCA TERMINATED NORMALLY****
TOTAL RUN TIME: 0 days 0 hours 1 minutes 8 seconds 5 msec
