LAMMPS data file via vdw_self_gen.py, on 2021-08-05 13:22:00.007786

8000 atoms
6 atom types
7500 bonds
5 bond types
13500 angles
8 angle types
15000 dihedrals
6 dihedral types

-48.9708223778791236  48.9708223778791165 xlo xhi
-48.9708223778791236  48.9708223778791165 ylo yhi
-48.9708223778791236  48.9708223778791165 zlo zhi

Masses

1  1.007940
2  1.007940
3  1.007940
4  12.011000
5  12.011000
6  14.006740

Atoms

1         0    5   -0.1530020000000000   26.3070618144841326  25.7685803501223987 -14.5280626538614488 0 0 0
2         0    4    0.3583390000000000   26.3647949163278739  26.2689495315106463 -15.9632527378462719 0 0 0
3         0    6   -0.6563480000000000   27.3390670324442873  27.3532230482168153 -16.0705914229867020 0 0 0
4         0    4    0.3583390000000000   27.4235870668907715  27.8528727465470887 -17.4415853732416366 0 0 0
5         0    5   -0.1530020000000000   28.4455062283686111  28.9768323549777236 -17.5179952693342607 0 0 0
6         0    1    0.0285690000000000   25.5691993270284250  24.9647830882444417 -14.4386682172159304 0 0 0
7         0    1    0.0285690000000000   26.0170320864157389  26.5702881391460508 -13.8404012997376462 0 0 0
8         0    1    0.0285690000000000   27.2763367684610607  25.3733975356494881 -14.2056281832502975 0 0 0
9         0    2   -0.0517540000000000   25.3698285166510331  26.6228446770220373 -16.2561051225003439 0 0 0
10        0    2   -0.0517540000000000   26.6393772438482266  25.4372916722995512 -16.6223384815290807 0 0 0
11        0    3    0.2812760000000000   28.2553030027578060  27.0227356909327021 -15.7686033586877734 0 0 0
12        0    2   -0.0517540000000000   26.4496516429364092  28.2360284169815365 -17.7665854287504992 0 0 0
13        0    2   -0.0517540000000000   27.7209056179164968  27.0503507929883469 -18.1264158978038985 0 0 0
14        0    1    0.0285690000000000   28.1685022704655239  29.8091033224918185 -16.8620164219320152 0 0 0
15        0    1    0.0285690000000000   28.5075198569630679  29.3607509303292957 -18.5413625573929366 0 0 0
16        0    1    0.0285690000000000   29.4425255225215494  28.6281666170210691 -17.2281069226179469 0 0 0
17        1    5   -0.1530020000000000  -25.3495954524703180  6.7981431724862773  -6.3416092410958678  0 0 0
18        1    4    0.3583390000000000  -26.8076779215177119  6.3704994207329682  -6.2738645664489887  0 0 0
19        1    6   -0.6563480000000000  -26.9593732617399233  5.2794842200393459  -5.3131090490511870  0 0 0
20        1    4    0.3583390000000000  -28.3530159354195703  4.8489241862252062  -5.2193219269021087  0 0 0
21        1    5   -0.1530020000000000  -28.4753216809110690  3.7160384645813904  -4.2118231961260628  0 0 0
22        1    1    0.0285690000000000  -25.2275031612996088  7.6066591414374276  -7.0695638099308091  0 0 0
23        1    1    0.0285690000000000  -24.7068678344236723  5.9667226200835461  -6.6504325467941641  0 0 0
24        1    1    0.0285690000000000  -24.9968355630998182  7.1627884329915164  -5.3709282041211148  0 0 0
25        1    2   -0.0517540000000000  -27.1290760140341334  6.0459442221127402  -7.2700219932021053  0 0 0
26        1    2   -0.0517540000000000  -27.4205135642387177  7.2305952635090325  -5.9804163032916460  0 0 0
27        1    3    0.2812760000000000  -26.6309081639952545  5.5813070690395312  -4.3960917727771776  0 0 0
28        1    2   -0.0517540000000000  -28.7077767952313216  4.4964851016127945  -6.1944706016605737  0 0 0
29        1    2   -0.0517540000000000  -28.9927950748453860  5.6809116441774723  -4.9032330522707950  0 0 0
30        1    1    0.0285690000000000  -27.8656465245050597  2.8555220920470274  -4.5076646748974012  0 0 0
31        1    1    0.0285690000000000  -29.5161646736706622  3.3837216357772157  -4.1430397779441304  0 0 0
32        1    1    0.0285690000000000  -28.1571272930788901  4.0354930960426634  -3.2136490663821355  0 0 0
33        2    5   -0.1530020000000000   14.7011825808969814 -16.4648909508065593  25.3496501720432654 0 0 0
34        2    4    0.3583390000000000   15.2156958962787634 -16.8367295427749397  26.7318531657159824 0 0 0
35        2    6   -0.6563480000000000   16.4947990751515299 -16.1739015577141707  26.9786950758890001 0 0 0
36        2    4    0.3583390000000000   17.0140931113983100 -16.5059818951145516  28.3040154984022010 0 0 0
37        2    5   -0.1530020000000000   18.3424056006360736 -15.7998216127720177  28.5284392778394391 0 0 0
38        2    1    0.0285690000000000   13.7492914907520465 -16.9689295158641258  25.1537651768614126 0 0 0
39        2    1    0.0285690000000000   15.4086372019357576 -16.7657710606459176  24.5694515570906766 0 0 0
40        2    1    0.0285690000000000   14.5345946288058361 -15.3857039285290877  25.2646136724330290 0 0 0
41        2    2   -0.0517540000000000   15.3359297942506014 -17.9246986269738144  26.7850463166469019 0 0 0
42        2    2   -0.0517540000000000   14.4752738288144798 -16.5376213164263532  27.4826884990897646 0 0 0
43        2    3    0.2812760000000000   16.3792854911858221 -15.1638876747158893  26.8984728491052572 0 0 0
44        2    2   -0.0517540000000000   17.1679334834493247 -17.5875090751232221  28.3912829764779104 0 0 0
45        2    2   -0.0517540000000000   16.3074822003893374 -16.1973729096999897  29.0830496238835323 0 0 0
46        2    1    0.0285690000000000   19.0829023404536713 -16.1020507108372968  27.7800833766118487 0 0 0
47        2    1    0.0285690000000000   18.7404518326222664 -16.0511400397103401  29.5168309079045876 0 0 0
48        2    1    0.0285690000000000   18.2277607916677802 -14.7117089309804179  28.4782607684861944 0 0 0
49        3    5   -0.1530020000000000  -16.3585315200951236 -25.1678511876340529  17.7175168548742974 0 0 0
50        3    4    0.3583390000000000  -16.0071460284994878 -25.9419536751447808  16.4562609010624641 0 0 0
51        3    6   -0.6563480000000000  -16.4161246529433704 -27.3376140052631911  16.6020193872022297 0 0 0
52        3    4    0.3583390000000000  -16.0978203084230316 -28.1088415668433491  15.4018909518176681 0 0 0
53        3    5   -0.1530020000000000  -16.5372690989894728 -29.5532457928888945  15.5863459285775026 0 0 0
54        3    1    0.0285690000000000  -16.0426469908281675 -24.1242468882611121  17.6193869185647785 0 0 0
55        3    1    0.0285690000000000  -15.8568519108937895 -25.5907549949284778  18.5945577316796360 0 0 0
56        3    1    0.0285690000000000  -17.4381718218418058 -25.1770562318047588  17.9016892390857905 0 0 0
57        3    2   -0.0517540000000000  -14.9256425318396602 -25.8790479931102873  16.2908659447296138 0 0 0
58        3    2   -0.0517540000000000  -16.5113055338201917 -25.4799423905443305  15.5996320240120649 0 0 0
59        3    3    0.2812760000000000  -17.4183479988672865 -27.3845024496809053  16.7843840665268544 0 0 0
60        3    2   -0.0517540000000000  -15.0186582292484516 -28.0876623397422698  15.2123014977043347 0 0 0
61        3    2   -0.0517540000000000  -16.6067741530441531 -27.6878009629695079  14.5271775998932036 0 0 0
62        3    1    0.0285690000000000  -16.0302561492696114 -30.0154083573996004  16.4401948830660913 0 0 0
63        3    1    0.0285690000000000  -16.2941371940105562 -30.1380129219948643  14.6933431008112727 0 0 0
64        3    1    0.0285690000000000  -17.6180352260745394 -29.6222571562707380  15.7501523190807902 0 0 0
65        4    5   -0.1530020000000000  -3.7323698886756995  -7.1845322955620246   5.8140250732255083  0 0 0
66        4    4    0.3583390000000000  -5.0374235014755175  -6.4738625661987896   6.1384578233986815  0 0 0
67        4    6   -0.6563480000000000  -5.2091279253995069  -5.3249056766111877   5.2514445961725533  0 0 0
68        4    4    0.3583390000000000  -6.4596569232099190  -4.6227472686848428   5.5335237778106530  0 0 0
69        4    5   -0.1530020000000000  -6.6073399867616533  -3.4361383594499690   4.5935283227873818  0 0 0
70        4    1    0.0285690000000000  -3.5918098704846781  -8.0387503147745036   6.4841570832346180  0 0 0
71        4    1    0.0285690000000000  -2.8749258652849372  -6.5143337344071934   5.9379379275928299  0 0 0
72        4    1    0.0285690000000000  -3.7292272249988336  -7.5596422345491732   4.7849915273981294  0 0 0
73        4    2   -0.0517540000000000  -5.0125200379877128  -6.1455517637617358   7.1837110291863766  0 0 0
74        4    2   -0.0517540000000000  -5.8685202296166938  -7.1788598570157376   6.0214052056842622  0 0 0
75        4    3    0.2812760000000000  -5.2019378132835152  -5.6365713791584584   4.2805069927481671  0 0 0
76        4    2   -0.0517540000000000  -6.4660143677399775  -4.2594261575163994   6.5674197430694257  0 0 0
77        4    2   -0.0517540000000000  -7.3163439180067247  -5.2936978875271201   5.4018221676413614  0 0 0
78        4    1    0.0285690000000000  -5.7785090797368657  -2.7302313392170121   4.7137323603497689  0 0 0
79        4    1    0.0285690000000000  -7.5387644010901669  -2.9012732450356689   4.8053953534348066  0 0 0
80        4    1    0.0285690000000000  -6.6347487491438590  -3.7587157034264562   3.5471807991616302  0 0 0
81        5    5   -0.1530020000000000  -38.3615237260530009 -3.8171455414912687  -18.1637586293829614 0 0 0
82        5    4    0.3583390000000000  -37.5813180808907603 -4.8651578017051564  -17.3850273152582844 0 0 0
83        5    6   -0.6563480000000000  -38.3522059102021444 -5.2904689785968344  -16.2183143402594681 0 0 0
84        5    4    0.3583390000000000  -37.6315371168204962 -6.3042443896870495  -15.4506465898526280 0 0 0
85        5    5   -0.1530020000000000  -38.4609293042396274 -6.7249469455589725  -14.2470850396480060 0 0 0
86        5    1    0.0285690000000000  -37.7833071091288701 -3.4850131666309956  -19.0320190070246511 0 0 0
87        5    1    0.0285690000000000  -38.5731412758821293 -2.9392096586917438  -17.5439382050685175 0 0 0
88        5    1    0.0285690000000000  -39.3136069509754265 -4.2188540573082243  -18.5267946912851471 0 0 0
89        5    2   -0.0517540000000000  -36.6241571232006038 -4.4340483520480172  -17.0704641686724301 0 0 0
90        5    2   -0.0517540000000000  -37.3727977392265700 -5.7180827641255156  -18.0411389997240335 0 0 0
91        5    3    0.2812760000000000  -39.2525497462177881 -5.6632166328400526  -16.5188924512469946 0 0 0
92        5    2   -0.0517540000000000  -36.6736218772758136 -5.9043615050367384  -15.0992556589625462 0 0 0
93        5    2   -0.0517540000000000  -37.4274208274059248 -7.1844246987401155  -16.0711720269225964 0 0 0
94        5    1    0.0285690000000000  -38.6656902941304637 -5.8728948961448468  -13.5899742069811609 0 0 0
95        5    1    0.0285690000000000  -37.9226404613916159 -7.4787068704073043  -13.6634662717369846 0 0 0
96        5    1    0.0285690000000000  -39.4182309372323374 -7.1584635238834284  -14.5557717466622982 0 0 0
97        6    5   -0.1530020000000000  -37.5531896778390220 -36.0311757655398281 -39.3452357962895789 0 0 0
98        6    4    0.3583390000000000  -37.8795561353845471 -37.5134818560236454 -39.2466122929865833 0 0 0
99        6    6   -0.6563480000000000  -37.9985114716174550 -37.9017530814680654 -37.8425211662880372 0 0 0
100       6    4    0.3583390000000000  -38.3188942750381614 -39.3219722262465510 -37.7130981815560062 0 0 0
101       6    5   -0.1530020000000000  -38.4368991023686561 -39.6913244254066839 -36.2423513440947502 0 0 0
102       6    1    0.0285690000000000  -37.4499129576080563 -35.7371177001567801 -40.3947052942462932 0 0 0
103       6    1    0.0285690000000000  -36.6120259661862377 -35.7980236603840041 -38.8357441635522278 0 0 0
104       6    1    0.0285690000000000  -38.3452910207322333 -35.4193465591166046 -38.9004123865477993 0 0 0
105       6    2   -0.0517540000000000  -37.0809359577553721 -38.0858621143085969 -39.7319462826362013 0 0 0
106       6    2   -0.0517540000000000  -38.8154392554037742 -37.7111320206767928 -39.7818706091066261 0 0 0
107       6    3    0.2812760000000000  -38.7236991985075463 -37.3438618235356756 -37.3922244389064033 0 0 0
108       6    2   -0.0517540000000000  -37.5313713166744662 -39.9318458887545802 -38.1700940455735491 0 0 0
109       6    2   -0.0517540000000000  -39.2646160477209420 -39.5510596046509804 -38.2176395136879989 0 0 0
110       6    1    0.0285690000000000  -37.5001683880172720 -39.4971044931212134 -35.7089391292048219 0 0 0
111       6    1    0.0285690000000000  -38.6689947299278884 -40.7561796330108734 -36.1387425828527284 0 0 0
112       6    1    0.0285690000000000  -39.2351729794919351 -39.1234376278726614 -35.7525412527439386 0 0 0
113       7    5   -0.1530020000000000   25.4212424119368592 -4.0783876779265453   15.2961659162204828 0 0 0
114       7    4    0.3583390000000000   26.7517130591901235 -4.2527947398939485   16.0123384090135055 0 0 0
115       7    6   -0.6563480000000000   26.9810490394342217 -5.6688509655800399   16.2926357198481391 0 0 0
116       7    4    0.3583390000000000   28.2571282054526911 -5.8715806126065662   16.9759661824868999 0 0 0
117       7    5   -0.1530020000000000   28.4646086332072450 -7.3531421865273687   17.2505014643362706 0 0 0
118       7    1    0.0285690000000000   25.2377360807938977 -3.0180024011872799   15.0950914394586491 0 0 0
119       7    1    0.0285690000000000   24.5916430201099629 -4.4545357950579225   15.9044489121680712 0 0 0
120       7    1    0.0285690000000000   25.4129688768254702 -4.6092054832918610   14.3381516223689189 0 0 0
121       7    2   -0.0517540000000000   26.7298203599545907 -3.6800712600946452   16.9463999461226926 0 0 0
122       7    2   -0.0517540000000000   27.5534480659735621 -3.8496060902768234   15.3829703460981051 0 0 0
123       7    3    0.2812760000000000   26.9708079335530329 -6.1975455983414136   15.4206929793888499 0 0 0
124       7    2   -0.0517540000000000   28.2680646296254032 -5.3292548213616016   17.9281986355553933 0 0 0
125       7    2   -0.0517540000000000   29.0860206313898004 -5.5008439272801448   16.3620245643526765 0 0 0
126       7    1    0.0285690000000000   27.6651429205971198 -7.7544682875479989   17.8825666028310053 0 0 0
127       7    1    0.0285690000000000   29.4155470936632035 -7.5105908836995905   17.7695830774612205 0 0 0
128       7    1    0.0285690000000000   28.4892579527738263 -7.9303590522225296   16.3199835309776873 0 0 0
129       8    5   -0.1530020000000000  -7.6075545997391290   26.6333644410864316  39.1263466662245349 0 0 0
130       8    4    0.3583390000000000  -6.7491250298343948   27.2392331035218973  38.0265763068804432 0 0 0
131       8    6   -0.6563480000000000  -5.3358155491220192   27.1209973712247390  38.3800638341521392 0 0 0
132       8    4    0.3583390000000000  -4.4820726087459342   27.6891090293761550  37.3385313072810661 0 0 0
133       8    5   -0.1530020000000000  -3.0208945617178462   27.5482666210818330  37.7367329862190743 0 0 0
134       8    1    0.0285690000000000  -8.6681952258064516   26.7307162818963064  38.8731934807291637 0 0 0
135       8    1    0.0285690000000000  -7.4415306059584916   27.1402344477939472  40.0830334435395841 0 0 0
136       8    1    0.0285690000000000  -7.3894597084750222   25.5683181733351823  39.2595324276768451 0 0 0
137       8    2   -0.0517540000000000  -7.0222153681832591   28.2933475424257992  37.9031791979401049 0 0 0
138       8    2   -0.0517540000000000  -6.9553687027806941   26.7201210248188445  37.0834800954501276 0 0 0
139       8    3    0.2812760000000000  -5.0981056459497269   26.1394285822879446  38.5212153559965103 0 0 0
140       8    2   -0.0517540000000000  -4.7107931782268206   28.7516192037203133  37.1980231423528522 0 0 0
141       8    2   -0.0517540000000000  -4.6450538204406984   27.1753526381721535  36.3841078429679001 0 0 0
142       8    1    0.0285690000000000  -2.8147139066453568   28.0704147513660160  38.6772462885251187 0 0 0
143       8    1    0.0285690000000000  -2.3764997124862219   27.9793994809922602  36.9638167525370633 0 0 0
144       8    1    0.0285690000000000  -2.7418415587842024   26.4962762213811658  37.8595993518010232 0 0 0
145       9    5   -0.1530020000000000  -7.6180725833458274  -27.7179139566088644 -26.1583971582114003 0 0 0
146       9    4    0.3583390000000000  -6.2539994592389982  -28.1048198922372485 -26.7089253727153988 0 0 0
147       9    6   -0.6563480000000000  -5.5879481967918228  -26.9242663126043489 -27.2557761476151583 0 0 0
148       9    4    0.3583390000000000  -4.2691082186661893  -27.2615804272308964 -27.7880337629399961 0 0 0
149       9    5   -0.1530020000000000  -3.6043196259843056  -26.0127167681156841 -28.3464584527428514 0 0 0
150       9    1    0.0285690000000000  -8.1274516203274949  -28.6008358573421759 -25.7590171790072446 0 0 0
151       9    1    0.0285690000000000  -8.2531063060036125  -27.2872704200496834 -26.9400678533300066 0 0 0
152       9    1    0.0285690000000000  -7.5268297168052873  -26.9864853570549670 -25.3482648701496984 0 0 0
153       9    2   -0.0517540000000000  -6.3881914510303437  -28.8607835100617827 -27.4908933692246755 0 0 0
154       9    2   -0.0517540000000000  -5.6550281887877443  -28.5475575286584551 -25.9047729808330089 0 0 0
155       9    3    0.2812760000000000  -5.4936463440907559  -26.2155148997309624 -26.5286684300607831 0 0 0
156       9    2   -0.0517540000000000  -4.3616878097948923  -28.0030029259632478 -28.5897227372810008 0 0 0
157       9    2   -0.0517540000000000  -3.6334701610310973  -27.6856079078680040 -27.0021599757130453 0 0 0
158       9    1    0.0285690000000000  -4.2015244824110667  -25.5730076275716911 -29.1525084732021043 0 0 0
159       9    1    0.0285690000000000  -2.6189420333222699  -26.2606059078672693 -28.7540142687641271 0 0 0
160       9    1    0.0285690000000000  -3.4659135852645604  -25.2542296155158326 -27.5685178826905997 0 0 0
161       10   5   -0.1530020000000000  -16.5793421630213729 -17.4867770896858197 -40.2517344238613077 0 0 0
162       10   4    0.3583390000000000  -16.1235510399519910 -17.4028987174711851 -38.8030481649681747 0 0 0
163       10   6   -0.6563480000000000  -16.4125334758605383 -16.0731852184450439 -38.2694490918392773 0 0 0
164       10   4    0.3583390000000000  -15.9917708386191322 -15.9616490404615128 -36.8741224802524172 0 0 0
165       10   5   -0.1530020000000000  -16.3079729041285866 -14.5690179152365449 -36.3506368080299467 0 0 0
166       10   1    0.0285690000000000  -16.3535547443560176 -18.4767285086013437 -40.6610493193385949 0 0 0
167       10   1    0.0285690000000000  -16.0690436961560792 -16.7415185527392545 -40.8713439363150783 0 0 0
168       10   1    0.0285690000000000  -17.6590463331032943 -17.3246053867037553 -40.3387207731329198 0 0 0
169       10   2   -0.0517540000000000  -15.0472739319826498 -17.6041404918903162 -38.7573123497922438 0 0 0
170       10   2   -0.0517540000000000  -16.6403680018382047 -18.1732686593272206 -38.2192034531727955 0 0 0
171       10   3    0.2812760000000000  -17.4117902465921901 -15.8834366896917665 -38.3428550833040802 0 0 0
172       10   2   -0.0517540000000000  -14.9134319242974485 -16.1368865688078706 -36.7877482455605502 0 0 0
173       10   2   -0.0517540000000000  -16.5092184017941968 -16.7037200652630737 -36.2552434390705827 0 0 0
174       10   1    0.0285690000000000  -15.7882179617271401 -13.7999743265793260 -36.9321358732867253 0 0 0
175       10   1    0.0285690000000000  -15.9876720096680334 -14.4767681282799128 -35.3078438838526694 0 0 0
176       10   1    0.0285690000000000  -17.3829316755918413 -14.3631439895047510 -36.3922311544962014 0 0 0
177       11   5   -0.1530020000000000   16.9548880940601698 -35.7606370317373887  27.7363214418106452 0 0 0
178       11   4    0.3583390000000000   16.7580612352518870 -37.2264686872619137  28.0913844660949543 0 0 0
179       11   6   -0.6563480000000000   16.2065904951481627 -37.9440279246976147  26.9436189969418969 0 0 0
180       11   4    0.3583390000000000   16.0113106461644890 -39.3596890173461134  27.2505185248694559 0 0 0
181       11   5   -0.1530020000000000   15.4390861231855823 -40.0756126408183988  26.0366590161717291 0 0 0
182       11   1    0.0285690000000000   17.3556839966583247 -35.2150804700865478  28.5967010884784685 0 0 0
183       11   1    0.0285690000000000   16.0070845858001647 -35.2913289306634752  27.4514544972621053 0 0 0
184       11   1    0.0285690000000000   17.6592237256540727 -35.6439951389057512  26.9056991642356564 0 0 0
185       11   2   -0.0517540000000000   16.0754016656216159 -37.2961810096545321  28.9458307978202747 0 0 0
186       11   2   -0.0517540000000000   17.7217794727008027 -37.6562626312235054  28.3879794617410184 0 0 0
187       11   3    0.2812760000000000   16.8342237100065759 -37.8492280804166796  26.1454983452038192 0 0 0
188       11   2   -0.0517540000000000   15.3162329703774223 -39.4736309776735865  28.0900825594726520 0 0 0
189       11   2   -0.0517540000000000   16.9624123240833704 -39.8284000046440454  27.5282742858287612 0 0 0
190       11   1    0.0285690000000000   14.4743088212604238 -39.6480794885069088  25.7431721073246322 0 0 0
191       11   1    0.0285690000000000   15.2830527422284916 -41.1352840060955600  26.2630877037064785 0 0 0
192       11   1    0.0285690000000000   16.1183787404870351 -40.0107724405415226  25.1799164575184520 0 0 0
193       12   5   -0.1530020000000000   6.5857743033111698   17.5531067399542486 -3.6310667935512515  0 0 0
194       12   4    0.3583390000000000   5.9805448856467507   17.4411727029708779 -5.0219805684698189  0 0 0
195       12   6   -0.6563480000000000   5.5123900581540539   16.0753793169715102 -5.2496124925394811  0 0 0
196       12   4    0.3583390000000000   4.9180836830008534   15.9357321407107815 -6.5776623664202241  0 0 0
197       12   5   -0.1530020000000000   4.4408899296646549   14.5058484498395064 -6.7805445947135423  0 0 0
198       12   1    0.0285690000000000   6.9502184213366647   18.5710865173802766 -3.4595438752916738  0 0 0
199       12   1    0.0285690000000000   7.4315622223021087   16.8676164578727636 -3.5107479281941556  0 0 0
200       12   1    0.0285690000000000   5.8460065684117328   17.3251802504286161 -2.8561986790477123  0 0 0
201       12   2   -0.0517540000000000   6.7419603467098481   17.7094789387839313 -5.7630748196807673  0 0 0
202       12   2   -0.0517540000000000   5.1515230250596451   18.1527061934182683 -5.1107899910579766  0 0 0
203       12   3    0.2812760000000000   4.8260374035994467   15.8246067275353859 -4.5383177719254766  0 0 0
204       12   2   -0.0517540000000000   5.6562537617549058   16.1766230860529383 -7.3510057579251962  0 0 0
205       12   2   -0.0517540000000000   4.0676572441205074   16.6176117697122336 -6.6927610097924584  0 0 0
206       12   1    0.0285690000000000   5.2704711255575853   13.7957336679858038 -6.6954185686478596  0 0 0
207       12   1    0.0285690000000000   4.0017825395024804   14.3929928887085747 -7.7770224374811372  0 0 0
208       12   1    0.0285690000000000   3.6780842647637444   14.2328435003628648 -6.0434921281575278  0 0 0
209       13   5   -0.1530020000000000  -26.8089733262099408  18.6654378001898742  37.4127733015237069 0 0 0
210       13   4    0.3583390000000000  -27.5724890265243019  17.5793348481012259  38.1549977680685757 0 0 0
211       13   6   -0.6563480000000000  -26.9911300418304947  16.2723282180250486  37.8547775015096803 0 0 0
212       13   4    0.3583390000000000  -27.6994231449719237  15.2053567261846183  38.5592706416764841 0 0 0
213       13   5   -0.1530020000000000  -27.0690299305769955  13.8617251239252575  38.2265531055369223 0 0 0
214       13   1    0.0285690000000000  -27.2481774912976071  19.6458553650309895  37.6234948092552912 0 0 0
215       13   1    0.0285690000000000  -26.8452985309261969  18.5056285580711233  36.3297810366687131 0 0 0
216       13   1    0.0285690000000000  -25.7582650491522145  18.6938576534697383  37.7207210398851558 0 0 0
217       13   2   -0.0517540000000000  -28.6228028429829884  17.6077255860991926  37.8435539004905976 0 0 0
218       13   2   -0.0517540000000000  -27.5295839455205744  17.7823179957054194  39.2312882784386900 0 0 0
219       13   3    0.2812760000000000  -26.0067948157811735  16.2649693919005465  38.1211175999487040 0 0 0
220       13   2   -0.0517540000000000  -28.7532842064287735  15.1869581406965288  38.2592341953952157 0 0 0
221       13   2   -0.0517540000000000  -27.6553651348470595  15.3639237258718708  39.6429440484065765 0 0 0
222       13   1    0.0285690000000000  -27.1156588277323323  13.6578687575304141  37.1513867313741244 0 0 0
223       13   1    0.0285690000000000  -27.6005371003177835  13.0573947522388796  38.7452751415031642 0 0 0
224       13   1    0.0285690000000000  -26.0193854993807498  13.8270367056478598  38.5375093805919491 0 0 0
225       14   5   -0.1530020000000000  -25.5310740284732987  6.1951079038569485   3.7905928059711291  0 0 0
226       14   4    0.3583390000000000  -26.0443965235318409  6.0000660017135363   5.2090185806858909  0 0 0
227       14   6   -0.6563480000000000  -27.3843118050603813  5.4171196758123887   5.1747049092903170  0 0 0
228       14   4    0.3583390000000000  -27.9045724641485222  5.2104315579869356   6.5248999831425865  0 0 0
229       14   5   -0.1530020000000000  -29.2968520536211656  4.6023160775420777   6.4528197959811937  0 0 0
230       14   1    0.0285690000000000  -24.5326397462790737  6.6437624511400362   3.8095805715457689  0 0 0
231       14   1    0.0285690000000000  -26.1882886602309206  6.8595327368815848   3.2193316317575520  0 0 0
232       14   1    0.0285690000000000  -25.4612370071901779  5.2403796469410313   3.2583859599003642  0 0 0
233       14   2   -0.0517540000000000  -26.0664830790889361  6.9717445119036991   5.7152946778880578  0 0 0
234       14   2   -0.0517540000000000  -25.3534585245621962  5.3464675958306591   5.7538654144907575  0 0 0
235       14   3    0.2812760000000000  -27.3591511933582332  4.5276167391268869   4.6766501865472740  0 0 0
236       14   2   -0.0517540000000000  -27.9615623585559234  6.1651518412032651   7.0599185310928219  0 0 0
237       14   2   -0.0517540000000000  -27.2488713175729984  4.5395915585394198   7.0918764867305066  0 0 0
238       14   1    0.0285690000000000  -29.9876431898858442  5.2577021425114800   5.9115332579977693  0 0 0
239       14   1    0.0285690000000000  -29.6952380965330534  4.4524833262530041   7.4614616929665036  0 0 0
240       14   1    0.0285690000000000  -29.2804188663885618  3.6297660156531926   5.9493052969076521  0 0 0
241       15   5   -0.1530020000000000  -25.9857951767171826 -29.3223413629930150 -27.5672963341075850 0 0 0
242       15   4    0.3583390000000000  -27.0995012538480609 -28.3310796976602433 -27.8681818447315912 0 0 0
243       15   6   -0.6563480000000000  -27.0200055739969152 -27.2016956815386841 -26.9437636549418542 0 0 0
244       15   4    0.3583390000000000  -28.0746990392727298 -26.2257068774075854 -27.2111312248063335 0 0 0
245       15   5   -0.1530020000000000  -27.9620199264611387 -25.0651551666577106 -26.2344707974255869 0 0 0
246       15   1    0.0285690000000000  -26.0480988319256390 -30.1772118139022432 -28.2483522940770513 0 0 0
247       15   1    0.0285690000000000  -26.0594581532412661 -29.7018603094215479 -26.5424695705561113 0 0 0
248       15   1    0.0285690000000000  -24.9997146016461471 -28.8625487753004641 -27.6932457559822289 0 0 0
249       15   2   -0.0517540000000000  -28.0648119964239413 -28.8392627074380670 -27.7638380450079616 0 0 0
250       15   2   -0.0517540000000000  -27.0041260117127351 -27.9881626245888668 -28.9048860991280847 0 0 0
251       15   3    0.2812760000000000  -26.1080281883880261 -26.7531115099364456 -27.0272892601531858 0 0 0
252       15   2   -0.0517540000000000  -29.0602616914140910 -26.6911471320478384 -27.0970472997138110 0 0 0
253       15   2   -0.0517540000000000  -27.9942730867804208 -25.8423370846264397 -28.2348459908660168 0 0 0
254       15   1    0.0285690000000000  -28.0612023441055705 -25.4080417819482633 -25.1989486965582010 0 0 0
255       15   1    0.0285690000000000  -28.7546214873295902 -24.3343215682678391 -26.4246937878167856 0 0 0
256       15   1    0.0285690000000000  -26.9995815512176485 -24.5522148207458635 -26.3357382586087354 0 0 0
257       16   5   -0.1530020000000000  -14.4506592717749101 -15.5672013177250701  14.9029670446733213 0 0 0
258       16   4    0.3583390000000000  -15.0817744894008463 -16.4842669284191565  15.9393826242857042 0 0 0
259       16   6   -0.6563480000000000  -16.4446570437186921 -16.0416451716339559  16.2275040086993627 0 0 0
260       16   4    0.3583390000000000  -17.0826591963513295 -16.9077731528899093  17.2170460453110472 0 0 0
261       16   5   -0.1530020000000000  -18.4971778171107317 -16.4208940383505784  17.4918700718267850 0 0 0
262       16   1    0.0285690000000000  -13.4246994881517310 -15.8860717056750254  14.6926086553076178 0 0 0
263       16   1    0.0285690000000000  -14.4154988648478479 -14.5319706754072335  15.2590457200962142 0 0 0
264       16   1    0.0285690000000000  -15.0095154660253769 -15.5877073548067901  13.9612204557805963 0 0 0
265       16   2   -0.0517540000000000  -14.4745440570787132 -16.4602823630174875  16.8513356781126973 0 0 0
266       16   2   -0.0517540000000000  -15.0828315971901645 -17.5112987185172990  15.5564350409914258 0 0 0
267       16   3    0.2812760000000000  -16.9938706836839515 -16.0394836623105270  15.3682795076790768 0 0 0
268       16   2   -0.0517540000000000  -16.5148096404278348 -16.8957289819714376  18.1542681820984768 0 0 0
269       16   2   -0.0517540000000000  -17.1229389439932831 -17.9416254324892677  16.8551625557773370 0 0 0
270       16   1    0.0285690000000000  -18.4951044228769703 -15.3959269958795417  17.8780729552760604 0 0 0
271       16   1    0.0285690000000000  -18.9776516875143137 -17.0612582318237536  18.2385951406953843 0 0 0