
                                 *****************
                                 * O   R   C   A *
                                 *****************

           --- An Ab Initio, DFT and Semiempirical electronic structure package ---

                  #######################################################
                  #                        -***-                        #
                  #          Department of theory and spectroscopy      #
                  #               Directorship: Frank Neese             #
                  #        Max Planck Institute fuer Kohlenforschung    #
                  #                Kaiser Wilhelm Platz 1               #
                  #                 D-45470 Muelheim/Ruhr               #
                  #                      Germany                        #
                  #                                                     #
                  #                  All rights reserved                #
                  #                        -***-                        #
                  #######################################################


                         Program Version 4.1.2  - RELEASE  -


 With contributions from (in alphabetic order):
   Daniel Aravena         : Magnetic Properties
   Michael Atanasov       : Ab Initio Ligand Field Theory
   Alexander A. Auer      : GIAO ZORA
   Ute Becker             : Parallelization
   Giovanni Bistoni       : ED, Open-shell LED
   Martin Brehm           : Molecular dynamics
   Dmytro Bykov           : SCF Hessian
   Vijay G. Chilkuri      : MRCI spin determinant printing
   Dipayan Datta          : RHF DLPNO-CCSD density
   Achintya Kumar Dutta   : EOM-CC, STEOM-CC
   Dmitry Ganyushin       : Spin-Orbit,Spin-Spin,Magnetic field MRCI
   Miquel Garcia          : C-PCM Hessian
   Yang Guo               : DLPNO-NEVPT2, CIM, IAO-localization
   Andreas Hansen         : Spin unrestricted coupled pair/coupled cluster methods
   Benjamin Helmich-Paris : CASSCF linear response (MC-RPA)
   Lee Huntington         : MR-EOM, pCC
   Robert Izsak           : Overlap fitted RIJCOSX, COSX-SCS-MP3, EOM
   Christian Kollmar      : KDIIS, OOCD, Brueckner-CCSD(T), CCSD density
   Simone Kossmann        : Meta GGA functionals, TD-DFT gradient, OOMP2, MP2 Hessian
   Martin Krupicka        : AUTO-CI
   Lucas Lang             : DCDCAS
   Dagmar Lenk            : GEPOL surface, SMD
   Dimitrios Liakos       : Extrapolation schemes; parallel MDCI
   Dimitrios Manganas     : ROCIS; embedding schemes
   Dimitrios Pantazis     : SARC Basis sets
   Taras Petrenko         : DFT Hessian,TD-DFT gradient, ASA, ECA, R-Raman, ABS, FL, XAS/XES, NRVS
   Peter Pinski           : DLPNO-MP2, DLPNO-MP2 Gradient
   Christoph Reimann      : Effective Core Potentials
   Marius Retegan         : Local ZFS, SOC
   Christoph Riplinger    : Optimizer, TS searches, QM/MM, DLPNO-CCSD(T), (RO)-DLPNO pert. Triples
   Tobias Risthaus        : Range-separated hybrids, TD-DFT gradient, RPA, STAB
   Michael Roemelt        : Restricted open shell CIS
   Masaaki Saitow         : Open-shell DLPNO
   Barbara Sandhoefer     : DKH picture change effects
   Avijit Sen             : IP-ROCIS
   Kantharuban Sivalingam : CASSCF convergence, NEVPT2, FIC-MRCI
   Bernardo de Souza      : ESD, SOC TD-DFT
   Georgi Stoychev        : AutoAux, RI-MP2 NMR
   Willem Van den Heuvel  : Paramagnetic NMR
   Boris Wezisla          : Elementary symmetry handling
   Frank Wennmohs         : Technical directorship


 We gratefully acknowledge several colleagues who have allowed us to
 interface, adapt or use parts of their codes:
   Stefan Grimme, W. Hujo, H. Kruse,             : VdW corrections, initial TS optimization,
                  C. Bannwarth                     DFT functionals, gCP, sTDA/sTD-DF
   Ed Valeev                                     : LibInt (2-el integral package), F12 methods
   Garnet Chan, S. Sharma, J. Yang, R. Olivares  : DMRG
   Ulf Ekstrom                                   : XCFun DFT Library
   Mihaly Kallay                                 : mrcc  (arbitrary order and MRCC methods)
   Andreas Klamt, Michael Diedenhofen            : otool_cosmo (COSMO solvation model)
   Jiri Pittner, Ondrej Demel                    : Mk-CCSD
   Frank Weinhold                                : gennbo (NPA and NBO analysis)
   Christopher J. Cramer and Donald G. Truhlar   : smd solvation model
   Lars Goerigk                                  : TD-DFT with DH, B97 family of functionals
   V. Asgeirsson, H. Jonsson                     : NEB implementation
   FAccTs GmbH                                   : IRC, NEB, NEB-TS, Multilevel


 Your calculation uses the libint2 library for the computation of 2-el integrals
 For citations please refer to: http://libint.valeyev.net

 This ORCA versions uses:
   CBLAS   interface :  Fast vector & matrix operations
   LAPACKE interface :  Fast linear algebra routines
   SCALAPACK package :  Parallel linear algebra routines


Your calculation utilizes the atom-pairwise dispersion correction
with the zero-damping scheme (D30)
Cite in your paper:
S.Grimme, J.Antony, S.Ehrlich and H.Krieg, J.Chem.Phys., 132, (2010), 154104 
   

XCFun DFT library Copyright 2009-2010 Ulf Ekstrom and contributors.
See http://admol.org/xcfun for more information. This is free soft-
ware; see the source code for copying conditions. There is ABSOLUTELY
NO WARRANTY; not even for MERCHANTABILITY or FITNESS FOR A PARTICULAR
PURPOSE. For details see the documentation. Scientific users of this 
library should cite U. Ekstrom, L. Visscher, R. Bast, A. J. Thorvald-
sen and K. Ruud; J.Chem.Theor.Comp. 2010, DOI: 10.1021/ct100117s
XCFun Version 0.99 
----- Orbital basis set information -----
Your calculation utilizes the basis: def2-TZVP
   F. Weigend and R. Ahlrichs, Phys. Chem. Chem. Phys. 7, 3297 (2005).

================================================================================
                                        WARNINGS
                       Please study these warnings very carefully!
================================================================================


INFO   : the flag for use of LIBINT has been found!

Your calculation utilizes the atom-pairwise dispersion correction
with the zero-damping scheme (D30)
Cite in your paper:
S.Grimme, J.Antony, S.Ehrlich and H.Krieg, J.Chem.Phys., 132, (2010), 154104 
   

XCFun DFT library Copyright 2009-2010 Ulf Ekstrom and contributors.
See http://admol.org/xcfun for more information. This is free soft-
ware; see the source code for copying conditions. There is ABSOLUTELY
NO WARRANTY; not even for MERCHANTABILITY or FITNESS FOR A PARTICULAR
PURPOSE. For details see the documentation. Scientific users of this 
library should cite U. Ekstrom, L. Visscher, R. Bast, A. J. Thorvald-
sen and K. Ruud; J.Chem.Theor.Comp. 2010, DOI: 10.1021/ct100117s
XCFun Version 0.99 
----- Orbital basis set information -----
Your calculation utilizes the basis: def2-TZVP
   F. Weigend and R. Ahlrichs, Phys. Chem. Chem. Phys. 7, 3297 (2005).

================================================================================
                                        WARNINGS
                       Please study these warnings very carefully!
================================================================================


WARNING: MOInp is set but Guess=PModel. MOInp will be ignored!
         To read the initial guess from a file you must also specify
         'MORead' in the simple input or 'Guess MORead' in the %scf block


INFO   : the flag for use of LIBINT has been found!

Your calculation utilizes the atom-pairwise dispersion correction
with the zero-damping scheme (D30)
Cite in your paper:
S.Grimme, J.Antony, S.Ehrlich and H.Krieg, J.Chem.Phys., 132, (2010), 154104 
   

XCFun DFT library Copyright 2009-2010 Ulf Ekstrom and contributors.
See http://admol.org/xcfun for more information. This is free soft-
ware; see the source code for copying conditions. There is ABSOLUTELY
NO WARRANTY; not even for MERCHANTABILITY or FITNESS FOR A PARTICULAR
PURPOSE. For details see the documentation. Scientific users of this 
library should cite U. Ekstrom, L. Visscher, R. Bast, A. J. Thorvald-
sen and K. Ruud; J.Chem.Theor.Comp. 2010, DOI: 10.1021/ct100117s
XCFun Version 0.99 
----- Orbital basis set information -----
Your calculation utilizes the basis: def2-TZVP
   F. Weigend and R. Ahlrichs, Phys. Chem. Chem. Phys. 7, 3297 (2005).

================================================================================
                                        WARNINGS
                       Please study these warnings very carefully!
================================================================================


WARNING: MOInp is set but Guess=PModel. MOInp will be ignored!
         To read the initial guess from a file you must also specify
         'MORead' in the simple input or 'Guess MORead' in the %scf block


INFO   : the flag for use of LIBINT has been found!

================================================================================
                                       INPUT FILE
================================================================================
NAME = 19-75.in
|  1> #Run DFT-D3 single point of the dimer
|  2> ! wB97X-D3 def2-TZVP TIGHTSCF CHELPG PMODEL PAL8
|  3> 
|  4> %base "19-75_DFT_AB"
|  5> 
|  6> %scf
|  7> MaxIter 1000
|  8> end
|  9> 
| 10> * xyz 0 1
| 11>   C                      -4.824653            -10.147423           5.995258            
| 12>   O                      -3.540694            -9.794573            6.520729            
| 13>   H                      -3.402781            -8.849417            6.277806            
| 14>   H                      -5.412021            -9.291457            5.854448            
| 15>   H                      -4.591156            -10.588656           5.073679            
| 16>   H                      -5.447185            -10.807198           6.600243            
| 17>   C                      0.463578             -8.435352            4.585591            
| 18>   O                      -0.166651            -7.334462            5.118559            
| 19>   H                      -1.046295            -7.331275            4.800293            
| 20>   H                      1.138323             -8.842697            5.377777            
| 21>   H                      -0.148511            -9.206932            4.271902            
| 22>   H                      1.138313             -8.130747            3.739208            
| 23> *
| 24> 
| 25> #Run DFT-D3 single point of the molecule with dimer basis set
| 26> $new_job
| 27> %base "19-75_DFT_A"
| 28> ! wB97X-D3 def2-TZVP TIGHTSCF CHELPG PMODEL
| 29> 
| 30> %scf
| 31> MaxIter 1000
| 32> end
| 33> 
| 34> * xyz 0 1
| 35>   C                      -4.824653            -10.147423           5.995258            
| 36>   O                      -3.540694            -9.794573            6.520729            
| 37>   H                      -3.402781            -8.849417            6.277806            
| 38>   H                      -5.412021            -9.291457            5.854448            
| 39>   H                      -4.591156            -10.588656           5.073679            
| 40>   H                      -5.447185            -10.807198           6.600243            
| 41>   C                    : 0.463578             -8.435352            4.585591            
| 42>   O                    : -0.166651            -7.334462            5.118559            
| 43>   H                    : -1.046295            -7.331275            4.800293            
| 44>   H                    : 1.138323             -8.842697            5.377777            
| 45>   H                    : -0.148511            -9.206932            4.271902            
| 46>   H                    : 1.138313             -8.130747            3.739208            
| 47> *
| 48> 
| 49> #Run DFT-D3 single point of the particle with dimer basis set
| 50> $new_job
| 51> %base "19-75_DFT_B"
| 52> ! wB97X-D3 def2-TZVP TIGHTSCF CHELPG PMODEL
| 53> 
| 54> %scf
| 55> MaxIter 1000
| 56> end
| 57> 
| 58> * xyz 0 1
| 59>   C                    : -4.824653            -10.147423           5.995258            
| 60>   O                    : -3.540694            -9.794573            6.520729            
| 61>   H                    : -3.402781            -8.849417            6.277806            
| 62>   H                    : -5.412021            -9.291457            5.854448            
| 63>   H                    : -4.591156            -10.588656           5.073679            
| 64>   H                    : -5.447185            -10.807198           6.600243            
| 65>   C                      0.463578             -8.435352            4.585591            
| 66>   O                      -0.166651            -7.334462            5.118559            
| 67>   H                      -1.046295            -7.331275            4.800293            
| 68>   H                      1.138323             -8.842697            5.377777            
| 69>   H                      -0.148511            -9.206932            4.271902            
| 70>   H                      1.138313             -8.130747            3.739208            
| 71> *
| 72> 
| 73>                          ****END OF INPUT****
================================================================================


                 $$$$$$$$$$$$$$$$$$$$$$$$$$$$$$$$$$$$$$$$$$$$$$ 
                 $ THERE ARE  3 JOBS TO BE PROCESSED THIS RUN $
                 $$$$$$$$$$$$$$$$$$$$$$$$$$$$$$$$$$$$$$$$$$$$$$ 




                 $$$$$$$$$$$$$$$$  JOB NUMBER  1 $$$$$$$$$$$$$$


                       ****************************
                       * Single Point Calculation *
                       ****************************

---------------------------------
CARTESIAN COORDINATES (ANGSTROEM)
---------------------------------
  C     -4.824653  -10.147423    5.995258
  O     -3.540694   -9.794573    6.520729
  H     -3.402781   -8.849417    6.277806
  H     -5.412021   -9.291457    5.854448
  H     -4.591156  -10.588656    5.073679
  H     -5.447185  -10.807198    6.600243
  C      0.463578   -8.435352    4.585591
  O     -0.166651   -7.334462    5.118559
  H     -1.046295   -7.331275    4.800293
  H      1.138323   -8.842697    5.377777
  H     -0.148511   -9.206932    4.271902
  H      1.138313   -8.130747    3.739208

----------------------------
CARTESIAN COORDINATES (A.U.)
----------------------------
  NO LB      ZA    FRAG     MASS         X           Y           Z
   0 C     6.0000    0    12.011   -9.117273  -19.175850   11.329396
   1 O     8.0000    0    15.999   -6.690942  -18.509061   12.322392
   2 H     1.0000    0     1.008   -6.430324  -16.722975   11.863334
   3 H     1.0000    0     1.008  -10.227238  -17.558309   11.063303
   4 H     1.0000    0     1.008   -8.676027  -20.009660    9.587864
   5 H     1.0000    0     1.008  -10.293688  -20.422644   12.472652
   6 C     6.0000    0    12.011    0.876035  -15.940505    8.665511
   7 O     8.0000    0    15.999   -0.314925  -13.860125    9.672675
   8 H     1.0000    0     1.008   -1.977211  -13.854102    9.071239
   9 H     1.0000    0     1.008    2.151119  -16.710276   10.162526
  10 H     1.0000    0     1.008   -0.280645  -17.398580    8.072725
  11 H     1.0000    0     1.008    2.151100  -15.364885    7.066079

--------------------------------
INTERNAL COORDINATES (ANGSTROEM)
--------------------------------
 C      0   0   0     0.000000000000     0.00000000     0.00000000
 O      1   0   0     1.431493488641     0.00000000     0.00000000
 H      2   1   0     0.985571633030   105.74852594     0.00000000
 H      1   2   3     1.047619404498   110.53786789   337.62727005
 H      1   2   3     1.048100788350   103.10373908    95.77272752
 H      1   2   3     1.090346730116   117.23118896   218.17586348
 C      3   2   1     4.240727926587   108.63691027   228.13803832
 O      7   3   2     1.375936871214    60.39310995   201.67252638
 H      8   7   3     0.935455488231   107.55664102   313.65252791
 H      7   3   2     1.117483522315   103.41677725   303.89142571
 H      7   3   2     1.033629251251    60.54878638    46.61191130
 H      7   3   2     1.124462408860   150.91331861   122.86988784

---------------------------
INTERNAL COORDINATES (A.U.)
---------------------------
 C      0   0   0     0.000000000000     0.00000000     0.00000000
 O      1   0   0     2.705130656023     0.00000000     0.00000000
 H      2   1   0     1.862460471789   105.74852594     0.00000000
 H      1   2   3     1.979713767082   110.53786789   337.62727005
 H      1   2   3     1.980623450728   103.10373908    95.77272752
 H      1   2   3     2.060456710935   117.23118896   218.17586348
 C      3   2   1     8.013814389720   108.63691027   228.13803832
 O      7   3   2     2.600143864158    60.39310995   201.67252638
 H      8   7   3     1.767754683230   107.55664102   313.65252791
 H      7   3   2     2.111737816345   103.41677725   303.89142571
 H      7   3   2     1.953276208875    60.54878638    46.61191130
 H      7   3   2     2.124926000635   150.91331861   122.86988784

---------------------
BASIS SET INFORMATION
---------------------
There are 3 groups of distinct atoms

 Group   1 Type C   : 11s6p2d1f contracted to 5s3p2d1f pattern {62111/411/11/1}
 Group   2 Type O   : 11s6p2d1f contracted to 5s3p2d1f pattern {62111/411/11/1}
 Group   3 Type H   : 5s1p contracted to 3s1p pattern {311/1}

Atom   0C    basis set group =>   1
Atom   1O    basis set group =>   2
Atom   2H    basis set group =>   3
Atom   3H    basis set group =>   3
Atom   4H    basis set group =>   3
Atom   5H    basis set group =>   3
Atom   6C    basis set group =>   1
Atom   7O    basis set group =>   2
Atom   8H    basis set group =>   3
Atom   9H    basis set group =>   3
Atom  10H    basis set group =>   3
Atom  11H    basis set group =>   3


           ************************************************************
           *        Program running with 8 parallel MPI-processes     *
           *              working on a common directory               *
           ************************************************************
------------------------------------------------------------------------------
                           ORCA GTO INTEGRAL CALCULATION
------------------------------------------------------------------------------

                         BASIS SET STATISTICS AND STARTUP INFO

 # of primitive gaussian shells          ...  128
 # of primitive gaussian functions       ...  248
 # of contracted shells                  ...   76
 # of contracted basis functions         ...  172
 Highest angular momentum                ...    3
 Maximum contraction depth               ...    6
 Integral package used                   ... LIBINT
 Integral threshhold            Thresh   ...  2.500e-11
 Primitive cut-off              TCut     ...  2.500e-12


------------------------------ INTEGRAL EVALUATION ----------------------------


 * One electron integrals 
 Pre-screening matrix                    ... done
 Shell pair data                         ... done (   0.001 sec)



           ************************************************************
           *        Program running with 8 parallel MPI-processes     *
           *              working on a common directory               *
           ************************************************************
-------------------------------------------------------------------------------
                                 ORCA SCF
-------------------------------------------------------------------------------

------------
SCF SETTINGS
------------
Hamiltonian:
 Density Functional     Method          .... DFT(GTOs)
 Exchange Functional    Exchange        .... WB97X-D3
 Correlation Functional Correlation     .... WB97X-D3
 Gradients option       PostSCFGGA      .... off
 Hybrid DFT is turned on
   Fraction HF Exchange ScalHFX         ....  0.195728
   Scaling of DF-GGA-X  ScalDFX         ....  0.000000
   Scaling of DF-GGA-C  ScalDFC         ....  1.000000
   Scaling of DF-LDA-C  ScalLDAC        ....  1.000000
   Perturbative correction              ....  0.000000
   Density functional embedding theory  .... OFF
 Long-range corrected/Screened/Range-Separated Hybrid DFT is turned on
   Amount of maximum screened exact exchange              ....  0.804272
   Range separation parameter mu (erf(mu*r12)/r12)        ....  0.250000


General Settings:
 Integral files         IntName         .... 19-75_DFT_AB
 Hartree-Fock type      HFTyp           .... RHF
 Total Charge           Charge          ....    0
 Multiplicity           Mult            ....    1
 Number of Electrons    NEL             ....   36
 Basis Dimension        Dim             ....  172
 Nuclear Repulsion      ENuc            ....    115.8797226706 Eh

Convergence Acceleration:
 DIIS                   CNVDIIS         .... on
   Start iteration      DIISMaxIt       ....    12
   Startup error        DIISStart       ....  0.200000
   # of expansion vecs  DIISMaxEq       ....     5
   Bias factor          DIISBfac        ....   1.050
   Max. coefficient     DIISMaxC        ....  10.000
 Newton-Raphson         CNVNR           .... off
 SOSCF                  CNVSOSCF        .... on
   Start iteration      SOSCFMaxIt      ....   150
   Startup grad/error   SOSCFStart      ....  0.003300
 Level Shifting         CNVShift        .... on
   Level shift para.    LevelShift      ....    0.2500
   Turn off err/grad.   ShiftErr        ....    0.0010
 Zerner damping         CNVZerner       .... off
 Static damping         CNVDamp         .... on
   Fraction old density DampFac         ....    0.7000
   Max. Damping (<1)    DampMax         ....    0.9800
   Min. Damping (>=0)   DampMin         ....    0.0000
   Turn off err/grad.   DampErr         ....    0.1000
 Fernandez-Rico         CNVRico         .... off

SCF Procedure:
 Maximum # iterations   MaxIter         ....  1000
 SCF integral mode      SCFMode         .... Direct
   Integral package                     .... LIBINT
 Reset frequency        DirectResetFreq ....    20
 Integral Threshold     Thresh          ....  2.500e-11 Eh
 Primitive CutOff       TCut            ....  2.500e-12 Eh

Convergence Tolerance:
 Convergence Check Mode ConvCheckMode   .... Total+1el-Energy
 Convergence forced     ConvForced      .... 0
 Energy Change          TolE            ....  1.000e-08 Eh
 1-El. energy change                    ....  1.000e-05 Eh
 Orbital Gradient       TolG            ....  1.000e-05
 Orbital Rotation angle TolX            ....  1.000e-05
 DIIS Error             TolErr          ....  5.000e-07


Diagonalization of the overlap matrix:
Smallest eigenvalue                        ... 1.505e-03
Time for diagonalization                   ...    0.004 sec
Threshold for overlap eigenvalues          ... 1.000e-08
Number of eigenvalues below threshold      ... 0
Time for construction of square roots      ...    0.006 sec
Total time needed                          ...    0.011 sec

-------------------
DFT GRID GENERATION
-------------------

General Integration Accuracy     IntAcc      ...  4.340
Radial Grid Type                 RadialGrid  ... Gauss-Chebyshev
Angular Grid (max. acc.)         AngularGrid ... Lebedev-110
Angular grid pruning method      GridPruning ... 3 (G Style)
Weight generation scheme         WeightScheme... Becke
Basis function cutoff            BFCut       ...    1.0000e-11
Integration weight cutoff        WCut        ...    1.0000e-14
Grids for H and He will be reduced by one unit

# of grid points (after initial pruning)     ...  13096 (   0.0 sec)
# of grid points (after weights+screening)   ...  12579 (   0.0 sec)
nearest neighbour list constructed           ...    0.0 sec
Grid point re-assignment to atoms done       ...    0.0 sec
Grid point division into batches done        ...    0.0 sec
Reduced shell lists constructed in    0.0 sec

Total number of grid points                  ...    12579
Total number of batches                      ...      204
Average number of points per batch           ...       61
Average number of grid points per atom       ...     1048
Average number of shells per batch           ...    47.52 (62.52%)
Average number of basis functions per batch  ...   103.22 (60.01%)
Average number of large shells per batch     ...    38.15 (80.28%)
Average number of large basis fcns per batch ...    85.11 (82.45%)
Maximum spatial batch extension              ...  10.90, 14.58, 20.05 au
Average spatial batch extension              ...   0.32,  0.31,  0.40 au

Time for grid setup =    0.046 sec

------------------------------
INITIAL GUESS: MODEL POTENTIAL
------------------------------
Loading Hartree-Fock densities                     ... done
Calculating cut-offs                               ... done
Setting up the integral package                    ... done
Initializing the effective Hamiltonian             ... done
Starting the Coulomb interaction                   ... done (   0.0 sec)
Reading the grid                                   ... done
Mapping shells                                     ... done
Starting the XC term evaluation                    ... done (   0.0 sec)
  promolecular density results
     # of electrons  =     35.994902879
     EX              =    -28.884687136
     EC              =     -1.153783568
     EX+EC           =    -30.038470704
Transforming the Hamiltonian                       ... done (   0.0 sec)
Diagonalizing the Hamiltonian                      ... done (   0.0 sec)
Back transforming the eigenvectors                 ... done (   0.0 sec)
Now organizing SCF variables                       ... done
                      ------------------
                      INITIAL GUESS DONE (   0.2 sec)
                      ------------------
--------------
SCF ITERATIONS
--------------
ITER       Energy         Delta-E        Max-DP      RMS-DP      [F,P]     Damp
               ***  Starting incremental Fock matrix formation  ***
  0   -231.2794153685   0.000000000000 0.03677207  0.00108297  0.2487367 0.7000
  1   -231.3556515915  -0.076236222941 0.02177150  0.00077439  0.1252748 0.7000
                               ***Turning on DIIS***
  2   -231.3910692975  -0.035417706026 0.03266508  0.00140536  0.0517467 0.0000
  3   -231.4487209501  -0.057651652575 0.01780163  0.00050798  0.0599869 0.0000
  4   -231.4579855936  -0.009264643510 0.00434460  0.00009833  0.0065311 0.0000
                      *** Initiating the SOSCF procedure ***
                           *** Shutting down DIIS ***
                      *** Re-Reading the Fockian *** 
                      *** Removing any level shift *** 
ITER      Energy       Delta-E        Grad      Rot      Max-DP    RMS-DP
  5   -231.45817776  -0.0001921645  0.000436  0.000436  0.000864  0.000034
               *** Restarting incremental Fock matrix formation ***
  6   -231.45819501  -0.0000172480  0.000145  0.000168  0.000463  0.000020
  7   -231.45819656  -0.0000015539  0.000044  0.000098  0.000240  0.000010
  8   -231.45819666  -0.0000000991  0.000049  0.000028  0.000074  0.000002
  9   -231.45819673  -0.0000000680  0.000007  0.000009  0.000013  0.000001
 10   -231.45819673  -0.0000000014  0.000003  0.000003  0.000004  0.000000
                  ***Gradient check signals convergence***
              ***Rediagonalizing the Fockian in SOSCF/NRSCF***

               *****************************************************
               *                     SUCCESS                       *
               *           SCF CONVERGED AFTER  11 CYCLES          *
               *****************************************************

Setting up the final grid:

General Integration Accuracy     IntAcc      ...  4.670
Radial Grid Type                 RadialGrid  ... Gauss-Chebyshev
Angular Grid (max. acc.)         AngularGrid ... Lebedev-302
Angular grid pruning method      GridPruning ... 3 (G Style)
Weight generation scheme         WeightScheme... Becke
Basis function cutoff            BFCut       ...    1.0000e-11
Integration weight cutoff        WCut        ...    1.0000e-14
Grids for H and He will be reduced by one unit

# of grid points (after initial pruning)     ...  52000 (   0.0 sec)
# of grid points (after weights+screening)   ...  49533 (   0.0 sec)
nearest neighbour list constructed           ...    0.0 sec
Grid point re-assignment to atoms done       ...    0.0 sec
Grid point division into batches done        ...    0.2 sec
Reduced shell lists constructed in    0.2 sec

Total number of grid points                  ...    49533
Total number of batches                      ...      780
Average number of points per batch           ...       63
Average number of grid points per atom       ...     4128
Average number of shells per batch           ...    45.80 (60.26%)
Average number of basis functions per batch  ...    98.55 (57.29%)
Average number of large shells per batch     ...    36.77 (80.28%)
Average number of large basis fcns per batch ...    82.06 (83.27%)
Maximum spatial batch extension              ...  11.17, 16.41, 12.08 au
Average spatial batch extension              ...   0.21,  0.23,  0.22 au

Final grid set up in    0.2 sec
Final integration                            ... done (   0.1 sec)
Change in XC energy                          ...    -0.000032732
Integrated number of electrons               ...    36.000009958
Previous integrated no of electrons          ...    36.000401148

----------------
TOTAL SCF ENERGY
----------------

Total Energy       :         -231.45822946 Eh           -6298.29862 eV

Components:
Nuclear Repulsion  :          115.87972267 Eh            3153.24756 eV
Electronic Energy  :         -347.33795213 Eh           -9451.54618 eV
One Electron Energy:         -544.41971219 Eh          -14814.41352 eV
Two Electron Energy:          197.08176006 Eh            5362.86733 eV

Virial components:
Potential Energy   :         -462.17572575 Eh          -12576.44087 eV
Kinetic Energy     :          230.71749629 Eh            6278.14225 eV
Virial Ratio       :            2.00321056


DFT components:
N(Alpha)           :       18.000004979014 electrons
N(Beta)            :       18.000004979014 electrons
N(Total)           :       36.000009958027 electrons
E(XC)              :      -21.348750089529 Eh       
DFET-embed. en.    :        0.000000000000 Eh       

---------------
SCF CONVERGENCE
---------------

  Last Energy change         ...   -4.4864e-10  Tolerance :   1.0000e-08
  Last MAX-Density change    ...    1.1696e-06  Tolerance :   1.0000e-07
  Last RMS-Density change    ...    5.2243e-08  Tolerance :   5.0000e-09
  Last Orbital Gradient      ...    5.7539e-07  Tolerance :   1.0000e-05
  Last Orbital Rotation      ...    6.9426e-07  Tolerance :   1.0000e-05

             **** THE GBW FILE WAS UPDATED (19-75_DFT_AB.gbw) ****
             **** DENSITY FILE WAS UPDATED (19-75_DFT_AB.scfp.tmp) ****
             **** ENERGY FILE WAS UPDATED (19-75_DFT_AB.en.tmp) ****
----------------
ORBITAL ENERGIES
----------------

  NO   OCC          E(Eh)            E(eV) 
   0   2.0000     -19.234061      -523.3854 
   1   2.0000     -19.230178      -523.2798 
   2   2.0000     -10.307555      -280.4828 
   3   2.0000     -10.306755      -280.4611 
   4   2.0000      -1.155667       -31.4473 
   5   2.0000      -1.131139       -30.7799 
   6   2.0000      -0.804238       -21.8844 
   7   2.0000      -0.796763       -21.6810 
   8   2.0000      -0.629123       -17.1193 
   9   2.0000      -0.610821       -16.6213 
  10   2.0000      -0.554530       -15.0895 
  11   2.0000      -0.540432       -14.7059 
  12   2.0000      -0.530218       -14.4280 
  13   2.0000      -0.529315       -14.4034 
  14   2.0000      -0.439302       -11.9540 
  15   2.0000      -0.438073       -11.9206 
  16   2.0000      -0.376619       -10.2483 
  17   2.0000      -0.370120       -10.0715 
  18   0.0000       0.083077         2.2606 
  19   0.0000       0.138283         3.7629 
  20   0.0000       0.151679         4.1274 
  21   0.0000       0.164778         4.4838 
  22   0.0000       0.189935         5.1684 
  23   0.0000       0.204024         5.5518 
  24   0.0000       0.206815         5.6277 
  25   0.0000       0.209624         5.7041 
  26   0.0000       0.236512         6.4358 
  27   0.0000       0.248536         6.7630 
  28   0.0000       0.296054         8.0560 
  29   0.0000       0.299169         8.1408 
  30   0.0000       0.310458         8.4480 
  31   0.0000       0.321535         8.7494 
  32   0.0000       0.391971        10.6661 
  33   0.0000       0.419077        11.4037 
  34   0.0000       0.437370        11.9014 
  35   0.0000       0.456845        12.4314 
  36   0.0000       0.478774        13.0281 
  37   0.0000       0.499644        13.5960 
  38   0.0000       0.527271        14.3478 
  39   0.0000       0.545978        14.8568 
  40   0.0000       0.551881        15.0174 
  41   0.0000       0.558746        15.2043 
  42   0.0000       0.571371        15.5478 
  43   0.0000       0.580701        15.8017 
  44   0.0000       0.593494        16.1498 
  45   0.0000       0.612654        16.6712 
  46   0.0000       0.625047        17.0084 
  47   0.0000       0.646126        17.5820 
  48   0.0000       0.697574        18.9819 
  49   0.0000       0.718285        19.5455 
  50   0.0000       0.757022        20.5996 
  51   0.0000       0.763299        20.7704 
  52   0.0000       0.780598        21.2412 
  53   0.0000       0.816147        22.2085 
  54   0.0000       0.867461        23.6048 
  55   0.0000       0.870161        23.6783 
  56   0.0000       0.981673        26.7127 
  57   0.0000       0.983050        26.7501 
  58   0.0000       1.040626        28.3169 
  59   0.0000       1.070769        29.1371 
  60   0.0000       1.096221        29.8297 
  61   0.0000       1.128109        30.6974 
  62   0.0000       1.360728        37.0273 
  63   0.0000       1.371952        37.3327 
  64   0.0000       1.457521        39.6612 
  65   0.0000       1.469198        39.9789 
  66   0.0000       1.533297        41.7231 
  67   0.0000       1.558360        42.4051 
  68   0.0000       1.595422        43.4136 
  69   0.0000       1.616612        43.9902 
  70   0.0000       1.620922        44.1075 
  71   0.0000       1.634082        44.4656 
  72   0.0000       1.647248        44.8239 
  73   0.0000       1.649759        44.8922 
  74   0.0000       1.679176        45.6927 
  75   0.0000       1.704820        46.3905 
  76   0.0000       1.712189        46.5910 
  77   0.0000       1.726426        46.9784 
  78   0.0000       1.773197        48.2511 
  79   0.0000       1.787454        48.6391 
  80   0.0000       1.946243        52.9600 
  81   0.0000       1.954107        53.1740 
  82   0.0000       2.017170        54.8900 
  83   0.0000       2.031501        55.2800 
  84   0.0000       2.055971        55.9458 
  85   0.0000       2.069301        56.3085 
  86   0.0000       2.073004        56.4093 
  87   0.0000       2.079245        56.5791 
  88   0.0000       2.134212        58.0749 
  89   0.0000       2.161687        58.8225 
  90   0.0000       2.242413        61.0192 
  91   0.0000       2.275226        61.9120 
  92   0.0000       2.307056        62.7782 
  93   0.0000       2.312551        62.9277 
  94   0.0000       2.385143        64.9030 
  95   0.0000       2.399468        65.2929 
  96   0.0000       2.427085        66.0443 
  97   0.0000       2.432957        66.2041 
  98   0.0000       2.456029        66.8319 
  99   0.0000       2.467814        67.1526 
 100   0.0000       2.487358        67.6845 
 101   0.0000       2.520107        68.5756 
 102   0.0000       2.586528        70.3830 
 103   0.0000       2.595808        70.6355 
 104   0.0000       2.625666        71.4480 
 105   0.0000       2.657954        72.3266 
 106   0.0000       2.682135        72.9846 
 107   0.0000       2.694606        73.3240 
 108   0.0000       2.765437        75.2514 
 109   0.0000       2.877716        78.3066 
 110   0.0000       2.889247        78.6204 
 111   0.0000       2.897279        78.8390 
 112   0.0000       2.941095        80.0313 
 113   0.0000       2.948033        80.2201 
 114   0.0000       2.966489        80.7223 
 115   0.0000       2.967599        80.7525 
 116   0.0000       3.091932        84.1358 
 117   0.0000       3.110957        84.6535 
 118   0.0000       3.156973        85.9056 
 119   0.0000       3.195950        86.9662 
 120   0.0000       3.289231        89.5045 
 121   0.0000       3.301446        89.8369 
 122   0.0000       3.388332        92.2012 
 123   0.0000       3.448939        93.8504 
 124   0.0000       3.450799        93.9010 
 125   0.0000       3.463178        94.2379 
 126   0.0000       3.554563        96.7246 
 127   0.0000       3.604023        98.0704 
 128   0.0000       3.616906        98.4210 
 129   0.0000       3.626142        98.6723 
 130   0.0000       3.630690        98.7961 
 131   0.0000       3.656799        99.5066 
 132   0.0000       3.660924        99.6188 
 133   0.0000       3.708393       100.9105 
 134   0.0000       3.973824       108.1333 
 135   0.0000       4.024774       109.5197 
 136   0.0000       4.227458       115.0350 
 137   0.0000       4.262245       115.9816 
 138   0.0000       4.272331       116.2560 
 139   0.0000       4.374142       119.0265 
 140   0.0000       4.505925       122.6124 
 141   0.0000       4.510192       122.7286 
 142   0.0000       4.540615       123.5564 
 143   0.0000       4.576261       124.5264 
 144   0.0000       5.353641       145.6800 
 145   0.0000       5.367880       146.0674 
 146   0.0000       5.423971       147.5937 
 147   0.0000       5.447993       148.2474 
 148   0.0000       5.523311       150.2969 
 149   0.0000       5.595028       152.2485 
 150   0.0000       5.761761       156.7855 
 151   0.0000       5.813780       158.2010 
 152   0.0000       5.858272       159.4117 
 153   0.0000       5.889565       160.2632 
 154   0.0000       5.952875       161.9860 
 155   0.0000       6.049570       164.6172 
 156   0.0000       6.248641       170.0342 
 157   0.0000       6.420532       174.7116 
 158   0.0000       6.521606       177.4619 
 159   0.0000       6.533557       177.7871 
 160   0.0000       6.762478       184.0164 
 161   0.0000       6.785539       184.6439 
 162   0.0000       6.816292       185.4807 
 163   0.0000       6.838454       186.0838 
 164   0.0000       7.020381       191.0343 
 165   0.0000       7.040184       191.5731 
 166   0.0000       7.172745       195.1803 
 167   0.0000       7.244839       197.1421 
 168   0.0000      22.482724       611.7860 
 169   0.0000      22.523521       612.8962 
 170   0.0000      43.659365      1188.0317 
 171   0.0000      43.677763      1188.5323 

                    ********************************
                    * MULLIKEN POPULATION ANALYSIS *
                    ********************************

-----------------------
MULLIKEN ATOMIC CHARGES
-----------------------
   0 C :   -0.166302
   1 O :   -0.478365
   2 H :    0.312052
   3 H :    0.108470
   4 H :    0.109259
   5 H :    0.114670
   6 C :   -0.168861
   7 O :   -0.455589
   8 H :    0.303141
   9 H :    0.111231
  10 H :    0.116709
  11 H :    0.093585
Sum of atomic charges:   -0.0000000

--------------------------------
MULLIKEN REDUCED ORBITAL CHARGES
--------------------------------
  0 C s       :     3.214464  s :     3.214464
      pz      :     1.010476  p :     2.849139
      px      :     0.766143
      py      :     1.072520
      dz2     :     0.018363  d :     0.095412
      dxz     :     0.024127
      dyz     :     0.009850
      dx2y2   :     0.018816
      dxy     :     0.024256
      f0      :     0.000408  f :     0.007286
      f+1     :     0.002002
      f-1     :     0.000423
      f+2     :     0.000872
      f-2     :     0.001100
      f+3     :     0.001685
      f-3     :     0.000795
  1 O s       :     3.808821  s :     3.808821
      pz      :     1.807928  p :     4.638233
      px      :     1.449616
      py      :     1.380690
      dz2     :     0.003639  d :     0.029754
      dxz     :     0.006179
      dyz     :     0.004216
      dx2y2   :     0.012449
      dxy     :     0.003271
      f0      :     0.000238  f :     0.001557
      f+1     :     0.000208
      f-1     :     0.000191
      f+2     :     0.000286
      f-2     :     0.000106
      f+3     :     0.000135
      f-3     :     0.000393
  2 H s       :     0.642984  s :     0.642984
      pz      :     0.015616  p :     0.044964
      px      :     0.011452
      py      :     0.017896
  3 H s       :     0.870981  s :     0.870981
      pz      :     0.004760  p :     0.020549
      px      :     0.006434
      py      :     0.009354
  4 H s       :     0.869088  s :     0.869088
      pz      :     0.011106  p :     0.021653
      px      :     0.004307
      py      :     0.006240
  5 H s       :     0.864793  s :     0.864793
      pz      :     0.006233  p :     0.020537
      px      :     0.006496
      py      :     0.007808
  6 C s       :     3.216954  s :     3.216954
      pz      :     1.017019  p :     2.838641
      px      :     1.006999
      py      :     0.814623
      dz2     :     0.014222  d :     0.104613
      dxz     :     0.024438
      dyz     :     0.023022
      dx2y2   :     0.027392
      dxy     :     0.015539
      f0      :     0.000304  f :     0.008653
      f+1     :     0.000923
      f-1     :     0.001900
      f+2     :     0.000810
      f-2     :     0.001851
      f+3     :     0.001052
      f-3     :     0.001813
  7 O s       :     3.783293  s :     3.783293
      pz      :     1.750955  p :     4.638380
      px      :     1.323421
      py      :     1.564003
      dz2     :     0.003663  d :     0.032115
      dxz     :     0.006548
      dyz     :     0.006761
      dx2y2   :     0.010383
      dxy     :     0.004760
      f0      :     0.000275  f :     0.001801
      f+1     :     0.000155
      f-1     :     0.000184
      f+2     :     0.000376
      f-2     :     0.000191
      f+3     :     0.000460
      f-3     :     0.000161
  8 H s       :     0.645723  s :     0.645723
      pz      :     0.017624  p :     0.051137
      px      :     0.019340
      py      :     0.014173
  9 H s       :     0.869466  s :     0.869466
      pz      :     0.007746  p :     0.019303
      px      :     0.007161
      py      :     0.004396
 10 H s       :     0.862896  s :     0.862896
      pz      :     0.005478  p :     0.020396
      px      :     0.006270
      py      :     0.008648
 11 H s       :     0.887510  s :     0.887510
      pz      :     0.008578  p :     0.018905
      px      :     0.007123
      py      :     0.003205


                     *******************************
                     * LOEWDIN POPULATION ANALYSIS *
                     *******************************

----------------------
LOEWDIN ATOMIC CHARGES
----------------------
   0 C :   -0.361623
   1 O :   -0.103649
   2 H :    0.181145
   3 H :    0.088067
   4 H :    0.090892
   5 H :    0.105250
   6 C :   -0.410965
   7 O :   -0.035610
   8 H :    0.152631
   9 H :    0.111465
  10 H :    0.082253
  11 H :    0.100144

-------------------------------
LOEWDIN REDUCED ORBITAL CHARGES
-------------------------------
  0 C s       :     2.847235  s :     2.847235
      pz      :     1.063092  p :     3.061879
      px      :     0.894905
      py      :     1.103882
      dz2     :     0.073188  d :     0.397414
      dxz     :     0.093634
      dyz     :     0.049809
      dx2y2   :     0.077137
      dxy     :     0.103646
      f0      :     0.004821  f :     0.055094
      f+1     :     0.012686
      f-1     :     0.002694
      f+2     :     0.008194
      f-2     :     0.005917
      f+3     :     0.013590
      f-3     :     0.007192
  1 O s       :     3.394861  s :     3.394861
      pz      :     1.752424  p :     4.636748
      px      :     1.493734
      py      :     1.390590
      dz2     :     0.008301  d :     0.067683
      dxz     :     0.014812
      dyz     :     0.006361
      dx2y2   :     0.026281
      dxy     :     0.011927
      f0      :     0.000351  f :     0.004357
      f+1     :     0.000654
      f-1     :     0.000265
      f+2     :     0.000920
      f-2     :     0.000423
      f+3     :     0.000520
      f-3     :     0.001224
  2 H s       :     0.671495  s :     0.671495
      pz      :     0.044652  p :     0.147359
      px      :     0.029086
      py      :     0.073622
  3 H s       :     0.843856  s :     0.843856
      pz      :     0.016463  p :     0.068077
      px      :     0.021020
      py      :     0.030594
  4 H s       :     0.841357  s :     0.841357
      pz      :     0.033938  p :     0.067751
      px      :     0.013596
      py      :     0.020218
  5 H s       :     0.834195  s :     0.834195
      pz      :     0.019413  p :     0.060555
      px      :     0.018283
      py      :     0.022858
  6 C s       :     2.849777  s :     2.849777
      pz      :     1.071685  p :     3.058456
      px      :     1.042008
      py      :     0.944762
      dz2     :     0.052486  d :     0.438711
      dxz     :     0.103977
      dyz     :     0.094075
      dx2y2   :     0.096365
      dxy     :     0.091808
      f0      :     0.005229  f :     0.064022
      f+1     :     0.005180
      f-1     :     0.013397
      f+2     :     0.007458
      f-2     :     0.009263
      f+3     :     0.009724
      f-3     :     0.013770
  7 O s       :     3.335179  s :     3.335179
      pz      :     1.696557  p :     4.616438
      px      :     1.342358
      py      :     1.577523
      dz2     :     0.009449  d :     0.078566
      dxz     :     0.013136
      dyz     :     0.014445
      dx2y2   :     0.027801
      dxy     :     0.013734
      f0      :     0.000454  f :     0.005426
      f+1     :     0.000304
      f-1     :     0.000691
      f+2     :     0.001303
      f-2     :     0.000695
      f+3     :     0.001206
      f-3     :     0.000773
  8 H s       :     0.678204  s :     0.678204
      pz      :     0.054774  p :     0.169165
      px      :     0.074470
      py      :     0.039921
  9 H s       :     0.833513  s :     0.833513
      pz      :     0.023412  p :     0.055022
      px      :     0.019427
      py      :     0.012183
 10 H s       :     0.846893  s :     0.846893
      pz      :     0.019257  p :     0.070854
      px      :     0.022423
      py      :     0.029175
 11 H s       :     0.845226  s :     0.845226
      pz      :     0.024817  p :     0.054630
      px      :     0.019736
      py      :     0.010077


                      *****************************
                      * MAYER POPULATION ANALYSIS *
                      *****************************

  NA   - Mulliken gross atomic population
  ZA   - Total nuclear charge
  QA   - Mulliken gross atomic charge
  VA   - Mayer's total valence
  BVA  - Mayer's bonded valence
  FA   - Mayer's free valence

  ATOM       NA         ZA         QA         VA         BVA        FA
  0 C      6.1663     6.0000    -0.1663     3.9478     3.9478    -0.0000
  1 O      8.4784     8.0000    -0.4784     1.8712     1.8712     0.0000
  2 H      0.6879     1.0000     0.3121     0.9146     0.9146     0.0000
  3 H      0.8915     1.0000     0.1085     0.9596     0.9596    -0.0000
  4 H      0.8907     1.0000     0.1093     0.9588     0.9588     0.0000
  5 H      0.8853     1.0000     0.1147     0.9566     0.9566     0.0000
  6 C      6.1689     6.0000    -0.1689     3.9458     3.9458    -0.0000
  7 O      8.4556     8.0000    -0.4556     1.8985     1.8985    -0.0000
  8 H      0.6969     1.0000     0.3031     0.9235     0.9235     0.0000
  9 H      0.8888     1.0000     0.1112     0.9567     0.9567    -0.0000
 10 H      0.8833     1.0000     0.1167     0.9576     0.9576     0.0000
 11 H      0.9064     1.0000     0.0936     0.9563     0.9563     0.0000

  Mayer bond orders larger than 0.1
B(  0-C ,  1-O ) :   0.9937 B(  0-C ,  3-H ) :   0.9867 B(  0-C ,  4-H ) :   0.9866 
B(  0-C ,  5-H ) :   0.9697 B(  1-O ,  2-H ) :   0.8989 B(  6-C ,  7-O ) :   1.0047 
B(  6-C ,  9-H ) :   0.9776 B(  6-C , 10-H ) :   0.9772 B(  6-C , 11-H ) :   0.9779 
B(  7-O ,  8-H ) :   0.9102 

-------
TIMINGS
-------

Total SCF time: 0 days 0 hours 0 min 10 sec 

Total time                  ....      10.033 sec
Sum of individual times     ....       9.648 sec  ( 96.2%)

Fock matrix formation       ....       9.113 sec  ( 90.8%)
  XC integration            ....       1.612 sec  ( 17.7% of F)
    Basis function eval.    ....       0.060 sec  (  3.7% of XC)
    Density eval.           ....       0.058 sec  (  3.6% of XC)
    XC-Functional eval.     ....       0.097 sec  (  6.0% of XC)
    XC-Potential eval.      ....       0.061 sec  (  3.8% of XC)
Diagonalization             ....       0.048 sec  (  0.5%)
Density matrix formation    ....       0.005 sec  (  0.0%)
Population analysis         ....       0.016 sec  (  0.2%)
Initial guess               ....       0.115 sec  (  1.1%)
Orbital Transformation      ....       0.000 sec  (  0.0%)
Orbital Orthonormalization  ....       0.000 sec  (  0.0%)
DIIS solution               ....       0.029 sec  (  0.3%)
SOSCF solution              ....       0.030 sec  (  0.3%)
Grid generation             ....       0.293 sec  (  2.9%)


-------------------------------------------------------------------------------
                          DFT DISPERSION CORRECTION                            
                                                                               
                              DFTD3 V3.1  Rev 1                                
                              USING zero damping                               
-------------------------------------------------------------------------------
The omegaB97X-D3 functional is recognized. Fit by Chai et al.
Active option DFTDOPT                   ...         3   

molecular C6(AA) [au] = 834.702351 


            DFT-D V3
 parameters
 s6 scaling factor         :     1.0000 
 rs6 scaling factor        :     1.2810 
 s8 scaling factor         :     1.0000 
 rs8 scaling factor        :     1.0940 
 Damping factor alpha6     :    14.0000 
 Damping factor alpha8     :    16.0000 
 ad hoc parameters k1-k3   :    16.0000     1.3333    -4.0000 

 Edisp/kcal,au: -0.568479089416  -0.000905928998 
 E6   /kcal   :  -0.275431589 
 E8   /kcal   :  -0.293047501 
 % E8         :  51.549389633 

-------------------------   ----------------
Dispersion correction           -0.000905929
-------------------------   ----------------


-------------------------   --------------------
FINAL SINGLE POINT ENERGY      -231.459135389903
-------------------------   --------------------


                            ***************************************
                            *     ORCA property calculations      *
                            ***************************************

                                    ---------------------
                                    Active property flags
                                    ---------------------
   (+) Dipole Moment


------------------------------------------------------------------------------
                       ORCA ELECTRIC PROPERTIES CALCULATION
------------------------------------------------------------------------------

Dipole Moment Calculation                       ... on
Quadrupole Moment Calculation                   ... off
Polarizability Calculation                      ... off
GBWName                                         ... 19-75_DFT_AB.gbw
Electron density file                           ... 19-75_DFT_AB.scfp.tmp
The origin for moment calculation is the CENTER OF MASS  = (-3.821920, -16.834200 10.487056)

-------------
DIPOLE MOMENT
-------------
                                X             Y             Z
Electronic contribution:      0.65475       1.67006       1.49390
Nuclear contribution   :     -1.48814      -1.66183      -2.24432
                        -----------------------------------------
Total Dipole Moment    :     -0.83339       0.00824      -0.75042
                        -----------------------------------------
Magnitude (a.u.)       :      1.12149
Magnitude (Debye)      :      2.85060



--------------------
Rotational spectrum 
--------------------
 
Rotational constants in cm-1:     0.586173     0.040105     0.039225 
Rotational constants in MHz : 17573.018897  1202.308082  1175.945638 

 Dipole components along the rotational axes: 
x,y,z [a.u.] :     0.526211     0.009369    -0.990329 
x,y,z [Debye]:     1.337523     0.023814    -2.517215 

 
------------------------------------------------------------------------------
                      ORCA CHELPG CHARGES GENERATION
------------------------------------------------------------------------------

GBW file                           ... 19-75_DFT_AB.gbw

Reading the GBW file               ... done

Grid spacing                       ...     0.300000
Point Cut-Off                      ...     2.800000
Van-der-Waals Radii                ...        COSMO
Total charge                       ...            0


Number of points X direction       ...           40
Number of points Y direction       ...           30
Number of points Z direction       ...           28
Maximum number of possible points  ...        33600
Final number of points             ...        10844


CHELPG Charges            
--------------------------------
  0   C   :       0.183058
  1   O   :      -0.607089
  2   H   :       0.383204
  3   H   :      -0.010373
  4   H   :       0.014317
  5   H   :       0.038351
  6   C   :       0.130884
  7   O   :      -0.598543
  8   H   :       0.399368
  9   H   :       0.047448
 10   H   :       0.008924
 11   H   :       0.010450
--------------------------------
Total charge:    -0.000000
--------------------------------

CHELPG charges calculated...

Timings for individual parts in CHELPG calculation:
Grid generation                 ...        0.002 sec (=   0.000 min)
Potential calculation           ...        2.089 sec (=   0.035 min)
Fit to the potential            ...        0.004 sec (=   0.000 min)
------------------------------------------------------------------------------


Timings for individual modules:

Sum of individual times         ...       17.631 sec (=   0.294 min)
GTO integral calculation        ...        3.730 sec (=   0.062 min)  21.2 %
SCF iterations                  ...       11.457 sec (=   0.191 min)  65.0 %
CHELPG charge generation        ...        2.444 sec (=   0.041 min)  13.9 %


                 $$$$$$$$$$$$$$$$  JOB NUMBER  2 $$$$$$$$$$$$$$


                       ****************************
                       * Single Point Calculation *
                       ****************************

---------------------------------
CARTESIAN COORDINATES (ANGSTROEM)
---------------------------------
  C     -4.824653  -10.147423    5.995258
  O     -3.540694   -9.794573    6.520729
  H     -3.402781   -8.849417    6.277806
  H     -5.412021   -9.291457    5.854448
  H     -4.591156  -10.588656    5.073679
  H     -5.447185  -10.807198    6.600243
  C      0.463578   -8.435352    4.585591
  O     -0.166651   -7.334462    5.118559
  H     -1.046295   -7.331275    4.800293
  H      1.138323   -8.842697    5.377777
  H     -0.148511   -9.206932    4.271902
  H      1.138313   -8.130747    3.739208

----------------------------
CARTESIAN COORDINATES (A.U.)
----------------------------
  NO LB      ZA    FRAG     MASS         X           Y           Z
   0 C     6.0000    0    12.011   -9.117273  -19.175850   11.329396
   1 O     8.0000    0    15.999   -6.690942  -18.509061   12.322392
   2 H     1.0000    0     1.008   -6.430324  -16.722975   11.863334
   3 H     1.0000    0     1.008  -10.227238  -17.558309   11.063303
   4 H     1.0000    0     1.008   -8.676027  -20.009660    9.587864
   5 H     1.0000    0     1.008  -10.293688  -20.422644   12.472652
   6 C     0.0000    0     0.000    0.876035  -15.940505    8.665511
   7 O     0.0000    0     0.000   -0.314925  -13.860125    9.672675
   8 H     0.0000    0     0.000   -1.977211  -13.854102    9.071239
   9 H     0.0000    0     0.000    2.151119  -16.710276   10.162526
  10 H     0.0000    0     0.000   -0.280645  -17.398580    8.072725
  11 H     0.0000    0     0.000    2.151100  -15.364885    7.066079

--------------------------------
INTERNAL COORDINATES (ANGSTROEM)
--------------------------------
 C      0   0   0     0.000000000000     0.00000000     0.00000000
 O      1   0   0     1.431493488641     0.00000000     0.00000000
 H      2   1   0     0.985571633030   105.74852594     0.00000000
 H      1   2   3     1.047619404498   110.53786789   337.62727005
 H      1   2   3     1.048100788350   103.10373908    95.77272752
 H      1   2   3     1.090346730116   117.23118896   218.17586348
 C      3   2   1     4.240727926587   108.63691027   228.13803832
 O      7   3   2     1.375936871214    60.39310995   201.67252638
 H      8   7   3     0.935455488231   107.55664102   313.65252791
 H      7   3   2     1.117483522315   103.41677725   303.89142571
 H      7   3   2     1.033629251251    60.54878638    46.61191130
 H      7   3   2     1.124462408860   150.91331861   122.86988784

---------------------------
INTERNAL COORDINATES (A.U.)
---------------------------
 C      0   0   0     0.000000000000     0.00000000     0.00000000
 O      1   0   0     2.705130656023     0.00000000     0.00000000
 H      2   1   0     1.862460471789   105.74852594     0.00000000
 H      1   2   3     1.979713767082   110.53786789   337.62727005
 H      1   2   3     1.980623450728   103.10373908    95.77272752
 H      1   2   3     2.060456710935   117.23118896   218.17586348
 C      3   2   1     8.013814389720   108.63691027   228.13803832
 O      7   3   2     2.600143864158    60.39310995   201.67252638
 H      8   7   3     1.767754683230   107.55664102   313.65252791
 H      7   3   2     2.111737816345   103.41677725   303.89142571
 H      7   3   2     1.953276208875    60.54878638    46.61191130
 H      7   3   2     2.124926000635   150.91331861   122.86988784

---------------------
BASIS SET INFORMATION
---------------------
There are 3 groups of distinct atoms

 Group   1 Type C   : 11s6p2d1f contracted to 5s3p2d1f pattern {62111/411/11/1}
 Group   2 Type O   : 11s6p2d1f contracted to 5s3p2d1f pattern {62111/411/11/1}
 Group   3 Type H   : 5s1p contracted to 3s1p pattern {311/1}

Atom   0C    basis set group =>   1
Atom   1O    basis set group =>   2
Atom   2H    basis set group =>   3
Atom   3H    basis set group =>   3
Atom   4H    basis set group =>   3
Atom   5H    basis set group =>   3
Atom   6C    basis set group =>   1
Atom   7O    basis set group =>   2
Atom   8H    basis set group =>   3
Atom   9H    basis set group =>   3
Atom  10H    basis set group =>   3
Atom  11H    basis set group =>   3


           ************************************************************
           *        Program running with 8 parallel MPI-processes     *
           *              working on a common directory               *
           ************************************************************
------------------------------------------------------------------------------
                           ORCA GTO INTEGRAL CALCULATION
------------------------------------------------------------------------------

                         BASIS SET STATISTICS AND STARTUP INFO

 # of primitive gaussian shells          ...  128
 # of primitive gaussian functions       ...  248
 # of contracted shells                  ...   76
 # of contracted basis functions         ...  172
 Highest angular momentum                ...    3
 Maximum contraction depth               ...    6
 Integral package used                   ... LIBINT
 Integral threshhold            Thresh   ...  2.500e-11
 Primitive cut-off              TCut     ...  2.500e-12


------------------------------ INTEGRAL EVALUATION ----------------------------


 * One electron integrals 
 Pre-screening matrix                    ... done
 Shell pair data                         ... done (   0.001 sec)



           ************************************************************
           *        Program running with 8 parallel MPI-processes     *
           *              working on a common directory               *
           ************************************************************
-------------------------------------------------------------------------------
                                 ORCA SCF
-------------------------------------------------------------------------------

------------
SCF SETTINGS
------------
Hamiltonian:
 Density Functional     Method          .... DFT(GTOs)
 Exchange Functional    Exchange        .... WB97X-D3
 Correlation Functional Correlation     .... WB97X-D3
 Gradients option       PostSCFGGA      .... off
 Hybrid DFT is turned on
   Fraction HF Exchange ScalHFX         ....  0.195728
   Scaling of DF-GGA-X  ScalDFX         ....  0.000000
   Scaling of DF-GGA-C  ScalDFC         ....  1.000000
   Scaling of DF-LDA-C  ScalLDAC        ....  1.000000
   Perturbative correction              ....  0.000000
   Density functional embedding theory  .... OFF
 Long-range corrected/Screened/Range-Separated Hybrid DFT is turned on
   Amount of maximum screened exact exchange              ....  0.804272
   Range separation parameter mu (erf(mu*r12)/r12)        ....  0.250000


General Settings:
 Integral files         IntName         .... 19-75_DFT_A
 Hartree-Fock type      HFTyp           .... RHF
 Total Charge           Charge          ....    0
 Multiplicity           Mult            ....    1
 Number of Electrons    NEL             ....   18
 Basis Dimension        Dim             ....  172
 Nuclear Repulsion      ENuc            ....     40.4089178385 Eh

Convergence Acceleration:
 DIIS                   CNVDIIS         .... on
   Start iteration      DIISMaxIt       ....    12
   Startup error        DIISStart       ....  0.200000
   # of expansion vecs  DIISMaxEq       ....     5
   Bias factor          DIISBfac        ....   1.050
   Max. coefficient     DIISMaxC        ....  10.000
 Newton-Raphson         CNVNR           .... off
 SOSCF                  CNVSOSCF        .... on
   Start iteration      SOSCFMaxIt      ....   150
   Startup grad/error   SOSCFStart      ....  0.003300
 Level Shifting         CNVShift        .... on
   Level shift para.    LevelShift      ....    0.2500
   Turn off err/grad.   ShiftErr        ....    0.0010
 Zerner damping         CNVZerner       .... off
 Static damping         CNVDamp         .... on
   Fraction old density DampFac         ....    0.7000
   Max. Damping (<1)    DampMax         ....    0.9800
   Min. Damping (>=0)   DampMin         ....    0.0000
   Turn off err/grad.   DampErr         ....    0.1000
 Fernandez-Rico         CNVRico         .... off

SCF Procedure:
 Maximum # iterations   MaxIter         ....  1000
 SCF integral mode      SCFMode         .... Direct
   Integral package                     .... LIBINT
 Reset frequency        DirectResetFreq ....    20
 Integral Threshold     Thresh          ....  2.500e-11 Eh
 Primitive CutOff       TCut            ....  2.500e-12 Eh

Convergence Tolerance:
 Convergence Check Mode ConvCheckMode   .... Total+1el-Energy
 Convergence forced     ConvForced      .... 0
 Energy Change          TolE            ....  1.000e-08 Eh
 1-El. energy change                    ....  1.000e-05 Eh
 Orbital Gradient       TolG            ....  1.000e-05
 Orbital Rotation angle TolX            ....  1.000e-05
 DIIS Error             TolErr          ....  5.000e-07


Diagonalization of the overlap matrix:
Smallest eigenvalue                        ... 1.505e-03
Time for diagonalization                   ...    0.004 sec
Threshold for overlap eigenvalues          ... 1.000e-08
Number of eigenvalues below threshold      ... 0
Time for construction of square roots      ...    0.007 sec
Total time needed                          ...    0.011 sec

-------------------
DFT GRID GENERATION
-------------------

General Integration Accuracy     IntAcc      ...  4.340
Radial Grid Type                 RadialGrid  ... Gauss-Chebyshev
Angular Grid (max. acc.)         AngularGrid ... Lebedev-110
Angular grid pruning method      GridPruning ... 3 (G Style)
Weight generation scheme         WeightScheme... Becke
Basis function cutoff            BFCut       ...    1.0000e-11
Integration weight cutoff        WCut        ...    1.0000e-14
Grids for H and He will be reduced by one unit

# of grid points (after initial pruning)     ...  13096 (   0.0 sec)
# of grid points (after weights+screening)   ...  12579 (   0.0 sec)
nearest neighbour list constructed           ...    0.0 sec
Grid point re-assignment to atoms done       ...    0.0 sec
Grid point division into batches done        ...    0.0 sec
Reduced shell lists constructed in    0.0 sec

Total number of grid points                  ...    12579
Total number of batches                      ...      204
Average number of points per batch           ...       61
Average number of grid points per atom       ...     1048
Average number of shells per batch           ...    47.52 (62.52%)
Average number of basis functions per batch  ...   103.22 (60.01%)
Average number of large shells per batch     ...    38.15 (80.28%)
Average number of large basis fcns per batch ...    85.11 (82.45%)
Maximum spatial batch extension              ...  10.90, 14.58, 20.05 au
Average spatial batch extension              ...   0.32,  0.31,  0.40 au

Time for grid setup =    0.045 sec

------------------------------
INITIAL GUESS: MODEL POTENTIAL
------------------------------
Loading Hartree-Fock densities                     ... done
Calculating cut-offs                               ... done
Setting up the integral package                    ... done
Initializing the effective Hamiltonian             ... done
Starting the Coulomb interaction                   ... done (   0.0 sec)
Reading the grid                                   ... done
Mapping shells                                     ... done
Starting the XC term evaluation                    ... done (   0.0 sec)
  promolecular density results
     # of electrons  =     17.999009700
     EX              =    -14.435129077
     EC              =     -0.575900991
     EX+EC           =    -15.011030068
Transforming the Hamiltonian                       ... done (   0.0 sec)
Diagonalizing the Hamiltonian                      ... done (   0.0 sec)
Back transforming the eigenvectors                 ... done (   0.0 sec)
Now organizing SCF variables                       ... done
                      ------------------
                      INITIAL GUESS DONE (   0.1 sec)
                      ------------------
--------------
SCF ITERATIONS
--------------
ITER       Energy         Delta-E        Max-DP      RMS-DP      [F,P]     Damp
               ***  Starting incremental Fock matrix formation  ***
  0   -115.6393869577   0.000000000000 0.03546676  0.00076566  0.2484772 0.7000
  1   -115.6771052950  -0.037718337294 0.02171402  0.00054952  0.1251735 0.7000
                               ***Turning on DIIS***
  2   -115.6947014418  -0.017596146776 0.03256311  0.00100089  0.0513693 0.0000
  3   -115.7234494695  -0.028748027705 0.01764585  0.00036250  0.0584823 0.0000
  4   -115.7279906682  -0.004541198760 0.00418334  0.00007105  0.0063125 0.0000
                      *** Initiating the SOSCF procedure ***
                           *** Shutting down DIIS ***
                      *** Re-Reading the Fockian *** 
                      *** Removing any level shift *** 
ITER      Energy       Delta-E        Grad      Rot      Max-DP    RMS-DP
  5   -115.72809161  -0.0001009407  0.000431  0.000431  0.000795  0.000025
               *** Restarting incremental Fock matrix formation ***
  6   -115.72810069  -0.0000090850  0.000133  0.000165  0.000441  0.000015
  7   -115.72810153  -0.0000008328  0.000039  0.000090  0.000211  0.000007
  8   -115.72810160  -0.0000000683  0.000022  0.000019  0.000036  0.000001
  9   -115.72810160  -0.0000000076  0.000012  0.000009  0.000017  0.000001
                  ***Gradient check signals convergence***
              ***Rediagonalizing the Fockian in SOSCF/NRSCF***

               *****************************************************
               *                     SUCCESS                       *
               *           SCF CONVERGED AFTER  10 CYCLES          *
               *****************************************************

Setting up the final grid:

General Integration Accuracy     IntAcc      ...  4.670
Radial Grid Type                 RadialGrid  ... Gauss-Chebyshev
Angular Grid (max. acc.)         AngularGrid ... Lebedev-302
Angular grid pruning method      GridPruning ... 3 (G Style)
Weight generation scheme         WeightScheme... Becke
Basis function cutoff            BFCut       ...    1.0000e-11
Integration weight cutoff        WCut        ...    1.0000e-14
Grids for H and He will be reduced by one unit

# of grid points (after initial pruning)     ...  52000 (   0.0 sec)
# of grid points (after weights+screening)   ...  49533 (   0.0 sec)
nearest neighbour list constructed           ...    0.0 sec
Grid point re-assignment to atoms done       ...    0.0 sec
Grid point division into batches done        ...    0.2 sec
Reduced shell lists constructed in    0.2 sec

Total number of grid points                  ...    49533
Total number of batches                      ...      780
Average number of points per batch           ...       63
Average number of grid points per atom       ...     4128
Average number of shells per batch           ...    45.80 (60.26%)
Average number of basis functions per batch  ...    98.55 (57.29%)
Average number of large shells per batch     ...    36.77 (80.28%)
Average number of large basis fcns per batch ...    82.06 (83.27%)
Maximum spatial batch extension              ...  11.17, 16.41, 12.08 au
Average spatial batch extension              ...   0.21,  0.23,  0.22 au

Final grid set up in    0.3 sec
Final integration                            ... done (   0.1 sec)
Change in XC energy                          ...     0.000252217
Integrated number of electrons               ...    18.000020595
Previous integrated no of electrons          ...    18.000254992

----------------
TOTAL SCF ENERGY
----------------

Total Energy       :         -115.72784939 Eh           -3149.11488 eV

Components:
Nuclear Repulsion  :           40.40891784 Eh            1099.58256 eV
Electronic Energy  :         -156.13676723 Eh           -4248.69744 eV
One Electron Energy:         -237.24224607 Eh           -6455.68972 eV
Two Electron Energy:           81.10547885 Eh            2206.99228 eV

Virial components:
Potential Energy   :         -231.04817094 Eh           -6287.14036 eV
Kinetic Energy     :          115.32032156 Eh            3138.02548 eV
Virial Ratio       :            2.00353388


DFT components:
N(Alpha)           :        9.000010297287 electrons
N(Beta)            :        9.000010297287 electrons
N(Total)           :       18.000020594575 electrons
E(XC)              :      -10.667013493209 Eh       
DFET-embed. en.    :        0.000000000000 Eh       

---------------
SCF CONVERGENCE
---------------

  Last Energy change         ...   -2.3952e-09  Tolerance :   1.0000e-08
  Last MAX-Density change    ...    3.6620e-06  Tolerance :   1.0000e-07
  Last RMS-Density change    ...    1.0185e-07  Tolerance :   5.0000e-09
  Last Orbital Gradient      ...    1.7883e-06  Tolerance :   1.0000e-05
  Last Orbital Rotation      ...    1.9506e-06  Tolerance :   1.0000e-05

             **** THE GBW FILE WAS UPDATED (19-75_DFT_A.gbw) ****
             **** DENSITY FILE WAS UPDATED (19-75_DFT_A.scfp.tmp) ****
             **** ENERGY FILE WAS UPDATED (19-75_DFT_A.en.tmp) ****
----------------
ORBITAL ENERGIES
----------------

  NO   OCC          E(Eh)            E(eV) 
   0   2.0000     -19.229213      -523.2535 
   1   2.0000     -10.303336      -280.3680 
   2   2.0000      -1.126329       -30.6490 
   3   2.0000      -0.799925       -21.7671 
   4   2.0000      -0.606177       -16.4949 
   5   2.0000      -0.550065       -14.9680 
   6   2.0000      -0.525979       -14.3126 
   7   2.0000      -0.433798       -11.8042 
   8   2.0000      -0.371952       -10.1213 
   9   0.0000       0.081198         2.2095 
  10   0.0000       0.117859         3.2071 
  11   0.0000       0.152823         4.1585 
  12   0.0000       0.176384         4.7997 
  13   0.0000       0.193381         5.2622 
  14   0.0000       0.204358         5.5609 
  15   0.0000       0.210091         5.7169 
  16   0.0000       0.213939         5.8216 
  17   0.0000       0.243766         6.6332 
  18   0.0000       0.284742         7.7482 
  19   0.0000       0.298309         8.1174 
  20   0.0000       0.307522         8.3681 
  21   0.0000       0.337378         9.1805 
  22   0.0000       0.341769         9.3000 
  23   0.0000       0.344935         9.3862 
  24   0.0000       0.398753        10.8506 
  25   0.0000       0.439852        11.9690 
  26   0.0000       0.452614        12.3163 
  27   0.0000       0.490310        13.3420 
  28   0.0000       0.504151        13.7186 
  29   0.0000       0.543809        14.7978 
  30   0.0000       0.559257        15.2181 
  31   0.0000       0.568179        15.4609 
  32   0.0000       0.582128        15.8405 
  33   0.0000       0.604446        16.4478 
  34   0.0000       0.632758        17.2182 
  35   0.0000       0.649529        17.6746 
  36   0.0000       0.684158        18.6169 
  37   0.0000       0.719342        19.5743 
  38   0.0000       0.763989        20.7892 
  39   0.0000       0.775203        21.0943 
  40   0.0000       0.797826        21.7099 
  41   0.0000       0.820788        22.3348 
  42   0.0000       0.874458        23.7952 
  43   0.0000       0.915283        24.9061 
  44   0.0000       0.986749        26.8508 
  45   0.0000       1.044040        28.4098 
  46   0.0000       1.050842        28.5949 
  47   0.0000       1.099148        29.9093 
  48   0.0000       1.153046        31.3760 
  49   0.0000       1.165221        31.7073 
  50   0.0000       1.170135        31.8410 
  51   0.0000       1.202681        32.7266 
  52   0.0000       1.222864        33.2758 
  53   0.0000       1.356329        36.9076 
  54   0.0000       1.367592        37.2141 
  55   0.0000       1.391789        37.8725 
  56   0.0000       1.461621        39.7727 
  57   0.0000       1.468717        39.9658 
  58   0.0000       1.529078        41.6083 
  59   0.0000       1.537806        41.8458 
  60   0.0000       1.600104        43.5410 
  61   0.0000       1.625488        44.2318 
  62   0.0000       1.653453        44.9927 
  63   0.0000       1.715973        46.6940 
  64   0.0000       1.730586        47.0916 
  65   0.0000       1.791194        48.7409 
  66   0.0000       1.808896        49.2226 
  67   0.0000       1.930513        52.5319 
  68   0.0000       1.941557        52.8325 
  69   0.0000       1.954039        53.1721 
  70   0.0000       2.022862        55.0449 
  71   0.0000       2.062874        56.1337 
  72   0.0000       2.081254        56.6338 
  73   0.0000       2.118042        57.6349 
  74   0.0000       2.139250        58.2119 
  75   0.0000       2.202132        59.9231 
  76   0.0000       2.205066        60.0029 
  77   0.0000       2.236204        60.8502 
  78   0.0000       2.247967        61.1703 
  79   0.0000       2.315497        63.0079 
  80   0.0000       2.320849        63.1535 
  81   0.0000       2.394191        65.1492 
  82   0.0000       2.431718        66.1704 
  83   0.0000       2.472865        67.2901 
  84   0.0000       2.479225        67.4632 
  85   0.0000       2.492197        67.8161 
  86   0.0000       2.587101        70.3986 
  87   0.0000       2.615370        71.1678 
  88   0.0000       2.650370        72.1202 
  89   0.0000       2.662306        72.4450 
  90   0.0000       2.694278        73.3150 
  91   0.0000       2.697068        73.3909 
  92   0.0000       2.769157        75.3526 
  93   0.0000       2.842963        77.3610 
  94   0.0000       2.882720        78.4428 
  95   0.0000       2.917400        79.3865 
  96   0.0000       2.951155        80.3050 
  97   0.0000       2.971771        80.8660 
  98   0.0000       3.081121        83.8416 
  99   0.0000       3.096246        84.2531 
 100   0.0000       3.115742        84.7837 
 101   0.0000       3.160582        86.0038 
 102   0.0000       3.166196        86.1566 
 103   0.0000       3.231582        87.9358 
 104   0.0000       3.265558        88.8604 
 105   0.0000       3.307124        89.9914 
 106   0.0000       3.369318        91.6838 
 107   0.0000       3.431953        93.3882 
 108   0.0000       3.453294        93.9689 
 109   0.0000       3.467537        94.3565 
 110   0.0000       3.558888        96.8423 
 111   0.0000       3.616043        98.3975 
 112   0.0000       3.621287        98.5402 
 113   0.0000       3.630444        98.7894 
 114   0.0000       3.663025        99.6760 
 115   0.0000       3.682680       100.2108 
 116   0.0000       3.740499       101.7842 
 117   0.0000       3.978887       108.2710 
 118   0.0000       4.095180       111.4355 
 119   0.0000       4.156823       113.1129 
 120   0.0000       4.258907       115.8908 
 121   0.0000       4.265759       116.0772 
 122   0.0000       4.276996       116.3830 
 123   0.0000       4.378321       119.1402 
 124   0.0000       4.441269       120.8531 
 125   0.0000       4.509776       122.7172 
 126   0.0000       4.518053       122.9425 
 127   0.0000       4.538894       123.5096 
 128   0.0000       4.570779       124.3772 
 129   0.0000       4.582510       124.6964 
 130   0.0000       4.624951       125.8513 
 131   0.0000       5.023720       136.7024 
 132   0.0000       5.061337       137.7260 
 133   0.0000       5.081938       138.2866 
 134   0.0000       5.358293       145.8066 
 135   0.0000       5.374565       146.2493 
 136   0.0000       5.428674       147.7217 
 137   0.0000       5.509139       149.9113 
 138   0.0000       5.528289       150.4324 
 139   0.0000       5.719654       155.6397 
 140   0.0000       5.766477       156.9138 
 141   0.0000       5.818362       158.3257 
 142   0.0000       5.847796       159.1266 
 143   0.0000       5.957527       162.1125 
 144   0.0000       6.228401       169.4834 
 145   0.0000       6.253749       170.1732 
 146   0.0000       6.526484       177.5947 
 147   0.0000       6.635041       180.5486 
 148   0.0000       6.761554       183.9912 
 149   0.0000       6.767591       184.1555 
 150   0.0000       6.820851       185.6048 
 151   0.0000       6.893598       187.5843 
 152   0.0000       7.025162       191.1644 
 153   0.0000       7.177245       195.3028 
 154   0.0000       7.198124       195.8709 
 155   0.0000       7.337607       199.6664 
 156   0.0000       7.536153       205.0692 
 157   0.0000       8.273444       225.1319 
 158   0.0000       8.896979       242.0991 
 159   0.0000       9.339032       254.1280 
 160   0.0000       9.550221       259.8747 
 161   0.0000       9.574309       260.5302 
 162   0.0000       9.819442       267.2006 
 163   0.0000       9.887709       269.0582 
 164   0.0000       9.958804       270.9928 
[...]
  82   0.0000       2.431766        66.1717 
  83   0.0000       2.456107        66.8341 
  84   0.0000       2.481868        67.5351 
  85   0.0000       2.519660        68.5634 
  86   0.0000       2.594327        70.5952 
  87   0.0000       2.623090        71.3779 
  88   0.0000       2.625021        71.4305 
  89   0.0000       2.645249        71.9809 
  90   0.0000       2.683762        73.0289 
  91   0.0000       2.718953        73.9865 
  92   0.0000       2.770342        75.3848 
  93   0.0000       2.888286        78.5943 
  94   0.0000       2.897611        78.8480 
  95   0.0000       2.925151        79.5974 
  96   0.0000       2.942216        80.0618 
  97   0.0000       2.967189        80.7413 
  98   0.0000       3.093604        84.1813 
  99   0.0000       3.106157        84.5228 
 100   0.0000       3.109798        84.6219 
 101   0.0000       3.155675        85.8703 
 102   0.0000       3.195337        86.9496 
 103   0.0000       3.204869        87.2089 
 104   0.0000       3.265573        88.8607 
 105   0.0000       3.280305        89.2616 
 106   0.0000       3.289457        89.5107 
 107   0.0000       3.341217        90.9191 
 108   0.0000       3.387365        92.1749 
 109   0.0000       3.450532        93.8937 
 110   0.0000       3.602982        98.0421 
 111   0.0000       3.608055        98.1802 
 112   0.0000       3.630338        98.7865 
 113   0.0000       3.657769        99.5329 
 114   0.0000       3.697550       100.6155 
 115   0.0000       3.708046       100.9011 
 116   0.0000       3.799893       103.4004 
 117   0.0000       4.025651       109.5435 
 118   0.0000       4.059431       110.4627 
 119   0.0000       4.221805       114.8812 
 120   0.0000       4.223105       114.9165 
 121   0.0000       4.228410       115.0609 
 122   0.0000       4.267136       116.1147 
 123   0.0000       4.271722       116.2395 
 124   0.0000       4.378734       119.1514 
 125   0.0000       4.503121       122.5362 
 126   0.0000       4.510221       122.7294 
 127   0.0000       4.533024       123.3498 
 128   0.0000       4.541072       123.5688 
 129   0.0000       4.542971       123.6205 
 130   0.0000       4.594020       125.0096 
 131   0.0000       4.935337       134.2973 
 132   0.0000       5.093692       138.6064 
 133   0.0000       5.109895       139.0473 
 134   0.0000       5.298414       144.1772 
 135   0.0000       5.369144       146.1018 
 136   0.0000       5.446792       148.2147 
 137   0.0000       5.450337       148.3112 
 138   0.0000       5.596635       152.2922 
 139   0.0000       5.833906       158.7487 
 140   0.0000       5.859341       159.4408 
 141   0.0000       5.890492       160.2884 
 142   0.0000       6.050716       164.6484 
 143   0.0000       6.113929       166.3685 
 144   0.0000       6.221954       169.3080 
 145   0.0000       6.422453       174.7638 
 146   0.0000       6.534961       177.8253 
 147   0.0000       6.609346       179.8495 
 148   0.0000       6.699272       182.2965 
 149   0.0000       6.787126       184.6871 
 150   0.0000       6.802063       185.0936 
 151   0.0000       6.839761       186.1194 
 152   0.0000       7.037031       191.4873 
 153   0.0000       7.042153       191.6267 
 154   0.0000       7.225495       196.6157 
 155   0.0000       7.247009       197.2011 
 156   0.0000       7.393689       201.1925 
 157   0.0000       7.944989       216.1941 
 158   0.0000       8.865333       241.2380 
 159   0.0000       9.315418       253.4854 
 160   0.0000       9.527059       259.2445 
 161   0.0000       9.544260       259.7125 
 162   0.0000       9.792021       266.4544 
 163   0.0000       9.887901       269.0635 
 164   0.0000       9.918784       269.9038 
 165   0.0000      10.130063       275.6530 
 166   0.0000      11.157735       303.6174 
 167   0.0000      19.094753       519.5947 
 168   0.0000      22.522513       612.8687 
 169   0.0000      43.676887      1188.5085 
 170   0.0000      65.984297      1795.5240 
 171   0.0000     126.410122      3439.7943 

                    ********************************
                    * MULLIKEN POPULATION ANALYSIS *
                    ********************************

-----------------------
MULLIKEN ATOMIC CHARGES
-----------------------
   0 C :    0.000207
   1 O :    0.000175
   2 H :   -0.002028
   3 H :   -0.000001
   4 H :   -0.000020
   5 H :    0.000003
   6 C :   -0.169026
   7 O :   -0.456669
   8 H :    0.310969
   9 H :    0.108622
  10 H :    0.112682
  11 H :    0.095088
Sum of atomic charges:   -0.0000000

--------------------------------
MULLIKEN REDUCED ORBITAL CHARGES
--------------------------------
  0 C s       :    -0.000093  s :    -0.000093
      pz      :     0.000005  p :    -0.000112
      px      :    -0.000068
      py      :    -0.000050
      dz2     :    -0.000002  d :    -0.000001
      dxz     :     0.000000
      dyz     :    -0.000000
      dx2y2   :     0.000000
      dxy     :     0.000001
      f0      :    -0.000000  f :    -0.000000
      f+1     :    -0.000000
      f-1     :     0.000000
      f+2     :     0.000000
      f-2     :    -0.000000
      f+3     :     0.000000
      f-3     :    -0.000000
  1 O s       :    -0.000052  s :    -0.000052
      pz      :     0.000003  p :    -0.000124
      px      :    -0.000029
      py      :    -0.000098
      dz2     :     0.000000  d :     0.000001
      dxz     :    -0.000000
      dyz     :     0.000000
      dx2y2   :     0.000000
      dxy     :     0.000000
      f0      :    -0.000000  f :    -0.000000
      f+1     :    -0.000000
      f-1     :    -0.000000
      f+2     :    -0.000000
      f-2     :    -0.000000
      f+3     :    -0.000000
      f-3     :    -0.000000
  2 H s       :     0.002023  s :     0.002023
      pz      :     0.000000  p :     0.000005
      px      :     0.000001
      py      :     0.000004
  3 H s       :     0.000001  s :     0.000001
      pz      :    -0.000000  p :    -0.000000
      px      :    -0.000000
      py      :    -0.000000
  4 H s       :     0.000020  s :     0.000020
      pz      :    -0.000000  p :    -0.000000
      px      :    -0.000000
      py      :     0.000000
  5 H s       :    -0.000003  s :    -0.000003
      pz      :    -0.000000  p :     0.000000
      px      :     0.000000
      py      :     0.000000
  6 C s       :     3.217531  s :     3.217531
      pz      :     1.016768  p :     2.837381
      px      :     1.004935
      py      :     0.815679
      dz2     :     0.014391  d :     0.105451
      dxz     :     0.024739
      dyz     :     0.023025
      dx2y2   :     0.027762
      dxy     :     0.015533
      f0      :     0.000301  f :     0.008663
      f+1     :     0.000923
      f-1     :     0.001903
      f+2     :     0.000813
      f-2     :     0.001853
      f+3     :     0.001048
      f-3     :     0.001822
  7 O s       :     3.783724  s :     3.783724
      pz      :     1.750380  p :     4.639052
      px      :     1.328314
      py      :     1.560358
      dz2     :     0.003649  d :     0.032095
      dxz     :     0.006543
      dyz     :     0.006775
      dx2y2   :     0.010361
      dxy     :     0.004765
      f0      :     0.000275  f :     0.001799
      f+1     :     0.000155
      f-1     :     0.000184
      f+2     :     0.000375
      f-2     :     0.000191
      f+3     :     0.000459
      f-3     :     0.000160
  8 H s       :     0.638124  s :     0.638124
      pz      :     0.017435  p :     0.050907
      px      :     0.019433
      py      :     0.014039
  9 H s       :     0.872131  s :     0.872131
      pz      :     0.007727  p :     0.019247
      px      :     0.007145
      py      :     0.004376
 10 H s       :     0.866924  s :     0.866924
      pz      :     0.005501  p :     0.020393
      px      :     0.006275
      py      :     0.008618
 11 H s       :     0.885990  s :     0.885990
      pz      :     0.008592  p :     0.018922
      px      :     0.007110
      py      :     0.003220


                     *******************************
                     * LOEWDIN POPULATION ANALYSIS *
                     *******************************

----------------------
LOEWDIN ATOMIC CHARGES
----------------------
   0 C :   -0.000021
   1 O :   -0.000072
   2 H :   -0.001203
   3 H :   -0.000001
   4 H :   -0.000004
   5 H :   -0.000001
   6 C :   -0.412223
   7 O :   -0.034659
   8 H :    0.156224
   9 H :    0.110169
  10 H :    0.081127
  11 H :    0.100664

-------------------------------
LOEWDIN REDUCED ORBITAL CHARGES
-------------------------------
  0 C s       :     0.000005  s :     0.000005
      pz      :     0.000002  p :     0.000015
      px      :     0.000009
      py      :     0.000004
      dz2     :     0.000000  d :     0.000001
      dxz     :     0.000000
      dyz     :     0.000000
      dx2y2   :     0.000000
      dxy     :     0.000000
      f0      :     0.000000  f :     0.000000
      f+1     :     0.000000
      f-1     :     0.000000
      f+2     :     0.000000
      f-2     :     0.000000
      f+3     :     0.000000
      f-3     :     0.000000
  1 O s       :     0.000007  s :     0.000007
      pz      :     0.000007  p :     0.000065
      px      :     0.000039
      py      :     0.000019
      dz2     :     0.000000  d :     0.000000
      dxz     :     0.000000
      dyz     :     0.000000
      dx2y2   :     0.000000
      dxy     :     0.000000
      f0      :     0.000000  f :     0.000000
      f+1     :     0.000000
      f-1     :     0.000000
      f+2     :     0.000000
      f-2     :     0.000000
      f+3     :     0.000000
      f-3     :     0.000000
  2 H s       :     0.001198  s :     0.001198
      pz      :     0.000000  p :     0.000005
      px      :     0.000003
      py      :     0.000002
  3 H s       :     0.000001  s :     0.000001
      pz      :     0.000000  p :     0.000000
      px      :     0.000000
      py      :     0.000000
  4 H s       :     0.000004  s :     0.000004
      pz      :     0.000000  p :     0.000000
      px      :     0.000000
      py      :     0.000000
  5 H s       :     0.000001  s :     0.000001
      pz      :     0.000000  p :     0.000000
      px      :     0.000000
      py      :     0.000000
  6 C s       :     2.849723  s :     2.849723
      pz      :     1.071600  p :     3.058359
      px      :     1.041364
      py      :     0.945395
      dz2     :     0.052661  d :     0.440104
      dxz     :     0.104201
      dyz     :     0.094365
      dx2y2   :     0.096716
      dxy     :     0.092161
      f0      :     0.005216  f :     0.064036
      f+1     :     0.005186
      f-1     :     0.013415
      f+2     :     0.007462
      f-2     :     0.009245
      f+3     :     0.009717
      f-3     :     0.013796
  7 O s       :     3.334904  s :     3.334904
      pz      :     1.696003  p :     4.616070
      px      :     1.344166
      py      :     1.575901
      dz2     :     0.009394  d :     0.078275
      dxz     :     0.013069
      dyz     :     0.014459
      dx2y2   :     0.027585
      dxy     :     0.013768
      f0      :     0.000453  f :     0.005410
      f+1     :     0.000302
      f-1     :     0.000689
      f+2     :     0.001298
      f-2     :     0.000697
      f+3     :     0.001200
      f-3     :     0.000770
  8 H s       :     0.674663  s :     0.674663
      pz      :     0.054575  p :     0.169114
      px      :     0.074788
      py      :     0.039751
  9 H s       :     0.834892  s :     0.834892
      pz      :     0.023355  p :     0.054938
      px      :     0.019432
      py      :     0.012152
 10 H s       :     0.848159  s :     0.848159
      pz      :     0.019308  p :     0.070714
      px      :     0.022397
      py      :     0.029008
 11 H s       :     0.844696  s :     0.844696
      pz      :     0.024825  p :     0.054640
      px      :     0.019719
      py      :     0.010096


                      *****************************
                      * MAYER POPULATION ANALYSIS *
                      *****************************

  NA   - Mulliken gross atomic population
  ZA   - Total nuclear charge
  QA   - Mulliken gross atomic charge
  VA   - Mayer's total valence
  BVA  - Mayer's bonded valence
  FA   - Mayer's free valence

  ATOM       NA         ZA         QA         VA         BVA        FA
  0 C     -0.0002     0.0000     0.0002    -0.0004    -0.0004    -0.0000
  1 O     -0.0002     0.0000     0.0002    -0.0004    -0.0004    -0.0000
  2 H      0.0020     0.0000    -0.0020     0.0041     0.0041     0.0000
  3 H      0.0000     0.0000    -0.0000     0.0000     0.0000     0.0000
  4 H      0.0000     0.0000    -0.0000     0.0000     0.0000     0.0000
  5 H     -0.0000     0.0000     0.0000    -0.0000    -0.0000    -0.0000
  6 C      6.1690     6.0000    -0.1690     3.9536     3.9536    -0.0000
  7 O      8.4567     8.0000    -0.4567     1.8991     1.8991    -0.0000
  8 H      0.6890     1.0000     0.3110     0.9177     0.9177     0.0000
  9 H      0.8914     1.0000     0.1086     0.9559     0.9559    -0.0000
 10 H      0.8873     1.0000     0.1127     0.9544     0.9544     0.0000
 11 H      0.9049     1.0000     0.0951     0.9570     0.9570    -0.0000

  Mayer bond orders larger than 0.1
B(  6-C ,  7-O ) :   1.0101 B(  6-C ,  9-H ) :   0.9778 B(  6-C , 10-H ) :   0.9774 
B(  6-C , 11-H ) :   0.9784 B(  7-O ,  8-H ) :   0.9057 

-------
TIMINGS
-------

Total SCF time: 0 days 0 hours 0 min 7 sec 

Total time                  ....       7.979 sec
Sum of individual times     ....       7.639 sec  ( 95.7%)

Fock matrix formation       ....       7.133 sec  ( 89.4%)
  XC integration            ....       0.544 sec  (  7.6% of F)
    Basis function eval.    ....       0.060 sec  ( 11.0% of XC)
    Density eval.           ....       0.052 sec  (  9.6% of XC)
    XC-Functional eval.     ....       0.087 sec  ( 16.0% of XC)
    XC-Potential eval.      ....       0.058 sec  ( 10.6% of XC)
Diagonalization             ....       0.041 sec  (  0.5%)
Density matrix formation    ....       0.005 sec  (  0.1%)
Population analysis         ....       0.020 sec  (  0.2%)
Initial guess               ....       0.105 sec  (  1.3%)
Orbital Transformation      ....       0.000 sec  (  0.0%)
Orbital Orthonormalization  ....       0.000 sec  (  0.0%)
DIIS solution               ....       0.022 sec  (  0.3%)
SOSCF solution              ....       0.023 sec  (  0.3%)
Grid generation             ....       0.291 sec  (  3.6%)


-------------------------------------------------------------------------------
                          DFT DISPERSION CORRECTION                            
                                                                               
                              DFTD3 V3.1  Rev 1                                
                              USING zero damping                               
-------------------------------------------------------------------------------
The omegaB97X-D3 functional is recognized. Fit by Chai et al.
Active option DFTDOPT                   ...         3   

molecular C6(AA) [au] = 208.675164 


            DFT-D V3
 parameters
 s6 scaling factor         :     1.0000 
 rs6 scaling factor        :     1.2810 
 s8 scaling factor         :     1.0000 
 rs8 scaling factor        :     1.0940 
 Damping factor alpha6     :    14.0000 
 Damping factor alpha8     :    16.0000 
 ad hoc parameters k1-k3   :    16.0000     1.3333    -4.0000 

 Edisp/kcal,au: -0.144696986190  -0.000230589301 
 E6   /kcal   :  -0.027451140 
 E8   /kcal   :  -0.117245846 
 % E8         :  81.028533612 

-------------------------   ----------------
Dispersion correction           -0.000230589
-------------------------   ----------------


-------------------------   --------------------
FINAL SINGLE POINT ENERGY      -115.731216568921
-------------------------   --------------------


                            ***************************************
                            *     ORCA property calculations      *
                            ***************************************

                                    ---------------------
                                    Active property flags
                                    ---------------------
   (+) Dipole Moment


------------------------------------------------------------------------------
                       ORCA ELECTRIC PROPERTIES CALCULATION
------------------------------------------------------------------------------

Dipole Moment Calculation                       ... on
Quadrupole Moment Calculation                   ... off
Polarizability Calculation                      ... off
GBWName                                         ... 19-75_DFT_B.gbw
Electron density file                           ... 19-75_DFT_B.scfp.tmp
The origin for moment calculation is the CENTER OF MASS  = ( 0.235450, -14.888085  9.159295)

-------------
DIPOLE MOMENT
-------------
                                X             Y             Z
Electronic contribution:     -0.91644       1.43720       0.72120
Nuclear contribution   :      0.54307      -1.86635      -1.12027
                        -----------------------------------------
Total Dipole Moment    :     -0.37337      -0.42915      -0.39908
                        -----------------------------------------
Magnitude (a.u.)       :      0.69487
Magnitude (Debye)      :      1.76621



--------------------
Rotational spectrum 
--------------------
 
Rotational constants in cm-1:     4.370145     0.868008     0.840717 
Rotational constants in MHz : 131013.639020 26022.223373 25204.052367 

 Dipole components along the rotational axes: 
x,y,z [a.u.] :     0.286862     0.631738    -0.038148 
x,y,z [Debye]:     0.729145     1.605749    -0.096965 

 
------------------------------------------------------------------------------
                      ORCA CHELPG CHARGES GENERATION
------------------------------------------------------------------------------

GBW file                           ... 19-75_DFT_B.gbw

Reading the GBW file               ... done

Grid spacing                       ...     0.300000
Point Cut-Off                      ...     2.800000
Van-der-Waals Radii                ...        COSMO
Total charge                       ...            0


Number of points X direction       ...           40
Number of points Y direction       ...           30
Number of points Z direction       ...           28
Maximum number of possible points  ...        33600
Final number of points             ...         5899


CHELPG Charges            
--------------------------------
  0   C   :      -0.209719
  1   O   :       0.003006
  2   H   :       0.005682
  3   H   :       0.065676
  4   H   :       0.147467
  5   H   :      -0.013637
  6   C   :       0.142937
  7   O   :      -0.583452
  8   H   :       0.391269
  9   H   :       0.047965
 10   H   :      -0.004583
 11   H   :       0.007389
--------------------------------
Total charge:    -0.000000
--------------------------------

CHELPG charges calculated...

Timings for individual parts in CHELPG calculation:
Grid generation                 ...        0.001 sec (=   0.000 min)
Potential calculation           ...        1.074 sec (=   0.018 min)
Fit to the potential            ...        0.002 sec (=   0.000 min)
------------------------------------------------------------------------------


Timings for individual modules:

Sum of individual times         ...       39.618 sec (=   0.660 min)
GTO integral calculation        ...       21.960 sec (=   0.366 min)  55.4 %
SCF iterations                  ...       16.528 sec (=   0.275 min)  41.7 %
CHELPG charge generation        ...        1.131 sec (=   0.019 min)   2.9 %



                             ****ORCA TERMINATED NORMALLY****
TOTAL RUN TIME: 0 days 0 hours 2 minutes 22 seconds 172 msec
