LAMMPS data file via vdw_self_gen.py, on 2021-08-05 13:22:45.421241

5000 atoms
4 atom types
4500 bonds
4 bond types
7000 angles
5 angle types
7500 dihedrals
5 dihedral types

-38.3701125890349601  38.3701125890349601 xlo xhi
-38.3701125890349601  38.3701125890349601 ylo yhi
-38.3701125890349601  38.3701125890349601 zlo zhi

Masses

1  32.066000
2  1.007940
3  1.007940
4  12.011000

Atoms

1         0    4    0.0654860000000000   12.3719119452009316 -12.2050918947158795  30.2099903778256191 0 0 0
2         0    4    0.0654860000000000   13.5273263974664424 -12.9554518612046206  29.5598735292614521 0 0 0
3         0    1   -0.3481560000000000   12.3384306012515381 -12.5138109340747281  32.0021739053262735 0 0 0
4         0    3    0.0496050000000000   11.3984206397167220 -12.5083164144663765  29.7689800375061111 0 0 0
5         0    3    0.0496050000000000   12.4831991343569335 -11.1124001810553263  30.0456690285513375 0 0 0
6         0    2    0.1834600000000000   11.7382273075784056 -13.7783389638253695  31.8481958976794637 0 0 0
7         0    1   -0.3481560000000000   13.5800732136844751 -12.6213945527068692  27.7727063346156626 0 0 0
8         0    3    0.0496050000000000   13.4370744319382656 -14.0504341819931931  29.7241812435623025 0 0 0
9         0    3    0.0496050000000000   14.4926665244993700 -12.6329840475035322  30.0042731066317394 0 0 0
10        0    2    0.1834600000000000   12.5330451010900674 -13.5221522652373274  27.4981655648675414 0 0 0
11        1    4    0.0654860000000000  -3.8377787097052347  -30.5291369844256764  12.7829912253409859 0 0 0
12        1    4    0.0654860000000000  -4.8540022932675297  -29.4719025951893627  13.1955680388290038 0 0 0
13        1    1   -0.3481560000000000  -2.2627898344114001  -30.2757800341853454  13.6568164597932622 0 0 0
14        1    3    0.0496050000000000  -3.6556624780558984  -30.5040366074764364  11.6873981436054137 0 0 0
15        1    3    0.0496050000000000  -4.2163562623599100  -31.5430591714936455  13.0319939574490942 0 0 0
16        1    2    0.1834600000000000  -1.8708233068161402  -29.2286935355382091  12.8006876936629599 0 0 0
17        1    1   -0.3481560000000000  -6.4389546327621892  -29.7442391357235145  12.3458021982468473 0 0 0
18        1    3    0.0496050000000000  -4.4858970568354524  -28.4498614067206503  12.9630619763602102 0 0 0
19        1    3    0.0496050000000000  -5.0322931161478515  -29.5178222970308219  14.2907674725210825 0 0 0
20        1    2    0.1834600000000000  -5.9789007418994746  -29.1696772580438441  11.1452881309742935 0 0 0
21        2    4    0.0654860000000000  -3.7647349649394806   4.1155367813375126   20.6995556151770792 0 0 0
22        2    4    0.0654860000000000  -5.0431895057463496   4.2239900397327945   21.5208146671416500 0 0 0
23        2    1   -0.3481560000000000  -3.0094691579434407   2.4740889156101504   20.9082963797193777 0 0 0
24        2    3    0.0496050000000000  -3.0309689538358571   4.8954017952902174   20.9953909620537189 0 0 0
25        2    3    0.0496050000000000  -3.9874704473904603   4.2631625781777513   19.6216144969500128 0 0 0
26        2    2    0.1834600000000000  -2.4555082039063238   2.8061555627721071   22.1596330098253205 0 0 0
27        2    1   -0.3481560000000000  -5.8154299939465002   5.8541362117882478   21.2871243170684217 0 0 0
28        2    3    0.0496050000000000  -4.8396329472177158   4.0679286379470696   22.6017116518042229 0 0 0
29        2    3    0.0496050000000000  -5.7691207655427279   3.4449836220062404   21.2053295751146500 0 0 0
30        2    2    0.1834600000000000  -4.9179334917922244   6.4880742875989581   22.1678214864508689 0 0 0
31        3    4    0.0654860000000000  -12.7655000916337187 -4.5357543298522600   12.0307252678358907 0 0 0
32        3    4    0.0654860000000000  -13.2326571017801271 -4.3111732577387034   13.4632064099523916 0 0 0
33        3    1   -0.3481560000000000  -11.6618327046441550 -5.9785663608180419   11.9381942779134853 0 0 0
34        3    3    0.0496050000000000  -12.2333003376258578 -3.6431462541804280   11.6381252212498030 0 0 0
35        3    3    0.0496050000000000  -13.6369825319925244 -4.7193413659044010   11.3672678978867339 0 0 0
36        3    2    0.1834600000000000  -10.5575187388554781 -5.2588411501975045   12.4336442196445347 0 0 0
37        3    1   -0.3481560000000000  -14.3615680906203806 -2.8876992554836511   13.5505267270596246 0 0 0
38        3    3    0.0496050000000000  -12.3714605260925765 -4.1364791073937957   14.1428762834640072 0 0 0
39        3    3    0.0496050000000000  -13.7714476760521212 -5.2078407394071338   13.8361007388098436 0 0 0
40        3    2    0.1834600000000000  -13.3081074974862812 -1.9546166112851675   13.4997082529668333 0 0 0
41        4    4    0.0654860000000000  -12.3145326911772326 -12.7274759009984422  20.6676184616248193 0 0 0
42        4    4    0.0654860000000000  -13.5467134655238350 -12.9739264318219973  21.5288194995871507 0 0 0
43        4    1   -0.3481560000000000  -11.3622621655483655 -14.2634227676727594  20.4617099608972701 0 0 0
44        4    3    0.0496050000000000  -11.6605992668613148 -11.9498501709198273  21.1168287152724332 0 0 0
45        4    3    0.0496050000000000  -12.6155728108122318 -12.3654888327121526  19.6617846114469472 0 0 0
46        4    2    0.1834600000000000  -10.7785775601720850 -14.1603714002337639  21.7390811112352118 0 0 0
47        4    1   -0.3481560000000000  -14.5159553491144848 -11.4453034963798697  21.7083332481802493 0 0 0
48        4    3    0.0496050000000000  -13.2635330190494098 -13.3471671901113815  22.5361073909995788 0 0 0
49        4    3    0.0496050000000000  -14.1941275351488354 -13.7452116814281133  21.0604904247993154 0 0 0
50        4    2    0.1834600000000000  -13.6485014333754240 -10.9221574245049169  22.6865187372623431 0 0 0
51        5    4    0.0654860000000000  -21.2767499761297536 -4.7915405202873425   29.2345074243864289 0 0 0
52        5    4    0.0654860000000000  -21.8394994561741385 -3.7857809931649964   30.2307179186658317 0 0 0
53        5    1   -0.3481560000000000  -21.4168764093475374 -6.4833659317412753   29.8875323869815759 0 0 0
54        5    3    0.0496050000000000  -20.2113693611299503 -4.5756157616580539   29.0054633341035455 0 0 0
55        5    3    0.0496050000000000  -21.8378426230902285 -4.7387769683551326   28.2775578047541387 0 0 0
56        5    2    0.1834600000000000  -20.2952580256640331 -6.3323417289962345   30.7254752550629355 0 0 0
57        5    1   -0.3481560000000000  -21.7285227629555244 -2.0970181877281688   29.5643040426582857 0 0 0
58        5    3    0.0496050000000000  -21.2958048477288244 -3.8329702333996427   31.1983428839563928 0 0 0
59        5    3    0.0496050000000000  -22.9069832262697126 -4.0093491532800023   30.4401307035318283 0 0 0
60        5    2    0.1834600000000000  -20.3583854728156588 -1.9866989536502433   29.8701772717265364 0 0 0
61        6    4    0.0654860000000000   5.0529712811553580   29.9407364683276711  29.9790119379604043 0 0 0
62        6    4    0.0654860000000000   3.5554591515371561   29.8181550027667583  30.2302205336479304 0 0 0
63        6    1   -0.3481560000000000   5.5106803581815900   31.6762747539260303  29.6844622784289278 0 0 0
64        6    3    0.0496050000000000   5.3644771102555318   29.3278058795049574  29.1064291262903367 0 0 0
65        6    3    0.0496050000000000   5.6210866016636052   29.5742409943092888  30.8600837713133132 0 0 0
66        6    2    0.1834600000000000   5.0522498680208958   31.6487609009713537  28.3532715211793871 0 0 0
67        6    1   -0.3481560000000000   3.1026949716713954   28.0869672132127626  30.5563133552948365 0 0 0
68        6    3    0.0496050000000000   2.9715610651958473   30.1909408658256346  29.3617607187051810 0 0 0
69        6    3    0.0496050000000000   3.2630551643971950   30.4277225208052933  31.1112911240985461 0 0 0
70        6    2    0.1834600000000000   3.1392228601824823   27.7426044261777562  29.1913646589086326 0 0 0
71        7    4    0.0654860000000000  -12.7531895496954100  20.5251516870696200 -4.4163517983161071  0 0 0
72        7    4    0.0654860000000000  -12.4719448394851202  21.8816101692861373 -3.7826354961732682  0 0 0
73        7    1   -0.3481560000000000  -11.6279937754086706  20.2282422575725249 -5.8142536196551386  0 0 0
74        7    3    0.0496050000000000  -13.8033793089633079  20.4591961906482638 -4.7725426088666207  0 0 0
75        7    3    0.0496050000000000  -12.6055300098242551  19.7153467194121070 -3.6708492161326149  0 0 0
76        7    2    0.1834600000000000  -12.3710481702776907  21.0503166626361846 -6.6831887135517176  0 0 0
77        7    1   -0.3481560000000000  -13.5757099188389958  22.1648222120802068 -2.3649484072797606  0 0 0
78        7    3    0.0496050000000000  -12.6047306105939025  22.7030794470803485 -4.5186279483976737  0 0 0
79        7    3    0.0496050000000000  -11.4222816252183463  21.9267286235412442 -3.4227334292150773  0 0 0
80        7    2    0.1834600000000000  -14.6645674884775232  22.5127981919786855 -3.1873271946731170  0 0 0
81        8    4    0.0654860000000000  -12.5413551060907427  12.9323589226977784  29.0889242135750301 0 0 0
82        8    4    0.0654860000000000  -12.9841173303441462  13.1737109996246016  30.5264169406304724 0 0 0
83        8    1   -0.3481560000000000  -13.9745450207123305  12.9452310402561022  27.9690352819766623 0 0 0
84        8    3    0.0496050000000000  -12.0099996613695801  11.9617105117927238  28.9908242376695497 0 0 0
85        8    3    0.0496050000000000  -11.8378895622370610  13.7284619446609710  28.7653230200795242 0 0 0
86        8    2    0.1834600000000000  -14.3539586520862184  11.6351684381899450  28.3194145530463501 0 0 0
87        8    1   -0.3481560000000000  -11.5476266498350277  13.1925995698690937  31.6419799555805810 0 0 0
88        8    3    0.0496050000000000  -13.6974290997528669  12.3913016186271996  30.8627956041188831 0 0 0
89        8    3    0.0496050000000000  -13.5034296102536402  14.1519140004570634  30.6088285975582046 0 0 0
90        8    2    0.1834600000000000  -11.4500246041016194  11.7879182506076692  31.6606666215922310 0 0 0
91        9    4    0.0654860000000000  -13.5663429611142909  21.1623806749839822  12.6322719269477108 0 0 0
92        9    4    0.0654860000000000  -12.2102501290525893  21.8564106931826458  12.6352914086978529 0 0 0
93        9    1   -0.3481560000000000  -14.5972098490360036  21.7699217701784740  14.0021469281563924 0 0 0
94        9    3    0.0496050000000000  -13.4530214188764070  20.0608529578564969  12.7212408426695465 0 0 0
95        9    3    0.0496050000000000  -14.0984068986840256  21.3639666230745213  11.6785253163271392 0 0 0
96        9    2    0.1834600000000000  -13.9304995342725917  20.9752510271018160  14.9545019695595762 0 0 0
97        9    1   -0.3481560000000000  -11.1912578751367207  21.2721332444613580  11.2465445840479425 0 0 0
98        9    3    0.0496050000000000  -11.6686302204704582  21.6736666215712290  13.5878569991000866 0 0 0
99        9    3    0.0496050000000000  -12.3410877016889824  22.9546634739481838  12.5348902372535651 0 0 0
100       9    2    0.1834600000000000  -10.8436687084511636  20.0780450749466155  11.9071050840233514 0 0 0
101       10   4    0.0654860000000000   12.3567825090700421  3.7817517488090200  -4.7447197060150197  0 0 0
102       10   4    0.0654860000000000   13.4948268868813219  4.6553646289837012  -4.2325380172315956  0 0 0
103       10   1   -0.3481560000000000   11.1596603428204286  4.7787731390283739  -5.6834407020617181  0 0 0
104       10   3    0.0496050000000000   11.8323371893015707  3.2748119132664408  -3.9068117986570639  0 0 0
105       10   3    0.0496050000000000   12.7528891764925731  2.9893355660063206  -5.4144492235486403  0 0 0
106       10   2    0.1834600000000000   10.5565080566481093  5.2876051658443135  -4.5171295742868507  0 0 0
107       10   1   -0.3481560000000000   14.7083392234980721  3.6529282018294538  -3.3210271220727998  0 0 0
108       10   3    0.0496050000000000   13.1142807268426029  5.4608136310827984  -3.5687871225449324  0 0 0
109       10   3    0.0496050000000000   14.0146613121121959  5.1456542533803233  -5.0826828817422927  0 0 0
110       10   2    0.1834600000000000   13.9100898731162221  3.6064201840303083  -2.1618722841001761  0 0 0
111       11   4    0.0654860000000000   20.6293503044432782  29.8580304172430644  20.8940468598805467 0 0 0
112       11   4    0.0654860000000000   21.7631067260380142  30.2995496899729986  21.8107429168703959 0 0 0
113       11   1   -0.3481560000000000   19.3090228369520069  29.0549563402058162  21.8532953403478665 0 0 0
114       11   3    0.0496050000000000   20.9943224750817663  29.1548343811449904  20.1153099332003187 0 0 0
115       11   3    0.0496050000000000   20.1958731667692177  30.7358535249186708  20.3697514392018562 0 0 0
116       11   2    0.1834600000000000   20.0163073912318161  27.8411997908419480  21.9509065935593704 0 0 0
117       11   1   -0.3481560000000000   23.0688749861135278  31.1310470008286160  20.8557955012399638 0 0 0
118       11   3    0.0496050000000000   22.2013396476480942  29.4338527110620163  22.3517136852317542 0 0 0
119       11   3    0.0496050000000000   21.3836208989843470  31.0096264871910705  22.5756870228140407 0 0 0
120       11   2    0.1834600000000000   23.6054737280432470  29.9152586824182976  20.3900428689592168 0 0 0
121       12   4    0.0654860000000000  -3.6206981248676366   4.7506491516065026  -29.8734704644127227 0 0 0
122       12   4    0.0654860000000000  -4.9045441714743321   4.0928047189590702  -29.3839251818829617 0 0 0
123       12   1   -0.3481560000000000  -3.9996184609896410   6.1924018461133477  -30.9156406945840914 0 0 0
124       12   3    0.0496050000000000  -2.9991206707296962   4.0347816219841368  -30.4525176991351998 0 0 0
125       12   3    0.0496050000000000  -3.0120803496054704   5.0937856347354273  -29.0102188886940091 0 0 0
126       12   2    0.1834600000000000  -4.2965800935235139   5.3960584475679649  -32.0384208774320101 0 0 0
127       12   1   -0.3481560000000000  -4.5255280703304477   2.6701830023727977  -28.3158253081956666 0 0 0
128       12   3    0.0496050000000000  -5.5309191110752689   3.7529571776922324  -30.2361498053448727 0 0 0
129       12   3    0.0496050000000000  -5.5082983494305697   4.8181989409594692  -28.7985687508182444 0 0 0
130       12   2    0.1834600000000000  -4.2360710302345082   1.8316378902701129  -29.4094713553277316 0 0 0
131       13   4    0.0654860000000000   21.3102787181616833 -30.5179869596723350  30.2864588311335332 0 0 0
132       13   4    0.0654860000000000   21.1913104679842412 -29.5824758566667825  29.0900725706795527 0 0 0
133       13   1   -0.3481560000000000   19.7111477886943867 -30.6691584693873907  31.1398507030022209 0 0 0
134       13   3    0.0496050000000000   22.0748853785991308 -30.1539072089097253  31.0054464119715512 0 0 0
135       13   3    0.0496050000000000   21.6252965057557347 -31.5293419820185363  29.9528627615007288 0 0 0
136       13   2    0.1834600000000000   19.8599327843990778 -29.4318181389734193  31.7954697161372835 0 0 0
137       13   1   -0.3481560000000000   22.7824801280573794 -29.4562866183646648  28.2179495962089426 0 0 0
138       13   3    0.0496050000000000   20.8662211635586097 -28.5680461739716876  29.4053154740337490 0 0 0
139       13   3    0.0496050000000000   20.4314345706069425 -29.9663498553857579  28.3769194245793983 0 0 0
140       13   2    0.1834600000000000   23.3143046554881295 -28.5588377624772001  29.1638635365805499 0 0 0
141       14   4    0.0654860000000000   21.6372621365889231 -4.9939054458644589   4.3854314456995995  0 0 0
142       14   4    0.0654860000000000   20.6096073802564881 -3.8745768411606925   4.2772476711340301  0 0 0
143       14   1   -0.3481560000000000   22.2975471492786035 -5.0926960311999867   6.0773576746370388  0 0 0
144       14   3    0.0496050000000000   22.4764692433265942 -4.8376028630607406   3.6745014307826280  0 0 0
145       14   3    0.0496050000000000   21.1695725595115825 -5.9696517646560512   4.1353372509291750  0 0 0
146       14   2    0.1834600000000000   23.1631980054068976 -3.9991624150334522   5.8828912657174426  0 0 0
147       14   1   -0.3481560000000000   19.9259842415191919 -3.7964322265148089   2.5935327555426744  0 0 0
148       14   3    0.0496050000000000   21.0588523633246716 -2.8917733542742501   4.5349393016770385  0 0 0
149       14   3    0.0496050000000000   19.7732413287066500 -4.0517553325246300   4.9860901403138396  0 0 0
150       14   2    0.1834600000000000   21.0555577533857310 -3.1259021579720159   2.0861294958275960  0 0 0
151       15   4    0.0654860000000000   4.3399903101589201  -29.3886447208928665 -20.6544091796737170 0 0 0
152       15   4    0.0654860000000000   4.5848045531516162  -30.4888960873296071 -21.6791957280251353 0 0 0
153       15   1   -0.3481560000000000   3.1487773313443119  -29.9420367577391637 -19.3961885573030841 0 0 0
154       15   3    0.0496050000000000   3.9558032156629941  -28.4665251399740242 -21.1404300705918011 0 0 0
155       15   3    0.0496050000000000   5.2893303914775798  -29.1220410081311485 -20.1434909907789219 0 0 0
156       15   2    0.1834600000000000   2.0429937896088339  -29.7246927050782581 -20.2405751276604455 0 0 0
157       15   1   -0.3481560000000000   5.8000561444894823  -29.9470122162190222 -22.9193040029676851 0 0 0
158       15   3    0.0496050000000000   3.6421877724124045  -30.7754173050375393 -22.1925259546551317 0 0 0
159       15   3    0.0496050000000000   4.9783389961846494  -31.3987979578337537 -21.1786287851496269 0 0 0
160       15   2    0.1834600000000000   4.8511759277702495  -29.1801451275921195 -23.6225437644998060 0 0 0
161       16   4    0.0654860000000000   4.3650563380898850   4.9994748689668986   13.1048908497060417 0 0 0
162       16   4    0.0654860000000000   3.8984093520729113   3.5589331020556472   12.9382938484560235 0 0 0
163       16   1   -0.3481560000000000   3.1659523093580884   6.1485479371868266   12.3631827844466535 0 0 0
164       16   3    0.0496050000000000   5.3593763579682632   5.1555867618379594   12.6347022423650657 0 0 0
165       16   3    0.0496050000000000   4.4663944707099343   5.2477633303556281   14.1825944027382711 0 0 0
166       16   2    0.1834600000000000   3.6276741136569806   5.9034341533604753   11.0556214791866303 0 0 0
167       16   1   -0.3481560000000000   5.0816220786434316   2.4117835735997493   13.7079682579597844 0 0 0
168       16   3    0.0496050000000000   3.7814002986511874   3.2971368705243562   11.8650276467738109 0 0 0
169       16   3    0.0496050000000000   2.9091192186507948   3.4176328275963512   13.4227495228488145 0 0 0
170       16   2    0.1834600000000000   5.9784538944595669   2.4931650067771658   12.6253442623020504 0 0 0
171       17   4    0.0654860000000000  -21.0207209884546842  3.5409678980924539  -12.9947637223569590 0 0 0
172       17   4    0.0654860000000000  -21.3333364481087422  4.7871920327826913  -12.1763069225801690 0 0 0
173       17   1   -0.3481560000000000  -19.4729884704404057  3.7599189543609914  -13.9247823939652715 0 0 0
174       17   3    0.0496050000000000  -21.8437469302774616  3.3107133671519908  -13.7045043098733323 0 0 0
175       17   3    0.0496050000000000  -20.9052051185394099  2.6617986774001778  -12.3261239908235662 0 0 0
176       17   2    0.1834600000000000  -20.0935228712509897  4.5418166598713583  -14.9180383499646627 0 0 0
177       17   1   -0.3481560000000000  -22.8641962629300721  4.5562447176888510  -11.2215951029109320 0 0 0
178       17   3    0.0496050000000000  -21.4415159762462935  5.6790888636432726  -12.8297179401585257 0 0 0
179       17   3    0.0496050000000000  -20.5063425998956816  4.9966896163796983  -11.4652865476366888 0 0 0
180       17   2    0.1834600000000000  -23.6857164951616106  4.7990276448895690  -12.3392560165131222 0 0 0
181       18   4    0.0654860000000000   21.2851449365516814 -12.0047306023268359  4.0798818315691676  0 0 0
182       18   4    0.0654860000000000   20.9143926250314429 -13.4805890926360679  4.1510084277520924  0 0 0
183       18   1   -0.3481560000000000   22.3279111075680525 -11.6780506766646504  2.6258291569204055  0 0 0
184       18   3    0.0496050000000000   21.8246304367549335 -11.6824153158701272  4.9959543192505445  0 0 0
185       18   3    0.0496050000000000   20.3688494831280167 -11.3823704317901342  3.9996821709424086  0 0 0
186       18   2    0.1834600000000000   23.4857531455494595 -12.1796437647750295  3.2509615810058525  0 0 0
187       18   1   -0.3481560000000000   19.8454258618799280 -13.8015381731831468  5.5871995155163052  0 0 0
188       18   3    0.0496050000000000   21.8210897412094731 -14.1186779529787803  4.2208057838694861  0 0 0
189       18   3    0.0496050000000000   20.3669875288727376 -13.7833320947141313  3.2333743114005715  0 0 0
190       18   2    0.1834600000000000   20.9271072947596046 -13.7890271918443208  6.4887613340342067  0 0 0
191       19   4    0.0654860000000000   22.1089981090681320 -4.2523802987545753   29.9968918723258149 0 0 0
192       19   4    0.0654860000000000   20.6034888548481661 -4.1391254568552291   30.2000907375893988 0 0 0
193       19   1   -0.3481560000000000   22.8055549839793876 -2.6529958937235261   29.4819857771420857 0 0 0
194       19   3    0.0496050000000000   22.3535773568092075 -5.0203113929659082   29.2323113483665900 0 0 0
195       19   3    0.0496050000000000   22.6018818103240484 -4.5596740664579674   30.9434634347377262 0 0 0
196       19   2    0.1834600000000000   22.3777104517407999 -2.8114508972911159   28.1497600355059561 0 0 0
197       19   1   -0.3481560000000000   19.9117131345110607 -5.7303482788776661   30.7458007127841206 0 0 0
198       19   3    0.0496050000000000   20.0955477257851207 -3.8217655425737078   29.2644587483364766 0 0 0
199       19   3    0.0496050000000000   20.3771788156795424 -3.3757857105992315   30.9743350362815661 0 0 0
200       19   2    0.1834600000000000   19.9316409185598644 -6.2696208941621485   29.4451113227577643 0 0 0
201       20   4    0.0654860000000000  -20.7402854130056902  20.9848757009445741  13.2471473269192952 0 0 0
202       20   4    0.0654860000000000  -22.0475920216206589  21.6548366776896692  12.8436919101625069 0 0 0
203       20   1   -0.3481560000000000  -19.4750667689614083  22.2339118277952963  13.6311795892157228 0 0 0
204       20   3    0.0496050000000000  -20.3644888897720477  20.3206847062476434  12.4398383109972777 0 0 0
205       20   3    0.0496050000000000  -20.8942749728597335  20.3548450165815602  14.1486516683492383 0 0 0
206       20   2    0.1834600000000000  -19.2007321235436912  22.4815137740492936  12.2723498952751022 0 0 0
207       20   1   -0.3481560000000000  -23.3221278061008874  20.4061732938671838  12.4905044506168146 0 0 0
208       20   3    0.0496050000000000  -21.9087195954949223  22.2981560811285604  11.9487151956492301 0 0 0
209       20   3    0.0496050000000000  -22.4144875205117664  22.3059970405003334  13.6651150111876341 0 0 0
210       20   2    0.1834600000000000  -22.7995170494345523  20.1262980425012188  11.2131819384103348 0 0 0
211       21   4    0.0654860000000000  -4.1819754828057212  -13.2677716125181338  12.1446596628636385 0 0 0
212       21   4    0.0654860000000000  -4.7725876486396688  -12.2585886935077806  13.1210825518552276 0 0 0
213       21   1   -0.3481560000000000  -4.7219614464932835  -14.9531847072074502  12.5643596761710157 0 0 0
214       21   3    0.0496050000000000  -3.0717867543532411  -13.2280946329321374  12.1498823066352539 0 0 0
215       21   3    0.0496050000000000  -4.5159560325758203  -13.0413295039125110  11.1099894307483495 0 0 0
216       21   2    0.1834600000000000  -3.7898613898189364  -15.0704093996523518  13.6133745542489546 0 0 0
217       21   1   -0.3481560000000000  -4.2584347048281534  -10.5699373815363913  12.6823952024282693 0 0 0
218       21   3    0.0496050000000000  -4.4567339626547220  -12.4772931902097977  14.1634517365839585 0 0 0
219       21   3    0.0496050000000000  -5.8819352861121770  -12.3038568298572173  13.0954573461854178 0 0 0
220       21   2    0.1834600000000000  -2.9822257239793677  -10.7299093454494567  13.2557228290630711 0 0 0
221       22   4    0.0654860000000000  -13.5250206608987220 -21.3280579304708695 -13.1232567330397956 0 0 0
222       22   4    0.0654860000000000  -12.0078063960802552 -21.3048829726354398 -12.9883554781876196 0 0 0
223       22   1   -0.3481560000000000  -14.1851334160494105 -19.6347636731969857 -13.1964410938737213 0 0 0
224       22   3    0.0496050000000000  -13.9948263901442189 -21.8666829778028884 -12.2727943960402950 0 0 0
225       22   3    0.0496050000000000  -13.8194513755294413 -21.8583818907564513 -14.0535408707251932 0 0 0
226       22   2    0.1834600000000000  -14.0774067384119164 -19.4531494877774946 -11.8041783280210968 0 0 0
227       22   1   -0.3481560000000000  -11.3448496799100216 -22.9981470898088887 -12.9472687944860620 0 0 0
228       22   3    0.0496050000000000  -11.6954978258503441 -20.7680009677175192 -12.0672964166414758 0 0 0
229       22   3    0.0496050000000000  -11.5539885110364615 -20.7727801651198440 -13.8510686202855045 0 0 0
230       22   2    0.1834600000000000  -11.6963943028724291 -23.1824450060189733 -11.5961745654824622 0 0 0
231       23   4    0.0654860000000000  -29.7490515164997547 -21.5785276419275149 -3.5057710392255101  0 0 0
232       23   4    0.0654860000000000  -29.4397656604469269 -21.2358049667384918 -4.9575141224730093  0 0 0
233       23   1   -0.3481560000000000  -30.3682197809849441 -23.2834285461124253 -3.3705164309347126  0 0 0
234       23   3    0.0496050000000000  -30.5027910803136173 -20.8815505586936752 -3.0812475806410626  0 0 0
235       23   3    0.0496050000000000  -28.8312930546133579 -21.4899369742214859 -2.8867131868148355  0 0 0
236       23   2    0.1834600000000000  -31.6591931368891970 -22.9280790780966761 -3.8065197663878187  0 0 0
237       23   1   -0.3481560000000000  -28.7905257552159100 -19.5418273215206675 -5.0889309271742489  0 0 0
238       23   3    0.0496050000000000  -30.3458587551913510 -21.3299488965922492 -5.5933293072776529  0 0 0
239       23   3    0.0496050000000000  -28.6775794418499395 -21.9345542138001406 -5.3627050577265116  0 0 0
240       23   2    0.1834600000000000  -30.0699308438225010 -18.9636339636020423 -4.9802110136057305  0 0 0
241       24   4    0.0654860000000000  -30.0666518823630149 -30.4890287974748873  20.8869362937187155 0 0 0
242       24   4    0.0654860000000000  -29.7219738068494657 -29.6036545407234755  22.0777276282279011 0 0 0
243       24   1   -0.3481560000000000  -28.5872109104012466 -31.3652749143514527  20.2938111846231841 0 0 0
244       24   3    0.0496050000000000  -30.4956346200247346 -29.8917263676075784  20.0542753966166423 0 0 0
245       24   3    0.0496050000000000  -30.8270225612563671 -31.2444029128160601  21.1778106685814720 0 0 0
246       24   2    0.1834600000000000  -28.1003723884715093 -30.2343091654290035  19.6105183579891289 0 0 0
247       24   1   -0.3481560000000000  -31.2075639986505458 -28.7519202042758906  22.6908454763946352 0 0 0
248       24   3    0.0496050000000000  -28.9537858145344273 -28.8483665180316109  21.8065156514621030 0 0 0
249       24   3    0.0496050000000000  -29.3049101953089206 -30.2172822112537602  22.9040913871067211 0 0 0
250       24   2    0.1834600000000000  -31.1690828479672568 -27.7882433938637803  21.6647601165848265 0 0 0
251       25   4    0.0654860000000000   20.7037430936022133 -21.8417116615580582  21.3189710940580603 0 0 0
252       25   4    0.0654860000000000   21.8984314459425917 -21.0243927803062682  21.7937174892329679 0 0 0
253       25   1   -0.3481560000000000   21.2543617177939232 -23.4217564341058129  20.6057895678406666 0 0 0
254       25   3    0.0496050000000000   20.1131149632143043 -21.2848630744401142  20.5605525986881226 0 0 0
255       25   3    0.0496050000000000   20.0255376755587271 -22.0603053064891874  22.1708019192411925 0 0 0
256       25   2    0.1834600000000000   21.6289049591129405 -22.8258521833962789  19.3861175451359706 0 0 0
257       25   1   -0.3481560000000000   21.3459159595570682 -19.4584005480144882  22.5358347706015891 0 0 0
258       25   3    0.0496050000000000   22.5932906584525703 -20.8058734965808760  20.9549393764223382 0 0 0
259       25   3    0.0496050000000000   22.4711366471500860 -21.5905869412754043  22.5584337507929931 0 0 0
260       25   2    0.1834600000000000   21.1328550409209157 -18.8535497351388770  21.2821340492914253 0 0 0
261       26   4    0.0654860000000000   22.0961183697320251 -12.6593451723757902 -29.6796050442934423 0 0 0
262       26   4    0.0654860000000000   20.8383768385888857 -13.1794273623768863 -30.3639114881337662 0 0 0
263       26   1   -0.3481560000000000   22.6498282646306848 -13.8207614358440427 -28.3939659591910996 0 0 0
264       26   3    0.0496050000000000   21.9198385266841669 -11.6632477314502871 -29.2204363861550007 0 0 0
265       26   3    0.0496050000000000   22.9151576920852058 -12.5415895882602477 -30.4203274864057640 0 0 0
266       26   2    0.1834600000000000   21.6822068035570048 -13.3773126171052521 -27.4719864519194772 0 0 0
267       26   1   -0.3481560000000000   20.3028526002644369 -12.0336286336870959 -31.6710848343659528 0 0 0
268       26   3    0.0496050000000000   20.0113746278305946 -13.3133058143623124 -29.6343413211210986 0 0 0
269       26   3    0.0496050000000000   21.0347970915922033 -14.1698592266676844 -30.8263202277868658 0 0 0
270       26   2    0.1834600000000000   19.7167413463401076 -11.1418977146536378 -30.7522298264550251 0 0 0
271       27   4    0.0654860000000000   21.3542651783459085  4.4266411290375691  -3.4738591228765361  0 0 0