
                                 *****************
                                 * O   R   C   A *
                                 *****************

           --- An Ab Initio, DFT and Semiempirical electronic structure package ---

                  #######################################################
                  #                        -***-                        #
                  #          Department of theory and spectroscopy      #
                  #               Directorship: Frank Neese             #
                  #        Max Planck Institute fuer Kohlenforschung    #
                  #                Kaiser Wilhelm Platz 1               #
                  #                 D-45470 Muelheim/Ruhr               #
                  #                      Germany                        #
                  #                                                     #
                  #                  All rights reserved                #
                  #                        -***-                        #
                  #######################################################


                         Program Version 4.1.2  - RELEASE  -


 With contributions from (in alphabetic order):
   Daniel Aravena         : Magnetic Properties
   Michael Atanasov       : Ab Initio Ligand Field Theory
   Alexander A. Auer      : GIAO ZORA
   Ute Becker             : Parallelization
   Giovanni Bistoni       : ED, Open-shell LED
   Martin Brehm           : Molecular dynamics
   Dmytro Bykov           : SCF Hessian
   Vijay G. Chilkuri      : MRCI spin determinant printing
   Dipayan Datta          : RHF DLPNO-CCSD density
   Achintya Kumar Dutta   : EOM-CC, STEOM-CC
   Dmitry Ganyushin       : Spin-Orbit,Spin-Spin,Magnetic field MRCI
   Miquel Garcia          : C-PCM Hessian
   Yang Guo               : DLPNO-NEVPT2, CIM, IAO-localization
   Andreas Hansen         : Spin unrestricted coupled pair/coupled cluster methods
   Benjamin Helmich-Paris : CASSCF linear response (MC-RPA)
   Lee Huntington         : MR-EOM, pCC
   Robert Izsak           : Overlap fitted RIJCOSX, COSX-SCS-MP3, EOM
   Christian Kollmar      : KDIIS, OOCD, Brueckner-CCSD(T), CCSD density
   Simone Kossmann        : Meta GGA functionals, TD-DFT gradient, OOMP2, MP2 Hessian
   Martin Krupicka        : AUTO-CI
   Lucas Lang             : DCDCAS
   Dagmar Lenk            : GEPOL surface, SMD
   Dimitrios Liakos       : Extrapolation schemes; parallel MDCI
   Dimitrios Manganas     : ROCIS; embedding schemes
   Dimitrios Pantazis     : SARC Basis sets
   Taras Petrenko         : DFT Hessian,TD-DFT gradient, ASA, ECA, R-Raman, ABS, FL, XAS/XES, NRVS
   Peter Pinski           : DLPNO-MP2, DLPNO-MP2 Gradient
   Christoph Reimann      : Effective Core Potentials
   Marius Retegan         : Local ZFS, SOC
   Christoph Riplinger    : Optimizer, TS searches, QM/MM, DLPNO-CCSD(T), (RO)-DLPNO pert. Triples
   Tobias Risthaus        : Range-separated hybrids, TD-DFT gradient, RPA, STAB
   Michael Roemelt        : Restricted open shell CIS
   Masaaki Saitow         : Open-shell DLPNO
   Barbara Sandhoefer     : DKH picture change effects
   Avijit Sen             : IP-ROCIS
   Kantharuban Sivalingam : CASSCF convergence, NEVPT2, FIC-MRCI
   Bernardo de Souza      : ESD, SOC TD-DFT
   Georgi Stoychev        : AutoAux, RI-MP2 NMR
   Willem Van den Heuvel  : Paramagnetic NMR
   Boris Wezisla          : Elementary symmetry handling
   Frank Wennmohs         : Technical directorship


 We gratefully acknowledge several colleagues who have allowed us to
 interface, adapt or use parts of their codes:
   Stefan Grimme, W. Hujo, H. Kruse,             : VdW corrections, initial TS optimization,
                  C. Bannwarth                     DFT functionals, gCP, sTDA/sTD-DF
   Ed Valeev                                     : LibInt (2-el integral package), F12 methods
   Garnet Chan, S. Sharma, J. Yang, R. Olivares  : DMRG
   Ulf Ekstrom                                   : XCFun DFT Library
   Mihaly Kallay                                 : mrcc  (arbitrary order and MRCC methods)
   Andreas Klamt, Michael Diedenhofen            : otool_cosmo (COSMO solvation model)
   Jiri Pittner, Ondrej Demel                    : Mk-CCSD
   Frank Weinhold                                : gennbo (NPA and NBO analysis)
   Christopher J. Cramer and Donald G. Truhlar   : smd solvation model
   Lars Goerigk                                  : TD-DFT with DH, B97 family of functionals
   V. Asgeirsson, H. Jonsson                     : NEB implementation
   FAccTs GmbH                                   : IRC, NEB, NEB-TS, Multilevel


 Your calculation uses the libint2 library for the computation of 2-el integrals
 For citations please refer to: http://libint.valeyev.net

 This ORCA versions uses:
   CBLAS   interface :  Fast vector & matrix operations
   LAPACKE interface :  Fast linear algebra routines
   SCALAPACK package :  Parallel linear algebra routines


Your calculation utilizes the atom-pairwise dispersion correction
with the zero-damping scheme (D30)
Cite in your paper:
S.Grimme, J.Antony, S.Ehrlich and H.Krieg, J.Chem.Phys., 132, (2010), 154104 
   

XCFun DFT library Copyright 2009-2010 Ulf Ekstrom and contributors.
See http://admol.org/xcfun for more information. This is free soft-
ware; see the source code for copying conditions. There is ABSOLUTELY
NO WARRANTY; not even for MERCHANTABILITY or FITNESS FOR A PARTICULAR
PURPOSE. For details see the documentation. Scientific users of this 
library should cite U. Ekstrom, L. Visscher, R. Bast, A. J. Thorvald-
sen and K. Ruud; J.Chem.Theor.Comp. 2010, DOI: 10.1021/ct100117s
XCFun Version 0.99 
----- Orbital basis set information -----
Your calculation utilizes the basis: def2-TZVP
   F. Weigend and R. Ahlrichs, Phys. Chem. Chem. Phys. 7, 3297 (2005).

================================================================================
                                        WARNINGS
                       Please study these warnings very carefully!
================================================================================


INFO   : the flag for use of LIBINT has been found!

================================================================================
                                       INPUT FILE
================================================================================
NAME = 175.in
|  1> #Run DFT-D3 single point of the dimer
|  2> ! wB97X-D3 def2-TZVP TIGHTSCF  CHELPG PAL8
|  3> 
|  4> %base "175_charges"
|  5> 
|  6> %scf
|  7> MaxIter 1000
|  8> end
|  9> %output
| 10>   Print[ P_Mayer ] 1
| 11>   Print[ P_NatPop ] 1
| 12>   Print[ P_Hirshfeld ] 1
| 13>   Print[ P_Mulliken ] 1
| 14>   Print [ P_Loewdin ] 1
| 15> end
| 16> 
| 17> * xyz 0 1
| 18>   C                      5.672933             -10.989250           -7.577769           
| 19>   O                      5.912326             -11.905211           -8.617627           
| 20>   H                      5.214954             -11.698194           -9.227127           
| 21>   H                      6.317532             -10.091900           -7.606148           
| 22>   H                      4.647942             -10.742637           -7.383984           
| 23>   H                      5.962104             -11.469975           -6.643434           
| 24> *
| 25> 
| 26>                          ****END OF INPUT****
================================================================================

                       ****************************
                       * Single Point Calculation *
                       ****************************

---------------------------------
CARTESIAN COORDINATES (ANGSTROEM)
---------------------------------
  C      5.672933  -10.989250   -7.577769
  O      5.912326  -11.905211   -8.617627
  H      5.214954  -11.698194   -9.227127
  H      6.317532  -10.091900   -7.606148
  H      4.647942  -10.742637   -7.383984
  H      5.962104  -11.469975   -6.643434

----------------------------
CARTESIAN COORDINATES (A.U.)
----------------------------
  NO LB      ZA    FRAG     MASS         X           Y           Z
   0 C     6.0000    0    12.011   10.720290  -20.766673  -14.319908
   1 O     8.0000    0    15.999   11.172677  -22.497588  -16.284955
   2 H     1.0000    0     1.008    9.854835  -22.106383  -17.436743
   3 H     1.0000    0     1.008   11.938405  -19.070927  -14.373537
   4 H     1.0000    0     1.008    8.783337  -20.300642  -13.953708
   5 H     1.0000    0     1.008   11.266744  -21.675112  -12.554271

--------------------------------
INTERNAL COORDINATES (ANGSTROEM)
--------------------------------
 C      0   0   0     0.000000000000     0.00000000     0.00000000
 O      1   0   0     1.406271034379     0.00000000     0.00000000
 H      2   1   0     0.949038457953   101.98893707     0.00000000
 H      1   2   3     1.105237649079   114.23987581   260.33890199
 H      1   2   3     1.071903516215   116.50763338    33.55885292
 H      1   2   3     1.089815711527   107.54588054   146.65965509

---------------------------
INTERNAL COORDINATES (A.U.)
---------------------------
 C      0   0   0     0.000000000000     0.00000000     0.00000000
 O      1   0   0     2.657467125043     0.00000000     0.00000000
 H      2   1   0     1.793422776089   101.98893707     0.00000000
 H      1   2   3     2.088596469659   114.23987581   260.33890199
 H      1   2   3     2.025604087634   116.50763338    33.55885292
 H      1   2   3     2.059453231230   107.54588054   146.65965509

---------------------
BASIS SET INFORMATION
---------------------
There are 3 groups of distinct atoms

 Group   1 Type C   : 11s6p2d1f contracted to 5s3p2d1f pattern {62111/411/11/1}
 Group   2 Type O   : 11s6p2d1f contracted to 5s3p2d1f pattern {62111/411/11/1}
 Group   3 Type H   : 5s1p contracted to 3s1p pattern {311/1}

Atom   0C    basis set group =>   1
Atom   1O    basis set group =>   2
Atom   2H    basis set group =>   3
Atom   3H    basis set group =>   3
Atom   4H    basis set group =>   3
Atom   5H    basis set group =>   3


           ************************************************************
           *        Program running with 8 parallel MPI-processes     *
           *              working on a common directory               *
           ************************************************************
------------------------------------------------------------------------------
                           ORCA GTO INTEGRAL CALCULATION
------------------------------------------------------------------------------

                         BASIS SET STATISTICS AND STARTUP INFO

 # of primitive gaussian shells          ...   64
 # of primitive gaussian functions       ...  124
 # of contracted shells                  ...   38
 # of contracted basis functions         ...   86
 Highest angular momentum                ...    3
 Maximum contraction depth               ...    6
 Integral package used                   ... LIBINT
 Integral threshhold            Thresh   ...  2.500e-11
 Primitive cut-off              TCut     ...  2.500e-12


------------------------------ INTEGRAL EVALUATION ----------------------------


 * One electron integrals 
 Pre-screening matrix                    ... done
 Shell pair data                         ... done (   0.000 sec)



           ************************************************************
           *        Program running with 8 parallel MPI-processes     *
           *              working on a common directory               *
           ************************************************************
-------------------------------------------------------------------------------
                                 ORCA SCF
-------------------------------------------------------------------------------

------------
SCF SETTINGS
------------
Hamiltonian:
 Density Functional     Method          .... DFT(GTOs)
 Exchange Functional    Exchange        .... WB97X-D3
 Correlation Functional Correlation     .... WB97X-D3
 Gradients option       PostSCFGGA      .... off
 Hybrid DFT is turned on
   Fraction HF Exchange ScalHFX         ....  0.195728
   Scaling of DF-GGA-X  ScalDFX         ....  0.000000
   Scaling of DF-GGA-C  ScalDFC         ....  1.000000
   Scaling of DF-LDA-C  ScalLDAC        ....  1.000000
   Perturbative correction              ....  0.000000
   Density functional embedding theory  .... OFF
 Long-range corrected/Screened/Range-Separated Hybrid DFT is turned on
   Amount of maximum screened exact exchange              ....  0.804272
   Range separation parameter mu (erf(mu*r12)/r12)        ....  0.250000


General Settings:
 Integral files         IntName         .... 175_charges
 Hartree-Fock type      HFTyp           .... RHF
 Total Charge           Charge          ....    0
 Multiplicity           Mult            ....    1
 Number of Electrons    NEL             ....   18
 Basis Dimension        Dim             ....   86
 Nuclear Repulsion      ENuc            ....     40.6491869001 Eh

Convergence Acceleration:
 DIIS                   CNVDIIS         .... on
   Start iteration      DIISMaxIt       ....    12
   Startup error        DIISStart       ....  0.200000
   # of expansion vecs  DIISMaxEq       ....     5
   Bias factor          DIISBfac        ....   1.050
   Max. coefficient     DIISMaxC        ....  10.000
 Newton-Raphson         CNVNR           .... off
 SOSCF                  CNVSOSCF        .... on
   Start iteration      SOSCFMaxIt      ....   150
   Startup grad/error   SOSCFStart      ....  0.003300
 Level Shifting         CNVShift        .... on
   Level shift para.    LevelShift      ....    0.2500
   Turn off err/grad.   ShiftErr        ....    0.0010
 Zerner damping         CNVZerner       .... off
 Static damping         CNVDamp         .... on
   Fraction old density DampFac         ....    0.7000
   Max. Damping (<1)    DampMax         ....    0.9800
   Min. Damping (>=0)   DampMin         ....    0.0000
   Turn off err/grad.   DampErr         ....    0.1000
 Fernandez-Rico         CNVRico         .... off

SCF Procedure:
 Maximum # iterations   MaxIter         ....  1000
 SCF integral mode      SCFMode         .... Direct
   Integral package                     .... LIBINT
 Reset frequency        DirectResetFreq ....    20
 Integral Threshold     Thresh          ....  2.500e-11 Eh
 Primitive CutOff       TCut            ....  2.500e-12 Eh

Convergence Tolerance:
 Convergence Check Mode ConvCheckMode   .... Total+1el-Energy
 Convergence forced     ConvForced      .... 0
 Energy Change          TolE            ....  1.000e-08 Eh
 1-El. energy change                    ....  1.000e-05 Eh
 Orbital Gradient       TolG            ....  1.000e-05
 Orbital Rotation angle TolX            ....  1.000e-05
 DIIS Error             TolErr          ....  5.000e-07


Diagonalization of the overlap matrix:
Smallest eigenvalue                        ... 1.597e-03
Time for diagonalization                   ...    0.371 sec
Threshold for overlap eigenvalues          ... 1.000e-08
Number of eigenvalues below threshold      ... 0
Time for construction of square roots      ...    0.132 sec
Total time needed                          ...    0.503 sec

-------------------
DFT GRID GENERATION
-------------------

General Integration Accuracy     IntAcc      ...  4.340
Radial Grid Type                 RadialGrid  ... Gauss-Chebyshev
Angular Grid (max. acc.)         AngularGrid ... Lebedev-110
Angular grid pruning method      GridPruning ... 3 (G Style)
Weight generation scheme         WeightScheme... Becke
Basis function cutoff            BFCut       ...    1.0000e-11
Integration weight cutoff        WCut        ...    1.0000e-14
Grids for H and He will be reduced by one unit

# of grid points (after initial pruning)     ...   6548 (   0.0 sec)
# of grid points (after weights+screening)   ...   6376 (   4.2 sec)
nearest neighbour list constructed           ...    0.0 sec
Grid point re-assignment to atoms done       ...    0.0 sec
Grid point division into batches done        ...    0.0 sec
Reduced shell lists constructed in    0.0 sec

Total number of grid points                  ...     6376
Total number of batches                      ...      102
Average number of points per batch           ...       62
Average number of grid points per atom       ...     1063
Average number of shells per batch           ...    31.50 (82.89%)
Average number of basis functions per batch  ...    71.79 (83.47%)
Average number of large shells per batch     ...    30.79 (97.73%)
Average number of large basis fcns per batch ...    70.50 (98.21%)
Maximum spatial batch extension              ...  18.30, 15.50, 13.71 au
Average spatial batch extension              ...   0.49,  0.44,  0.39 au

Time for grid setup =    4.776 sec

------------------------------
INITIAL GUESS: MODEL POTENTIAL
------------------------------
Loading Hartree-Fock densities                     ... done
Calculating cut-offs                               ... done
Setting up the integral package                    ... done
Initializing the effective Hamiltonian             ... done
Starting the Coulomb interaction                   ... done (   0.0 sec)
Reading the grid                                   ... done
Mapping shells                                     ... done
Starting the XC term evaluation                    ... done (   0.2 sec)
  promolecular density results
     # of electrons  =     17.995636545
     EX              =    -14.438017359
     EC              =     -0.576515027
     EX+EC           =    -15.014532386
Transforming the Hamiltonian                       ... done (   0.0 sec)
Diagonalizing the Hamiltonian                      ... done (   0.1 sec)
Back transforming the eigenvectors                 ... done (   0.0 sec)
Now organizing SCF variables                       ... done
                      ------------------
                      INITIAL GUESS DONE (   5.4 sec)
                      ------------------
--------------
SCF ITERATIONS
--------------
ITER       Energy         Delta-E        Max-DP      RMS-DP      [F,P]     Damp
               ***  Starting incremental Fock matrix formation  ***
  0   -115.6459655863   0.000000000000 0.03611486  0.00147406  0.2456976 0.7000
  1   -115.6825146913  -0.036549105026 0.02142129  0.00104909  0.1230173 0.7000
                               ***Turning on DIIS***
  2   -115.6994985053  -0.016983814020 0.03042264  0.00191177  0.0478398 0.0000
  3   -115.7271673491  -0.027668843720 0.01713081  0.00068782  0.0595802 0.0000
  4   -115.7315983160  -0.004430966930 0.00403453  0.00013284  0.0060131 0.0000
                      *** Initiating the SOSCF procedure ***
                           *** Shutting down DIIS ***
                      *** Re-Reading the Fockian *** 
                      *** Removing any level shift *** 
ITER      Energy       Delta-E        Grad      Rot      Max-DP    RMS-DP
  5   -115.73169040  -0.0000920842  0.000447  0.000447  0.000691  0.000044
               *** Restarting incremental Fock matrix formation ***
  6   -115.73169859  -0.0000081897  0.000184  0.000198  0.000505  0.000027
  7   -115.73169935  -0.0000007613  0.000053  0.000104  0.000228  0.000012
  8   -115.73169941  -0.0000000578  0.000027  0.000019  0.000035  0.000002
  9   -115.73169942  -0.0000000122  0.000010  0.000009  0.000018  0.000001
 10   -115.73169942  -0.0000000016  0.000003  0.000003  0.000004  0.000000
                  ***Gradient check signals convergence***
              ***Rediagonalizing the Fockian in SOSCF/NRSCF***

               *****************************************************
               *                     SUCCESS                       *
               *           SCF CONVERGED AFTER  11 CYCLES          *
               *****************************************************

Setting up the final grid:

General Integration Accuracy     IntAcc      ...  4.670
Radial Grid Type                 RadialGrid  ... Gauss-Chebyshev
Angular Grid (max. acc.)         AngularGrid ... Lebedev-302
Angular grid pruning method      GridPruning ... 3 (G Style)
Weight generation scheme         WeightScheme... Becke
Basis function cutoff            BFCut       ...    1.0000e-11
Integration weight cutoff        WCut        ...    1.0000e-14
Grids for H and He will be reduced by one unit

# of grid points (after initial pruning)     ...  26000 (   0.0 sec)
# of grid points (after weights+screening)   ...  25197 (   0.0 sec)
nearest neighbour list constructed           ...    0.0 sec
Grid point re-assignment to atoms done       ...    0.0 sec
Grid point division into batches done        ...    0.1 sec
Reduced shell lists constructed in    0.1 sec

Total number of grid points                  ...    25197
Total number of batches                      ...      397
Average number of points per batch           ...       63
Average number of grid points per atom       ...     4200
Average number of shells per batch           ...    31.12 (81.89%)
Average number of basis functions per batch  ...    71.12 (82.69%)
Average number of large shells per batch     ...    29.98 (96.35%)
Average number of large basis fcns per batch ...    69.16 (97.24%)
Maximum spatial batch extension              ...  16.75, 15.94, 12.08 au
Average spatial batch extension              ...   0.33,  0.31,  0.28 au

Final grid set up in    0.2 sec
Final integration                            ... done (   0.1 sec)
Change in XC energy                          ...    -0.000083887
Integrated number of electrons               ...    17.999990095
Previous integrated no of electrons          ...    17.998213693

----------------
TOTAL SCF ENERGY
----------------

Total Energy       :         -115.73178331 Eh           -3149.22193 eV

Components:
Nuclear Repulsion  :           40.64918690 Eh            1106.12061 eV
Electronic Energy  :         -156.38097021 Eh           -4255.34254 eV
One Electron Energy:         -237.65290840 Eh           -6466.86441 eV
Two Electron Energy:           81.27193819 Eh            2211.52187 eV

Virial components:
Potential Energy   :         -231.04472615 Eh           -6287.04663 eV
Kinetic Energy     :          115.31294284 Eh            3137.82470 eV
Virial Ratio       :            2.00363221


DFT components:
N(Alpha)           :        8.999995047652 electrons
N(Beta)            :        8.999995047652 electrons
N(Total)           :       17.999990095305 electrons
E(XC)              :      -10.665390763932 Eh       
DFET-embed. en.    :        0.000000000000 Eh       

---------------
SCF CONVERGENCE
---------------

  Last Energy change         ...   -2.8135e-10  Tolerance :   1.0000e-08
  Last MAX-Density change    ...    1.9982e-06  Tolerance :   1.0000e-07
  Last RMS-Density change    ...    9.5613e-08  Tolerance :   5.0000e-09
  Last Orbital Gradient      ...    1.0742e-06  Tolerance :   1.0000e-05
  Last Orbital Rotation      ...    9.7556e-07  Tolerance :   1.0000e-05

             **** THE GBW FILE WAS UPDATED (175_charges.gbw) ****
             **** DENSITY FILE WAS UPDATED (175_charges.scfp.tmp) ****
             **** ENERGY FILE WAS UPDATED (175_charges.en.tmp) ****
----------------
ORBITAL ENERGIES
----------------

  NO   OCC          E(Eh)            E(eV) 
   0   2.0000     -19.233773      -523.3776 
   1   2.0000     -10.309417      -280.5335 
   2   2.0000      -1.146090       -31.1867 
   3   2.0000      -0.796884       -21.6843 
   4   2.0000      -0.615496       -16.7485 
   5   2.0000      -0.543397       -14.7866 
   6   2.0000      -0.525291       -14.2939 
   7   2.0000      -0.439755       -11.9663 
   8   2.0000      -0.375897       -10.2287 
   9   0.0000       0.117119         3.1870 
  10   0.0000       0.154603         4.2070 
  11   0.0000       0.197834         5.3833 
  12   0.0000       0.208150         5.6640 
  13   0.0000       0.234913         6.3923 
  14   0.0000       0.301400         8.2015 
  15   0.0000       0.320336         8.7168 
  16   0.0000       0.400368        10.8946 
  17   0.0000       0.451695        12.2913 
  18   0.0000       0.495590        13.4857 
  19   0.0000       0.527742        14.3606 
  20   0.0000       0.551464        15.0061 
  21   0.0000       0.562026        15.2935 
  22   0.0000       0.600192        16.3321 
  23   0.0000       0.623417        16.9640 
  24   0.0000       0.689402        18.7596 
  25   0.0000       0.736236        20.0340 
  26   0.0000       0.804692        21.8968 
  27   0.0000       0.865606        23.5543 
  28   0.0000       0.974977        26.5305 
  29   0.0000       1.053880        28.6775 
  30   0.0000       1.109906        30.2021 
  31   0.0000       1.365193        37.1488 
  32   0.0000       1.485605        40.4254 
  33   0.0000       1.553900        42.2838 
  34   0.0000       1.602440        43.6046 
  35   0.0000       1.629327        44.3362 
  36   0.0000       1.642045        44.6823 
  37   0.0000       1.686974        45.9049 
  38   0.0000       1.698542        46.2197 
  39   0.0000       1.797624        48.9158 
  40   0.0000       1.946910        52.9781 
  41   0.0000       2.019032        54.9406 
  42   0.0000       2.062127        56.1133 
  43   0.0000       2.089229        56.8508 
  44   0.0000       2.159306        58.7577 
  45   0.0000       2.253103        61.3100 
  46   0.0000       2.269202        61.7481 
  47   0.0000       2.381332        64.7993 
  48   0.0000       2.434809        66.2545 
  49   0.0000       2.444561        66.5199 
  50   0.0000       2.550338        69.3982 
  51   0.0000       2.583232        70.2933 
  52   0.0000       2.636286        71.7370 
  53   0.0000       2.705481        73.6199 
  54   0.0000       2.838959        77.2520 
  55   0.0000       2.893927        78.7478 
  56   0.0000       2.920772        79.4783 
  57   0.0000       2.947681        80.2105 
  58   0.0000       3.101187        84.3876 
  59   0.0000       3.194711        86.9325 
  60   0.0000       3.253192        88.5238 
  61   0.0000       3.349596        91.1471 
  62   0.0000       3.433918        93.4416 
  63   0.0000       3.555284        96.7442 
  64   0.0000       3.607953        98.1774 
  65   0.0000       3.643656        99.1489 
  66   0.0000       3.693567       100.5071 
  67   0.0000       4.027199       109.5857 
  68   0.0000       4.227589       115.0385 
  69   0.0000       4.295618       116.8897 
  70   0.0000       4.442216       120.8789 
  71   0.0000       4.537320       123.4668 
  72   0.0000       5.377457       146.3281 
  73   0.0000       5.464633       148.7002 
  74   0.0000       5.551943       151.0761 
  75   0.0000       5.766237       156.9073 
  76   0.0000       5.843094       158.9987 
  77   0.0000       6.036998       164.2751 
  78   0.0000       6.358240       173.0165 
  79   0.0000       6.535963       177.8526 
  80   0.0000       6.785522       184.6435 
  81   0.0000       6.801439       185.0766 
  82   0.0000       7.019714       191.0161 
  83   0.0000       7.207682       196.1310 
  84   0.0000      22.441523       610.6649 
  85   0.0000      43.644812      1187.6357 

                    ********************************
                    * MULLIKEN POPULATION ANALYSIS *
                    ********************************

-----------------------
MULLIKEN ATOMIC CHARGES
-----------------------
   0 C :   -0.174752
   1 O :   -0.453762
   2 H :    0.312884
   3 H :    0.099240
   4 H :    0.106468
   5 H :    0.109923
Sum of atomic charges:   -0.0000000

--------------------------------
MULLIKEN REDUCED ORBITAL CHARGES
--------------------------------
  0 C s       :     3.212001  s :     3.212001
      pz      :     0.878977  p :     2.854695
      px      :     1.051704
      py      :     0.924014
      dz2     :     0.035071  d :     0.100300
      dxz     :     0.019114
      dyz     :     0.015804
      dx2y2   :     0.014126
      dxy     :     0.016185
      f0      :     0.001185  f :     0.007756
      f+1     :     0.000696
      f-1     :     0.001939
      f+2     :     0.001245
      f-2     :     0.001315
      f+3     :     0.000743
      f-3     :     0.000633
  1 O s       :     3.803139  s :     3.803139
      pz      :     1.365122  p :     4.616910
      px      :     1.610777
      py      :     1.641011
      dz2     :     0.003918  d :     0.032073
      dxz     :     0.009046
      dyz     :     0.007995
      dx2y2   :     0.006058
      dxy     :     0.005056
      f0      :     0.000196  f :     0.001639
      f+1     :     0.000199
      f-1     :     0.000307
      f+2     :     0.000443
      f-2     :     0.000267
      f+3     :     0.000102
      f-3     :     0.000124
  2 H s       :     0.637920  s :     0.637920
      pz      :     0.016033  p :     0.049195
      px      :     0.018119
      py      :     0.015044
  3 H s       :     0.880654  s :     0.880654
      pz      :     0.003366  p :     0.020106
      px      :     0.007147
      py      :     0.009594
  4 H s       :     0.873122  s :     0.873122
      pz      :     0.004343  p :     0.020410
      px      :     0.011773
      py      :     0.004294
  5 H s       :     0.869259  s :     0.869259
      pz      :     0.010340  p :     0.020818
      px      :     0.005315
      py      :     0.005164


                     *******************************
                     * LOEWDIN POPULATION ANALYSIS *
                     *******************************

----------------------
LOEWDIN ATOMIC CHARGES
----------------------
   0 C :   -0.401283
   1 O :   -0.060549
   2 H :    0.166261
   3 H :    0.097959
   4 H :    0.092158
   5 H :    0.105453

-------------------------------
LOEWDIN REDUCED ORBITAL CHARGES
-------------------------------
  0 C s       :     2.853228  s :     2.853228
      pz      :     0.953842  p :     3.068657
      px      :     1.098115
      py      :     1.016699
      dz2     :     0.119637  d :     0.421859
      dxz     :     0.066781
      dyz     :     0.091806
      dx2y2   :     0.068756
      dxy     :     0.074878
      f0      :     0.007932  f :     0.057539
      f+1     :     0.008202
      f-1     :     0.012318
      f+2     :     0.010413
      f-2     :     0.010539
      f+3     :     0.004648
      f-3     :     0.003487
  1 O s       :     3.369301  s :     3.369301
      pz      :     1.387526  p :     4.613466
      px      :     1.587135
      py      :     1.638804
      dz2     :     0.013826  d :     0.072778
      dxz     :     0.021904
      dyz     :     0.017929
      dx2y2   :     0.011066
      dxy     :     0.008052
      f0      :     0.000887  f :     0.005005
      f+1     :     0.000431
      f-1     :     0.000928
      f+2     :     0.001066
      f-2     :     0.001034
      f+3     :     0.000317
      f-3     :     0.000341
  2 H s       :     0.670733  s :     0.670733
      pz      :     0.049865  p :     0.163006
      px      :     0.067870
      py      :     0.045271
  3 H s       :     0.843245  s :     0.843245
      pz      :     0.010197  p :     0.058795
      px      :     0.020740
      py      :     0.027858
  4 H s       :     0.842923  s :     0.842923
      pz      :     0.014160  p :     0.064919
      px      :     0.036235
      py      :     0.014524
  5 H s       :     0.834317  s :     0.834317
      pz      :     0.028297  p :     0.060230
      px      :     0.015624
      py      :     0.016310


                      *****************************
                      * MAYER POPULATION ANALYSIS *
                      *****************************

  NA   - Mulliken gross atomic population
  ZA   - Total nuclear charge
  QA   - Mulliken gross atomic charge
  VA   - Mayer's total valence
  BVA  - Mayer's bonded valence
  FA   - Mayer's free valence

  ATOM       NA         ZA         QA         VA         BVA        FA
  0 C      6.1748     6.0000    -0.1748     3.9564     3.9564    -0.0000
  1 O      8.4538     8.0000    -0.4538     1.9107     1.9107     0.0000
  2 H      0.6871     1.0000     0.3129     0.9144     0.9144     0.0000
  3 H      0.9008     1.0000     0.0992     0.9556     0.9556    -0.0000
  4 H      0.8935     1.0000     0.1065     0.9592     0.9592     0.0000
  5 H      0.8901     1.0000     0.1099     0.9546     0.9546    -0.0000

  Mayer bond orders larger than 0.1
B(  0-C ,  1-O ) :   1.0173 B(  0-C ,  3-H ) :   0.9732 B(  0-C ,  4-H ) :   0.9779 
B(  0-C ,  5-H ) :   0.9801 B(  1-O ,  2-H ) :   0.9062 


------------------
HIRSHFELD ANALYSIS
------------------

Total integrated alpha density =      8.999106847
Total integrated beta density  =      8.999106847

  ATOM     CHARGE      SPIN    
   0 C    0.002399    0.000000
   1 O   -0.241783    0.000000
   2 H    0.156847    0.000000
   3 H    0.025945    0.000000
   4 H    0.031335    0.000000
   5 H    0.027043    0.000000

  TOTAL   0.001786    0.000000

-------
TIMINGS
-------

Total SCF time: 0 days 0 hours 0 min 28 sec 

Total time                  ....      28.393 sec
Sum of individual times     ....      25.030 sec  ( 88.2%)

Fock matrix formation       ....      15.818 sec  ( 55.7%)
  XC integration            ....       3.349 sec  ( 21.2% of F)
    Basis function eval.    ....       0.047 sec  (  1.4% of XC)
    Density eval.           ....       0.103 sec  (  3.1% of XC)
    XC-Functional eval.     ....       0.087 sec  (  2.6% of XC)
    XC-Potential eval.      ....       0.039 sec  (  1.2% of XC)
Diagonalization             ....       1.981 sec  (  7.0%)
Density matrix formation    ....       0.816 sec  (  2.9%)
Population analysis         ....       0.030 sec  (  0.1%)
Initial guess               ....       0.579 sec  (  2.0%)
Orbital Transformation      ....       0.000 sec  (  0.0%)
Orbital Orthonormalization  ....       0.000 sec  (  0.0%)
DIIS solution               ....       0.351 sec  (  1.2%)
SOSCF solution              ....       0.524 sec  (  1.8%)
Grid generation             ....       4.930 sec  ( 17.4%)


-------------------------------------------------------------------------------
                          DFT DISPERSION CORRECTION                            
                                                                               
                              DFTD3 V3.1  Rev 1                                
                              USING zero damping                               
-------------------------------------------------------------------------------
The omegaB97X-D3 functional is recognized. Fit by Chai et al.
Active option DFTDOPT                   ...         3   

molecular C6(AA) [au] = 208.627394 


            DFT-D V3
 parameters
 s6 scaling factor         :     1.0000 
 rs6 scaling factor        :     1.2810 
 s8 scaling factor         :     1.0000 
 rs8 scaling factor        :     1.0940 
 Damping factor alpha6     :    14.0000 
 Damping factor alpha8     :    16.0000 
 ad hoc parameters k1-k3   :    16.0000     1.3333    -4.0000 

 Edisp/kcal,au: -0.152073292960  -0.000242344192 
 E6   /kcal   :  -0.027651364 
 E8   /kcal   :  -0.124421929 
 % E8         :  81.817081055 

-------------------------   ----------------
Dispersion correction           -0.000242344
-------------------------   ----------------


-------------------------   --------------------
FINAL SINGLE POINT ENERGY      -115.732025654355
-------------------------   --------------------


                            ***************************************
                            *     ORCA property calculations      *
                            ***************************************

                                    ---------------------
                                    Active property flags
                                    ---------------------
   (+) Dipole Moment


------------------------------------------------------------------------------
                       ORCA ELECTRIC PROPERTIES CALCULATION
------------------------------------------------------------------------------

Dipole Moment Calculation                       ... on
Quadrupole Moment Calculation                   ... off
Polarizability Calculation                      ... off
GBWName                                         ... 175_charges.gbw
Electron density file                           ... 175_charges.scfp.tmp
The origin for moment calculation is the CENTER OF MASS  = (10.913524, -21.633659 -15.333756)

-------------
DIPOLE MOMENT
-------------
                                X             Y             Z
Electronic contribution:      0.34692      -1.21834      -1.45856
Nuclear contribution   :     -0.89695       1.67206       1.49026
                        -----------------------------------------
Total Dipole Moment    :     -0.55003       0.45372       0.03170
                        -----------------------------------------
Magnitude (a.u.)       :      0.71372
Magnitude (Debye)      :      1.81414



--------------------
Rotational spectrum 
--------------------
 
Rotational constants in cm-1:     4.397869     0.836930     0.810744 
Rotational constants in MHz : 131844.785989 25090.540159 24305.493479 

 Dipole components along the rotational axes: 
x,y,z [a.u.] :     0.376914     0.603401    -0.056958 
x,y,z [Debye]:     0.958040     1.533724    -0.144777 

 
------------------------------------------------------------------------------
                      ORCA CHELPG CHARGES GENERATION
------------------------------------------------------------------------------

GBW file                           ... 175_charges.gbw

Reading the GBW file               ... done

Grid spacing                       ...     0.300000
Point Cut-Off                      ...     2.800000
Van-der-Waals Radii                ...        COSMO
Total charge                       ...            0


Number of points X direction       ...           24
Number of points Y direction       ...           24
Number of points Z direction       ...           27
Maximum number of possible points  ...        15552
Final number of points             ...         5877


CHELPG Charges            
--------------------------------
  0   C   :       0.093344
  1   O   :      -0.574185
  2   H   :       0.386253
  3   H   :       0.020236
  4   H   :       0.011671
  5   H   :       0.062682
--------------------------------
Total charge:     0.000000
--------------------------------

CHELPG charges calculated...

Timings for individual parts in CHELPG calculation:
Grid generation                 ...        0.001 sec (=   0.000 min)
Potential calculation           ...        0.620 sec (=   0.010 min)
Fit to the potential            ...        0.001 sec (=   0.000 min)
------------------------------------------------------------------------------


Timings for individual modules:

Sum of individual times         ...       39.579 sec (=   0.660 min)
GTO integral calculation        ...        5.264 sec (=   0.088 min)  13.3 %
SCF iterations                  ...       33.658 sec (=   0.561 min)  85.0 %
CHELPG charge generation        ...        0.657 sec (=   0.011 min)   1.7 %
                             ****ORCA TERMINATED NORMALLY****
TOTAL RUN TIME: 0 days 0 hours 0 minutes 41 seconds 496 msec
