
                                 *****************
                                 * O   R   C   A *
                                 *****************

           --- An Ab Initio, DFT and Semiempirical electronic structure package ---

                  #######################################################
                  #                        -***-                        #
                  #          Department of theory and spectroscopy      #
                  #               Directorship: Frank Neese             #
                  #        Max Planck Institute fuer Kohlenforschung    #
                  #                Kaiser Wilhelm Platz 1               #
                  #                 D-45470 Muelheim/Ruhr               #
                  #                      Germany                        #
                  #                                                     #
                  #                  All rights reserved                #
                  #                        -***-                        #
                  #######################################################


                         Program Version 4.1.2  - RELEASE  -


 With contributions from (in alphabetic order):
   Daniel Aravena         : Magnetic Properties
   Michael Atanasov       : Ab Initio Ligand Field Theory
   Alexander A. Auer      : GIAO ZORA
   Ute Becker             : Parallelization
   Giovanni Bistoni       : ED, Open-shell LED
   Martin Brehm           : Molecular dynamics
   Dmytro Bykov           : SCF Hessian
   Vijay G. Chilkuri      : MRCI spin determinant printing
   Dipayan Datta          : RHF DLPNO-CCSD density
   Achintya Kumar Dutta   : EOM-CC, STEOM-CC
   Dmitry Ganyushin       : Spin-Orbit,Spin-Spin,Magnetic field MRCI
   Miquel Garcia          : C-PCM Hessian
   Yang Guo               : DLPNO-NEVPT2, CIM, IAO-localization
   Andreas Hansen         : Spin unrestricted coupled pair/coupled cluster methods
   Benjamin Helmich-Paris : CASSCF linear response (MC-RPA)
   Lee Huntington         : MR-EOM, pCC
   Robert Izsak           : Overlap fitted RIJCOSX, COSX-SCS-MP3, EOM
   Christian Kollmar      : KDIIS, OOCD, Brueckner-CCSD(T), CCSD density
   Simone Kossmann        : Meta GGA functionals, TD-DFT gradient, OOMP2, MP2 Hessian
   Martin Krupicka        : AUTO-CI
   Lucas Lang             : DCDCAS
   Dagmar Lenk            : GEPOL surface, SMD
   Dimitrios Liakos       : Extrapolation schemes; parallel MDCI
   Dimitrios Manganas     : ROCIS; embedding schemes
   Dimitrios Pantazis     : SARC Basis sets
   Taras Petrenko         : DFT Hessian,TD-DFT gradient, ASA, ECA, R-Raman, ABS, FL, XAS/XES, NRVS
   Peter Pinski           : DLPNO-MP2, DLPNO-MP2 Gradient
   Christoph Reimann      : Effective Core Potentials
   Marius Retegan         : Local ZFS, SOC
   Christoph Riplinger    : Optimizer, TS searches, QM/MM, DLPNO-CCSD(T), (RO)-DLPNO pert. Triples
   Tobias Risthaus        : Range-separated hybrids, TD-DFT gradient, RPA, STAB
   Michael Roemelt        : Restricted open shell CIS
   Masaaki Saitow         : Open-shell DLPNO
   Barbara Sandhoefer     : DKH picture change effects
   Avijit Sen             : IP-ROCIS
   Kantharuban Sivalingam : CASSCF convergence, NEVPT2, FIC-MRCI
   Bernardo de Souza      : ESD, SOC TD-DFT
   Georgi Stoychev        : AutoAux, RI-MP2 NMR
   Willem Van den Heuvel  : Paramagnetic NMR
   Boris Wezisla          : Elementary symmetry handling
   Frank Wennmohs         : Technical directorship


 We gratefully acknowledge several colleagues who have allowed us to
 interface, adapt or use parts of their codes:
   Stefan Grimme, W. Hujo, H. Kruse,             : VdW corrections, initial TS optimization,
                  C. Bannwarth                     DFT functionals, gCP, sTDA/sTD-DF
   Ed Valeev                                     : LibInt (2-el integral package), F12 methods
   Garnet Chan, S. Sharma, J. Yang, R. Olivares  : DMRG
   Ulf Ekstrom                                   : XCFun DFT Library
   Mihaly Kallay                                 : mrcc  (arbitrary order and MRCC methods)
   Andreas Klamt, Michael Diedenhofen            : otool_cosmo (COSMO solvation model)
   Jiri Pittner, Ondrej Demel                    : Mk-CCSD
   Frank Weinhold                                : gennbo (NPA and NBO analysis)
   Christopher J. Cramer and Donald G. Truhlar   : smd solvation model
   Lars Goerigk                                  : TD-DFT with DH, B97 family of functionals
   V. Asgeirsson, H. Jonsson                     : NEB implementation
   FAccTs GmbH                                   : IRC, NEB, NEB-TS, Multilevel


 Your calculation uses the libint2 library for the computation of 2-el integrals
 For citations please refer to: http://libint.valeyev.net

 This ORCA versions uses:
   CBLAS   interface :  Fast vector & matrix operations
   LAPACKE interface :  Fast linear algebra routines
   SCALAPACK package :  Parallel linear algebra routines


Your calculation utilizes the atom-pairwise dispersion correction
with the zero-damping scheme (D30)
Cite in your paper:
S.Grimme, J.Antony, S.Ehrlich and H.Krieg, J.Chem.Phys., 132, (2010), 154104 
   

XCFun DFT library Copyright 2009-2010 Ulf Ekstrom and contributors.
See http://admol.org/xcfun for more information. This is free soft-
ware; see the source code for copying conditions. There is ABSOLUTELY
NO WARRANTY; not even for MERCHANTABILITY or FITNESS FOR A PARTICULAR
PURPOSE. For details see the documentation. Scientific users of this 
library should cite U. Ekstrom, L. Visscher, R. Bast, A. J. Thorvald-
sen and K. Ruud; J.Chem.Theor.Comp. 2010, DOI: 10.1021/ct100117s
XCFun Version 0.99 
----- Orbital basis set information -----
Your calculation utilizes the basis: def2-TZVP
   F. Weigend and R. Ahlrichs, Phys. Chem. Chem. Phys. 7, 3297 (2005).

================================================================================
                                        WARNINGS
                       Please study these warnings very carefully!
================================================================================


INFO   : the flag for use of LIBINT has been found!

================================================================================
                                       INPUT FILE
================================================================================
NAME = 16.in
|  1> #Run DFT-D3 single point of the dimer
|  2> ! wB97X-D3 def2-TZVP TIGHTSCF  CHELPG PAL8
|  3> 
|  4> %base "16_charges"
|  5> 
|  6> %scf
|  7> MaxIter 1000
|  8> end
|  9> %output
| 10>   Print[ P_Mayer ] 1
| 11>   Print[ P_NatPop ] 1
| 12>   Print[ P_Hirshfeld ] 1
| 13>   Print[ P_Mulliken ] 1
| 14>   Print [ P_Loewdin ] 1
| 15> end
| 16> 
| 17> * xyz 0 1
| 18>   C                      -4.348745            2.498902             -0.395598           
| 19>   O                      -4.774556            3.269099             -1.396210           
| 20>   H                      -5.726224            3.220396             -1.374704           
| 21>   H                      -4.391854            3.008908             0.604225            
| 22>   H                      -4.971036            1.612524             -0.343536           
| 23>   H                      -3.297642            2.256578             -0.428036           
| 24> *
| 25> 
| 26>                          ****END OF INPUT****
================================================================================

                       ****************************
                       * Single Point Calculation *
                       ****************************

---------------------------------
CARTESIAN COORDINATES (ANGSTROEM)
---------------------------------
  C     -4.348745    2.498902   -0.395598
  O     -4.774556    3.269099   -1.396210
  H     -5.726224    3.220396   -1.374704
  H     -4.391854    3.008908    0.604225
  H     -4.971036    1.612524   -0.343536
  H     -3.297642    2.256578   -0.428036

----------------------------
CARTESIAN COORDINATES (A.U.)
----------------------------
  NO LB      ZA    FRAG     MASS         X           Y           Z
   0 C     6.0000    0    12.011   -8.217937    4.722240   -0.747572
   1 O     8.0000    0    15.999   -9.022603    6.177702   -2.638455
   2 H     1.0000    0     1.008  -10.820995    6.085666   -2.597814
   3 H     1.0000    0     1.008   -8.299401    5.686012    1.141820
   4 H     1.0000    0     1.008   -9.393897    3.047229   -0.649189
   5 H     1.0000    0     1.008   -6.231640    4.264314   -0.808871

--------------------------------
INTERNAL COORDINATES (ANGSTROEM)
--------------------------------
 C      0   0   0     0.000000000000     0.00000000     0.00000000
 O      1   0   0     1.332569998564     0.00000000     0.00000000
 H      2   1   0     0.953156058822   105.81709590     0.00000000
 H      1   2   3     1.123214377243   113.18485444   279.27276250
 H      1   2   3     1.084261268979   108.97495207    39.25686988
 H      1   2   3     1.079162018155   114.73654118   165.92783656

---------------------------
INTERNAL COORDINATES (A.U.)
---------------------------
 C      0   0   0     0.000000000000     0.00000000     0.00000000
 O      1   0   0     2.518192351567     0.00000000     0.00000000
 H      2   1   0     1.801203914061   105.81709590     0.00000000
 H      1   2   3     2.122567562673   113.18485444   279.27276250
 H      1   2   3     2.048956855989   108.97495207    39.25686988
 H      1   2   3     2.039320668443   114.73654118   165.92783656

---------------------
BASIS SET INFORMATION
---------------------
There are 3 groups of distinct atoms

 Group   1 Type C   : 11s6p2d1f contracted to 5s3p2d1f pattern {62111/411/11/1}
 Group   2 Type O   : 11s6p2d1f contracted to 5s3p2d1f pattern {62111/411/11/1}
 Group   3 Type H   : 5s1p contracted to 3s1p pattern {311/1}

Atom   0C    basis set group =>   1
Atom   1O    basis set group =>   2
Atom   2H    basis set group =>   3
Atom   3H    basis set group =>   3
Atom   4H    basis set group =>   3
Atom   5H    basis set group =>   3


           ************************************************************
           *        Program running with 8 parallel MPI-processes     *
           *              working on a common directory               *
           ************************************************************
------------------------------------------------------------------------------
                           ORCA GTO INTEGRAL CALCULATION
------------------------------------------------------------------------------

                         BASIS SET STATISTICS AND STARTUP INFO

 # of primitive gaussian shells          ...   64
 # of primitive gaussian functions       ...  124
 # of contracted shells                  ...   38
 # of contracted basis functions         ...   86
 Highest angular momentum                ...    3
 Maximum contraction depth               ...    6
 Integral package used                   ... LIBINT
 Integral threshhold            Thresh   ...  2.500e-11
 Primitive cut-off              TCut     ...  2.500e-12


------------------------------ INTEGRAL EVALUATION ----------------------------


 * One electron integrals 
 Pre-screening matrix                    ... done
 Shell pair data                         ... done (   0.000 sec)



           ************************************************************
           *        Program running with 8 parallel MPI-processes     *
           *              working on a common directory               *
           ************************************************************
-------------------------------------------------------------------------------
                                 ORCA SCF
-------------------------------------------------------------------------------

------------
SCF SETTINGS
------------
Hamiltonian:
 Density Functional     Method          .... DFT(GTOs)
 Exchange Functional    Exchange        .... WB97X-D3
 Correlation Functional Correlation     .... WB97X-D3
 Gradients option       PostSCFGGA      .... off
 Hybrid DFT is turned on
   Fraction HF Exchange ScalHFX         ....  0.195728
   Scaling of DF-GGA-X  ScalDFX         ....  0.000000
   Scaling of DF-GGA-C  ScalDFC         ....  1.000000
   Scaling of DF-LDA-C  ScalLDAC        ....  1.000000
   Perturbative correction              ....  0.000000
   Density functional embedding theory  .... OFF
 Long-range corrected/Screened/Range-Separated Hybrid DFT is turned on
   Amount of maximum screened exact exchange              ....  0.804272
   Range separation parameter mu (erf(mu*r12)/r12)        ....  0.250000


General Settings:
 Integral files         IntName         .... 16_charges
 Hartree-Fock type      HFTyp           .... RHF
 Total Charge           Charge          ....    0
 Multiplicity           Mult            ....    1
 Number of Electrons    NEL             ....   18
 Basis Dimension        Dim             ....   86
 Nuclear Repulsion      ENuc            ....     41.7903788301 Eh

Convergence Acceleration:
 DIIS                   CNVDIIS         .... on
   Start iteration      DIISMaxIt       ....    12
   Startup error        DIISStart       ....  0.200000
   # of expansion vecs  DIISMaxEq       ....     5
   Bias factor          DIISBfac        ....   1.050
   Max. coefficient     DIISMaxC        ....  10.000
 Newton-Raphson         CNVNR           .... off
 SOSCF                  CNVSOSCF        .... on
   Start iteration      SOSCFMaxIt      ....   150
   Startup grad/error   SOSCFStart      ....  0.003300
 Level Shifting         CNVShift        .... on
   Level shift para.    LevelShift      ....    0.2500
   Turn off err/grad.   ShiftErr        ....    0.0010
 Zerner damping         CNVZerner       .... off
 Static damping         CNVDamp         .... on
   Fraction old density DampFac         ....    0.7000
   Max. Damping (<1)    DampMax         ....    0.9800
   Min. Damping (>=0)   DampMin         ....    0.0000
   Turn off err/grad.   DampErr         ....    0.1000
 Fernandez-Rico         CNVRico         .... off

SCF Procedure:
 Maximum # iterations   MaxIter         ....  1000
 SCF integral mode      SCFMode         .... Direct
   Integral package                     .... LIBINT
 Reset frequency        DirectResetFreq ....    20
 Integral Threshold     Thresh          ....  2.500e-11 Eh
 Primitive CutOff       TCut            ....  2.500e-12 Eh

Convergence Tolerance:
 Convergence Check Mode ConvCheckMode   .... Total+1el-Energy
 Convergence forced     ConvForced      .... 0
 Energy Change          TolE            ....  1.000e-08 Eh
 1-El. energy change                    ....  1.000e-05 Eh
 Orbital Gradient       TolG            ....  1.000e-05
 Orbital Rotation angle TolX            ....  1.000e-05
 DIIS Error             TolErr          ....  5.000e-07


Diagonalization of the overlap matrix:
Smallest eigenvalue                        ... 1.694e-03
Time for diagonalization                   ...    0.004 sec
Threshold for overlap eigenvalues          ... 1.000e-08
Number of eigenvalues below threshold      ... 0
Time for construction of square roots      ...    0.022 sec
Total time needed                          ...    0.026 sec

-------------------
DFT GRID GENERATION
-------------------

General Integration Accuracy     IntAcc      ...  4.340
Radial Grid Type                 RadialGrid  ... Gauss-Chebyshev
Angular Grid (max. acc.)         AngularGrid ... Lebedev-110
Angular grid pruning method      GridPruning ... 3 (G Style)
Weight generation scheme         WeightScheme... Becke
Basis function cutoff            BFCut       ...    1.0000e-11
Integration weight cutoff        WCut        ...    1.0000e-14
Grids for H and He will be reduced by one unit

# of grid points (after initial pruning)     ...   6548 (   0.0 sec)
# of grid points (after weights+screening)   ...   6376 (   4.7 sec)
nearest neighbour list constructed           ...    0.0 sec
Grid point re-assignment to atoms done       ...    0.0 sec
Grid point division into batches done        ...    0.0 sec
Reduced shell lists constructed in    0.0 sec

Total number of grid points                  ...     6376
Total number of batches                      ...      103
Average number of points per batch           ...       61
Average number of grid points per atom       ...     1063
Average number of shells per batch           ...    32.00 (84.21%)
Average number of basis functions per batch  ...    73.29 (85.22%)
Average number of large shells per batch     ...    30.86 (96.43%)
Average number of large basis fcns per batch ...    70.57 (96.30%)
Maximum spatial batch extension              ...   9.54, 16.52, 15.83 au
Average spatial batch extension              ...   0.32,  0.44,  0.41 au

Time for grid setup =    8.483 sec

------------------------------
INITIAL GUESS: MODEL POTENTIAL
------------------------------
Loading Hartree-Fock densities                     ... done
Calculating cut-offs                               ... done
Setting up the integral package                    ... done
Initializing the effective Hamiltonian             ... done
Starting the Coulomb interaction                   ... done (   0.0 sec)
Reading the grid                                   ... done
Mapping shells                                     ... done
Starting the XC term evaluation                    ... done (   0.1 sec)
  promolecular density results
     # of electrons  =     17.997655310
     EX              =    -14.460104113
     EC              =     -0.579757045
     EX+EC           =    -15.039861157
Transforming the Hamiltonian                       ... done (   0.0 sec)
Diagonalizing the Hamiltonian                      ... done (   0.0 sec)
Back transforming the eigenvectors                 ... done (   0.0 sec)
Now organizing SCF variables                       ... done
                      ------------------
                      INITIAL GUESS DONE (   8.9 sec)
                      ------------------
--------------
SCF ITERATIONS
--------------
ITER       Energy         Delta-E        Max-DP      RMS-DP      [F,P]     Damp
               ***  Starting incremental Fock matrix formation  ***
  0   -115.6347389293   0.000000000000 0.03629350  0.00156031  0.2551405 0.7000
  1   -115.6746430936  -0.039904164261 0.02227943  0.00111471  0.1305044 0.7000
                               ***Turning on DIIS***
  2   -115.6930616602  -0.018418566654 0.03398110  0.00201942  0.0554405 0.0000
  3   -115.7227554866  -0.029693826316 0.01664892  0.00072567  0.0587277 0.0000
  4   -115.7277283287  -0.004972842184 0.00406243  0.00014067  0.0064426 0.0000
                      *** Initiating the SOSCF procedure ***
                           *** Shutting down DIIS ***
                      *** Re-Reading the Fockian *** 
                      *** Removing any level shift *** 
ITER      Energy       Delta-E        Grad      Rot      Max-DP    RMS-DP
  5   -115.72782511  -0.0000967861  0.000446  0.000446  0.000802  0.000050
               *** Restarting incremental Fock matrix formation ***
  6   -115.72783379  -0.0000086778  0.000115  0.000167  0.000436  0.000030
  7   -115.72783456  -0.0000007669  0.000053  0.000112  0.000237  0.000015
  8   -115.72783462  -0.0000000595  0.000030  0.000027  0.000041  0.000002
  9   -115.72783464  -0.0000000209  0.000008  0.000008  0.000014  0.000001
 10   -115.72783464  -0.0000000008  0.000003  0.000003  0.000006  0.000000
                 **** Energy Check signals convergence ****
              ***Rediagonalizing the Fockian in SOSCF/NRSCF***

               *****************************************************
               *                     SUCCESS                       *
               *           SCF CONVERGED AFTER  11 CYCLES          *
               *****************************************************

Setting up the final grid:

General Integration Accuracy     IntAcc      ...  4.670
Radial Grid Type                 RadialGrid  ... Gauss-Chebyshev
Angular Grid (max. acc.)         AngularGrid ... Lebedev-302
Angular grid pruning method      GridPruning ... 3 (G Style)
Weight generation scheme         WeightScheme... Becke
Basis function cutoff            BFCut       ...    1.0000e-11
Integration weight cutoff        WCut        ...    1.0000e-14
Grids for H and He will be reduced by one unit

# of grid points (after initial pruning)     ...  26000 (   0.0 sec)
# of grid points (after weights+screening)   ...  25160 (   0.0 sec)
nearest neighbour list constructed           ...    0.0 sec
Grid point re-assignment to atoms done       ...    0.0 sec
Grid point division into batches done        ...    0.1 sec
Reduced shell lists constructed in    0.1 sec

Total number of grid points                  ...    25160
Total number of batches                      ...      396
Average number of points per batch           ...       63
Average number of grid points per atom       ...     4193
Average number of shells per batch           ...    31.02 (81.63%)
Average number of basis functions per batch  ...    70.71 (82.22%)
Average number of large shells per batch     ...    29.65 (95.58%)
Average number of large basis fcns per batch ...    68.24 (96.51%)
Maximum spatial batch extension              ...  12.63, 17.09, 17.51 au
Average spatial batch extension              ...   0.29,  0.34,  0.32 au

Final grid set up in    0.1 sec
Final integration                            ... done (   0.1 sec)
Change in XC energy                          ...    -0.000314720
Integrated number of electrons               ...    18.000015713
Previous integrated no of electrons          ...    17.999575542

----------------
TOTAL SCF ENERGY
----------------

Total Energy       :         -115.72814936 Eh           -3149.12304 eV

Components:
Nuclear Repulsion  :           41.79037883 Eh            1137.17402 eV
Electronic Energy  :         -157.51852819 Eh           -4286.29706 eV
One Electron Energy:         -239.84799090 Eh           -6526.59564 eV
Two Electron Energy:           82.32946271 Eh            2240.29857 eV

Virial components:
Potential Energy   :         -231.16761608 Eh           -6290.39063 eV
Kinetic Energy     :          115.43946672 Eh            3141.26759 eV
Virial Ratio       :            2.00250073


DFT components:
N(Alpha)           :        9.000007856653 electrons
N(Beta)            :        9.000007856653 electrons
N(Total)           :       18.000015713306 electrons
E(XC)              :      -10.690763150910 Eh       
DFET-embed. en.    :        0.000000000000 Eh       

---------------
SCF CONVERGENCE
---------------

  Last Energy change         ...   -3.9707e-10  Tolerance :   1.0000e-08
  Last MAX-Density change    ...    1.7496e-06  Tolerance :   1.0000e-07
  Last RMS-Density change    ...    1.0430e-07  Tolerance :   5.0000e-09
  Last Orbital Gradient      ...    7.5586e-07  Tolerance :   1.0000e-05
  Last Orbital Rotation      ...    1.8025e-06  Tolerance :   1.0000e-05

             **** THE GBW FILE WAS UPDATED (16_charges.gbw) ****
             **** DENSITY FILE WAS UPDATED (16_charges.scfp.tmp) ****
             **** ENERGY FILE WAS UPDATED (16_charges.en.tmp) ****
----------------
ORBITAL ENERGIES
----------------

  NO   OCC          E(Eh)            E(eV) 
   0   2.0000     -19.230820      -523.2972 
   1   2.0000     -10.306481      -280.4536 
   2   2.0000      -1.168532       -31.7974 
   3   2.0000      -0.792249       -21.5582 
   4   2.0000      -0.628949       -17.1146 
   5   2.0000      -0.556138       -15.1333 
   6   2.0000      -0.538500       -14.6533 
   7   2.0000      -0.430779       -11.7221 
   8   2.0000      -0.365212        -9.9379 
   9   0.0000       0.113851         3.0980 
  10   0.0000       0.159308         4.3350 
  11   0.0000       0.205800         5.6001 
  12   0.0000       0.209901         5.7117 
  13   0.0000       0.232408         6.3242 
  14   0.0000       0.304219         8.2782 
  15   0.0000       0.318314         8.6618 
  16   0.0000       0.420700        11.4478 
  17   0.0000       0.464521        12.6403 
  18   0.0000       0.487229        13.2582 
  19   0.0000       0.521727        14.1969 
  20   0.0000       0.545475        14.8431 
  21   0.0000       0.578474        15.7411 
  22   0.0000       0.597049        16.2465 
  23   0.0000       0.627509        17.0754 
  24   0.0000       0.673284        18.3210 
  25   0.0000       0.773072        21.0363 
  26   0.0000       0.827017        22.5043 
  27   0.0000       0.866781        23.5863 
  28   0.0000       0.982551        26.7366 
  29   0.0000       1.035826        28.1863 
  30   0.0000       1.138830        30.9891 
  31   0.0000       1.368596        37.2414 
  32   0.0000       1.489988        40.5446 
  33   0.0000       1.566506        42.6268 
  34   0.0000       1.598199        43.4892 
  35   0.0000       1.628402        44.3111 
  36   0.0000       1.646126        44.7934 
  37   0.0000       1.656588        45.0780 
  38   0.0000       1.732776        47.1512 
  39   0.0000       1.777006        48.3548 
  40   0.0000       1.948782        53.0290 
  41   0.0000       2.010404        54.7059 
  42   0.0000       2.065584        56.2074 
  43   0.0000       2.090021        56.8724 
  44   0.0000       2.145437        58.3803 
  45   0.0000       2.268353        61.7250 
  46   0.0000       2.326883        63.3177 
  47   0.0000       2.365436        64.3668 
  48   0.0000       2.433519        66.2194 
  49   0.0000       2.445299        66.5400 
  50   0.0000       2.529913        68.8424 
  51   0.0000       2.583930        70.3123 
  52   0.0000       2.652804        72.1865 
  53   0.0000       2.733215        74.3746 
  54   0.0000       2.845712        77.4358 
  55   0.0000       2.904024        79.0225 
  56   0.0000       2.969455        80.8030 
  57   0.0000       2.982278        81.1519 
  58   0.0000       3.115297        84.7715 
  59   0.0000       3.201317        87.1123 
  60   0.0000       3.289093        89.5008 
  61   0.0000       3.374735        91.8312 
  62   0.0000       3.477491        94.6273 
  63   0.0000       3.561725        96.9195 
  64   0.0000       3.648712        99.2865 
  65   0.0000       3.688430       100.3673 
  66   0.0000       3.726777       101.4108 
  67   0.0000       4.030858       109.6852 
  68   0.0000       4.219772       114.8258 
  69   0.0000       4.316505       117.4581 
  70   0.0000       4.382253       119.2472 
  71   0.0000       4.524893       123.1286 
  72   0.0000       5.396308       146.8410 
  73   0.0000       5.515998       150.0979 
  74   0.0000       5.575805       151.7254 
  75   0.0000       5.894164       160.3883 
  76   0.0000       5.969022       162.4253 
  77   0.0000       6.125293       166.6777 
  78   0.0000       6.392905       173.9598 
  79   0.0000       6.544140       178.0751 
  80   0.0000       6.769859       184.2172 
  81   0.0000       6.855612       186.5507 
  82   0.0000       7.040977       191.5947 
  83   0.0000       7.243048       197.0933 
  84   0.0000      22.624951       615.6562 
  85   0.0000      43.684862      1188.7255 

                    ********************************
                    * MULLIKEN POPULATION ANALYSIS *
                    ********************************

-----------------------
MULLIKEN ATOMIC CHARGES
-----------------------
   0 C :   -0.154217
   1 O :   -0.443735
   2 H :    0.318553
   3 H :    0.077261
   4 H :    0.090235
   5 H :    0.111902
Sum of atomic charges:    0.0000000

--------------------------------
MULLIKEN REDUCED ORBITAL CHARGES
--------------------------------
  0 C s       :     3.210198  s :     3.210198
      pz      :     0.848941  p :     2.825359
      px      :     1.061077
      py      :     0.915342
      dz2     :     0.043995  d :     0.109485
      dxz     :     0.013348
      dyz     :     0.015925
      dx2y2   :     0.019963
      dxy     :     0.016255
      f0      :     0.001730  f :     0.009176
      f+1     :     0.000872
      f-1     :     0.002373
      f+2     :     0.001706
      f-2     :     0.001138
      f+3     :     0.000804
      f-3     :     0.000553
  1 O s       :     3.782779  s :     3.782779
      pz      :     1.590905  p :     4.625500
      px      :     1.309585
      py      :     1.725009
      dz2     :     0.008848  d :     0.033584
      dxz     :     0.003689
      dyz     :     0.007835
      dx2y2   :     0.010098
      dxy     :     0.003113
      f0      :     0.000212  f :     0.001872
      f+1     :     0.000286
      f-1     :     0.000340
      f+2     :     0.000212
      f-2     :     0.000266
      f+3     :     0.000451
      f-3     :     0.000105
  2 H s       :     0.633447  s :     0.633447
      pz      :     0.013823  p :     0.048000
      px      :     0.019105
      py      :     0.015072
  3 H s       :     0.903837  s :     0.903837
      pz      :     0.010187  p :     0.018902
      px      :     0.004091
      py      :     0.004624
  4 H s       :     0.889936  s :     0.889936
      pz      :     0.003689  p :     0.019828
      px      :     0.006441
      py      :     0.009698
  5 H s       :     0.867399  s :     0.867399
      pz      :     0.003801  p :     0.020699
      px      :     0.012541
      py      :     0.004357


                     *******************************
                     * LOEWDIN POPULATION ANALYSIS *
                     *******************************

----------------------
LOEWDIN ATOMIC CHARGES
----------------------
   0 C :   -0.454994
   1 O :   -0.008716
   2 H :    0.176585
   3 H :    0.092559
   4 H :    0.091126
   5 H :    0.103439

-------------------------------
LOEWDIN REDUCED ORBITAL CHARGES
-------------------------------
  0 C s       :     2.842084  s :     2.842084
      pz      :     0.965547  p :     3.057554
      px      :     1.079847
      py      :     1.012161
      dz2     :     0.179932  d :     0.482556
      dxz     :     0.048229
      dyz     :     0.103618
      dx2y2   :     0.082087
      dxy     :     0.068690
      f0      :     0.010876  f :     0.072800
      f+1     :     0.010353
      f-1     :     0.015851
      f+2     :     0.014715
      f-2     :     0.010073
      f+3     :     0.006768
      f-3     :     0.004164
  1 O s       :     3.319602  s :     3.319602
      pz      :     1.602527  p :     4.596334
      px      :     1.318773
      py      :     1.675034
      dz2     :     0.024521  d :     0.086593
      dxz     :     0.011209
      dyz     :     0.017895
      dx2y2   :     0.024792
      dxy     :     0.008175
      f0      :     0.000959  f :     0.006188
      f+1     :     0.000965
      f-1     :     0.001001
      f+2     :     0.000955
      f-2     :     0.000892
      f+3     :     0.001049
      f-3     :     0.000367
  2 H s       :     0.665742  s :     0.665742
      pz      :     0.038512  p :     0.157673
      px      :     0.077385
      py      :     0.041775
  3 H s       :     0.852320  s :     0.852320
      pz      :     0.028617  p :     0.055122
      px      :     0.012191
      py      :     0.014314
  4 H s       :     0.848007  s :     0.848007
      pz      :     0.011418  p :     0.060867
      px      :     0.020211
      py      :     0.029238
  5 H s       :     0.835085  s :     0.835085
      pz      :     0.011228  p :     0.061476
      px      :     0.036682
      py      :     0.013566


                      *****************************
                      * MAYER POPULATION ANALYSIS *
                      *****************************

  NA   - Mulliken gross atomic population
  ZA   - Total nuclear charge
  QA   - Mulliken gross atomic charge
  VA   - Mayer's total valence
  BVA  - Mayer's bonded valence
  FA   - Mayer's free valence

  ATOM       NA         ZA         QA         VA         BVA        FA
  0 C      6.1542     6.0000    -0.1542     3.9663     3.9663     0.0000
  1 O      8.4437     8.0000    -0.4437     1.9026     1.9026     0.0000
  2 H      0.6814     1.0000     0.3186     0.9079     0.9079     0.0000
  3 H      0.9227     1.0000     0.0773     0.9522     0.9522     0.0000
  4 H      0.9098     1.0000     0.0902     0.9656     0.9656    -0.0000
  5 H      0.8881     1.0000     0.1119     0.9560     0.9560     0.0000

  Mayer bond orders larger than 0.1
B(  0-C ,  1-O ) :   1.0191 B(  0-C ,  3-H ) :   0.9734 B(  0-C ,  4-H ) :   0.9923 
B(  0-C ,  5-H ) :   0.9727 B(  1-O ,  2-H ) :   0.8980 


------------------
HIRSHFELD ANALYSIS
------------------

Total integrated alpha density =      8.999787771
Total integrated beta density  =      8.999787771

  ATOM     CHARGE      SPIN    
   0 C    0.002393    0.000000
   1 O   -0.235415    0.000000
   2 H    0.167933    0.000000
   3 H    0.008976    0.000000
   4 H    0.021522    0.000000
   5 H    0.035015    0.000000

  TOTAL   0.000424    0.000000

-------
TIMINGS
-------

Total SCF time: 0 days 0 hours 0 min 29 sec 

Total time                  ....      29.476 sec
Sum of individual times     ....      26.979 sec  ( 91.5%)

Fock matrix formation       ....      14.798 sec  ( 50.2%)
  XC integration            ....       3.216 sec  ( 21.7% of F)
    Basis function eval.    ....       0.056 sec  (  1.8% of XC)
    Density eval.           ....       0.050 sec  (  1.6% of XC)
    XC-Functional eval.     ....       0.072 sec  (  2.2% of XC)
    XC-Potential eval.      ....       0.038 sec  (  1.2% of XC)
Diagonalization             ....       1.599 sec  (  5.4%)
Density matrix formation    ....       0.724 sec  (  2.5%)
Population analysis         ....       0.029 sec  (  0.1%)
Initial guess               ....       0.444 sec  (  1.5%)
Orbital Transformation      ....       0.000 sec  (  0.0%)
Orbital Orthonormalization  ....       0.000 sec  (  0.0%)
DIIS solution               ....       0.401 sec  (  1.4%)
SOSCF solution              ....       0.374 sec  (  1.3%)
Grid generation             ....       8.611 sec  ( 29.2%)


-------------------------------------------------------------------------------
                          DFT DISPERSION CORRECTION                            
                                                                               
                              DFTD3 V3.1  Rev 1                                
                              USING zero damping                               
-------------------------------------------------------------------------------
The omegaB97X-D3 functional is recognized. Fit by Chai et al.
Active option DFTDOPT                   ...         3   

molecular C6(AA) [au] = 208.606146 


            DFT-D V3
 parameters
 s6 scaling factor         :     1.0000 
 rs6 scaling factor        :     1.2810 
 s8 scaling factor         :     1.0000 
 rs8 scaling factor        :     1.0940 
 Damping factor alpha6     :    14.0000 
 Damping factor alpha8     :    16.0000 
 ad hoc parameters k1-k3   :    16.0000     1.3333    -4.0000 

 Edisp/kcal,au: -0.128501090970  -0.000204779501 
 E6   /kcal   :  -0.025255086 
 E8   /kcal   :  -0.103246005 
 % E8         :  80.346403214 

-------------------------   ----------------
Dispersion correction           -0.000204780
-------------------------   ----------------


-------------------------   --------------------
FINAL SINGLE POINT ENERGY      -115.728354141087
-------------------------   --------------------


                            ***************************************
                            *     ORCA property calculations      *
                            ***************************************

                                    ---------------------
                                    Active property flags
                                    ---------------------
   (+) Dipole Moment


------------------------------------------------------------------------------
                       ORCA ELECTRIC PROPERTIES CALCULATION
------------------------------------------------------------------------------

Dipole Moment Calculation                       ... on
Quadrupole Moment Calculation                   ... off
Polarizability Calculation                      ... off
GBWName                                         ... 16_charges.gbw
Electron density file                           ... 16_charges.scfp.tmp
The origin for moment calculation is the CENTER OF MASS  = (-8.678677,  5.455083 -1.689317)

-------------
DIPOLE MOMENT
-------------
                                X             Y             Z
Electronic contribution:     -0.43194       1.04928      -1.57127
Nuclear contribution   :     -0.01819      -1.35321       1.90058
                        -----------------------------------------
Total Dipole Moment    :     -0.45014      -0.30394       0.32931
                        -----------------------------------------
Magnitude (a.u.)       :      0.63517
Magnitude (Debye)      :      1.61448



--------------------
Rotational spectrum 
--------------------
 
Rotational constants in cm-1:     4.365272     0.915612     0.875580 
Rotational constants in MHz : 130867.576438 27449.342397 26249.225784 

 Dipole components along the rotational axes: 
x,y,z [a.u.] :     0.242169     0.585018    -0.050534 
x,y,z [Debye]:     0.615545     1.486997    -0.128447 

 
------------------------------------------------------------------------------
                      ORCA CHELPG CHARGES GENERATION
------------------------------------------------------------------------------

GBW file                           ... 16_charges.gbw

Reading the GBW file               ... done

Grid spacing                       ...     0.300000
Point Cut-Off                      ...     2.800000
Van-der-Waals Radii                ...        COSMO
Total charge                       ...            0


Number of points X direction       ...           26
Number of points Y direction       ...           24
Number of points Z direction       ...           25
Maximum number of possible points  ...        15600
Final number of points             ...         5838


CHELPG Charges            
--------------------------------
  0   C   :       0.182378
  1   O   :      -0.604625
  2   H   :       0.413237
  3   H   :      -0.021856
  4   H   :      -0.024456
  5   H   :       0.055323
--------------------------------
Total charge:    -0.000000
--------------------------------

CHELPG charges calculated...

Timings for individual parts in CHELPG calculation:
Grid generation                 ...        0.002 sec (=   0.000 min)
Potential calculation           ...        0.679 sec (=   0.011 min)
Fit to the potential            ...        0.001 sec (=   0.000 min)
------------------------------------------------------------------------------


Timings for individual modules:

Sum of individual times         ...       39.005 sec (=   0.650 min)
GTO integral calculation        ...        4.602 sec (=   0.077 min)  11.8 %
SCF iterations                  ...       33.667 sec (=   0.561 min)  86.3 %
CHELPG charge generation        ...        0.736 sec (=   0.012 min)   1.9 %
                             ****ORCA TERMINATED NORMALLY****
TOTAL RUN TIME: 0 days 0 hours 0 minutes 41 seconds 477 msec
