
                                 *****************
                                 * O   R   C   A *
                                 *****************

           --- An Ab Initio, DFT and Semiempirical electronic structure package ---

                  #######################################################
                  #                        -***-                        #
                  #          Department of theory and spectroscopy      #
                  #               Directorship: Frank Neese             #
                  #        Max Planck Institute fuer Kohlenforschung    #
                  #                Kaiser Wilhelm Platz 1               #
                  #                 D-45470 Muelheim/Ruhr               #
                  #                      Germany                        #
                  #                                                     #
                  #                  All rights reserved                #
                  #                        -***-                        #
                  #######################################################


                         Program Version 4.1.2  - RELEASE  -


 With contributions from (in alphabetic order):
   Daniel Aravena         : Magnetic Properties
   Michael Atanasov       : Ab Initio Ligand Field Theory
   Alexander A. Auer      : GIAO ZORA
   Ute Becker             : Parallelization
   Giovanni Bistoni       : ED, Open-shell LED
   Martin Brehm           : Molecular dynamics
   Dmytro Bykov           : SCF Hessian
   Vijay G. Chilkuri      : MRCI spin determinant printing
   Dipayan Datta          : RHF DLPNO-CCSD density
   Achintya Kumar Dutta   : EOM-CC, STEOM-CC
   Dmitry Ganyushin       : Spin-Orbit,Spin-Spin,Magnetic field MRCI
   Miquel Garcia          : C-PCM Hessian
   Yang Guo               : DLPNO-NEVPT2, CIM, IAO-localization
   Andreas Hansen         : Spin unrestricted coupled pair/coupled cluster methods
   Benjamin Helmich-Paris : CASSCF linear response (MC-RPA)
   Lee Huntington         : MR-EOM, pCC
   Robert Izsak           : Overlap fitted RIJCOSX, COSX-SCS-MP3, EOM
   Christian Kollmar      : KDIIS, OOCD, Brueckner-CCSD(T), CCSD density
   Simone Kossmann        : Meta GGA functionals, TD-DFT gradient, OOMP2, MP2 Hessian
   Martin Krupicka        : AUTO-CI
   Lucas Lang             : DCDCAS
   Dagmar Lenk            : GEPOL surface, SMD
   Dimitrios Liakos       : Extrapolation schemes; parallel MDCI
   Dimitrios Manganas     : ROCIS; embedding schemes
   Dimitrios Pantazis     : SARC Basis sets
   Taras Petrenko         : DFT Hessian,TD-DFT gradient, ASA, ECA, R-Raman, ABS, FL, XAS/XES, NRVS
   Peter Pinski           : DLPNO-MP2, DLPNO-MP2 Gradient
   Christoph Reimann      : Effective Core Potentials
   Marius Retegan         : Local ZFS, SOC
   Christoph Riplinger    : Optimizer, TS searches, QM/MM, DLPNO-CCSD(T), (RO)-DLPNO pert. Triples
   Tobias Risthaus        : Range-separated hybrids, TD-DFT gradient, RPA, STAB
   Michael Roemelt        : Restricted open shell CIS
   Masaaki Saitow         : Open-shell DLPNO
   Barbara Sandhoefer     : DKH picture change effects
   Avijit Sen             : IP-ROCIS
   Kantharuban Sivalingam : CASSCF convergence, NEVPT2, FIC-MRCI
   Bernardo de Souza      : ESD, SOC TD-DFT
   Georgi Stoychev        : AutoAux, RI-MP2 NMR
   Willem Van den Heuvel  : Paramagnetic NMR
   Boris Wezisla          : Elementary symmetry handling
   Frank Wennmohs         : Technical directorship


 We gratefully acknowledge several colleagues who have allowed us to
 interface, adapt or use parts of their codes:
   Stefan Grimme, W. Hujo, H. Kruse,             : VdW corrections, initial TS optimization,
                  C. Bannwarth                     DFT functionals, gCP, sTDA/sTD-DF
   Ed Valeev                                     : LibInt (2-el integral package), F12 methods
   Garnet Chan, S. Sharma, J. Yang, R. Olivares  : DMRG
   Ulf Ekstrom                                   : XCFun DFT Library
   Mihaly Kallay                                 : mrcc  (arbitrary order and MRCC methods)
   Andreas Klamt, Michael Diedenhofen            : otool_cosmo (COSMO solvation model)
   Jiri Pittner, Ondrej Demel                    : Mk-CCSD
   Frank Weinhold                                : gennbo (NPA and NBO analysis)
   Christopher J. Cramer and Donald G. Truhlar   : smd solvation model
   Lars Goerigk                                  : TD-DFT with DH, B97 family of functionals
   V. Asgeirsson, H. Jonsson                     : NEB implementation
   FAccTs GmbH                                   : IRC, NEB, NEB-TS, Multilevel


 Your calculation uses the libint2 library for the computation of 2-el integrals
 For citations please refer to: http://libint.valeyev.net

 This ORCA versions uses:
   CBLAS   interface :  Fast vector & matrix operations
   LAPACKE interface :  Fast linear algebra routines
   SCALAPACK package :  Parallel linear algebra routines


Your calculation utilizes the atom-pairwise dispersion correction
with the zero-damping scheme (D30)
Cite in your paper:
S.Grimme, J.Antony, S.Ehrlich and H.Krieg, J.Chem.Phys., 132, (2010), 154104 
   

XCFun DFT library Copyright 2009-2010 Ulf Ekstrom and contributors.
See http://admol.org/xcfun for more information. This is free soft-
ware; see the source code for copying conditions. There is ABSOLUTELY
NO WARRANTY; not even for MERCHANTABILITY or FITNESS FOR A PARTICULAR
PURPOSE. For details see the documentation. Scientific users of this 
library should cite U. Ekstrom, L. Visscher, R. Bast, A. J. Thorvald-
sen and K. Ruud; J.Chem.Theor.Comp. 2010, DOI: 10.1021/ct100117s
XCFun Version 0.99 
----- Orbital basis set information -----
Your calculation utilizes the basis: def2-TZVP
   F. Weigend and R. Ahlrichs, Phys. Chem. Chem. Phys. 7, 3297 (2005).

================================================================================
                                        WARNINGS
                       Please study these warnings very carefully!
================================================================================


INFO   : the flag for use of LIBINT has been found!

================================================================================
                                       INPUT FILE
================================================================================
NAME = 101.in
|  1> #Run DFT-D3 single point of the dimer
|  2> ! wB97X-D3 def2-TZVP TIGHTSCF  CHELPG PAL8
|  3> 
|  4> %base "101_charges"
|  5> 
|  6> %scf
|  7> MaxIter 1000
|  8> end
|  9> %output
| 10>   Print[ P_Mayer ] 1
| 11>   Print[ P_NatPop ] 1
| 12>   Print[ P_Hirshfeld ] 1
| 13>   Print[ P_Mulliken ] 1
| 14>   Print [ P_Loewdin ] 1
| 15> end
| 16> 
| 17> * xyz 0 1
| 18>   C                      6.136890             4.513762             6.511239            
| 19>   O                      6.341691             4.452216             5.096472            
| 20>   H                      7.227315             4.174487             5.012936            
| 21>   H                      6.621024             3.648944             7.024267            
| 22>   H                      6.603303             5.385847             6.873901            
| 23>   H                      5.124384             4.700633             6.804220            
| 24> *
| 25> 
| 26>                          ****END OF INPUT****
================================================================================

                       ****************************
                       * Single Point Calculation *
                       ****************************

---------------------------------
CARTESIAN COORDINATES (ANGSTROEM)
---------------------------------
  C      6.136890    4.513762    6.511239
  O      6.341691    4.452216    5.096472
  H      7.227315    4.174487    5.012936
  H      6.621024    3.648944    7.024267
  H      6.603303    5.385847    6.873901
  H      5.124384    4.700633    6.804220

----------------------------
CARTESIAN COORDINATES (A.U.)
----------------------------
  NO LB      ZA    FRAG     MASS         X           Y           Z
   0 C     6.0000    0    12.011   11.597041    8.529774   12.304459
   1 O     8.0000    0    15.999   11.984059    8.413469    9.630936
   2 H     1.0000    0     1.008   13.657646    7.888637    9.473076
   3 H     1.0000    0     1.008   12.511922    6.895505   13.273941
   4 H     1.0000    0     1.008   12.478434   10.177776   12.989790
   5 H     1.0000    0     1.008    9.683682    8.882909   12.858112

--------------------------------
INTERNAL COORDINATES (ANGSTROEM)
--------------------------------
 C      0   0   0     0.000000000000     0.00000000     0.00000000
 O      1   0   0     1.430837874815     0.00000000     0.00000000
 H      2   1   0     0.931902103288   103.73775545     0.00000000
 H      1   2   3     1.116016860027   111.04543074   319.29577595
 H      1   2   3     1.053374131084   108.21921538    76.36927235
 H      1   2   3     1.070479816268   114.42539541   187.32649107

---------------------------
INTERNAL COORDINATES (A.U.)
---------------------------
 C      0   0   0     0.000000000000     0.00000000     0.00000000
 O      1   0   0     2.703891725443     0.00000000     0.00000000
 H      2   1   0     1.761039758840   103.73775545     0.00000000
 H      1   2   3     2.108966226289   111.04543074   319.29577595
 H      1   2   3     1.990588624307   108.21921538    76.36927235
 H      1   2   3     2.022913684638   114.42539541   187.32649107

---------------------
BASIS SET INFORMATION
---------------------
There are 3 groups of distinct atoms

 Group   1 Type C   : 11s6p2d1f contracted to 5s3p2d1f pattern {62111/411/11/1}
 Group   2 Type O   : 11s6p2d1f contracted to 5s3p2d1f pattern {62111/411/11/1}
 Group   3 Type H   : 5s1p contracted to 3s1p pattern {311/1}

Atom   0C    basis set group =>   1
Atom   1O    basis set group =>   2
Atom   2H    basis set group =>   3
Atom   3H    basis set group =>   3
Atom   4H    basis set group =>   3
Atom   5H    basis set group =>   3


           ************************************************************
           *        Program running with 8 parallel MPI-processes     *
           *              working on a common directory               *
           ************************************************************
------------------------------------------------------------------------------
                           ORCA GTO INTEGRAL CALCULATION
------------------------------------------------------------------------------

                         BASIS SET STATISTICS AND STARTUP INFO

 # of primitive gaussian shells          ...   64
 # of primitive gaussian functions       ...  124
 # of contracted shells                  ...   38
 # of contracted basis functions         ...   86
 Highest angular momentum                ...    3
 Maximum contraction depth               ...    6
 Integral package used                   ... LIBINT
 Integral threshhold            Thresh   ...  2.500e-11
 Primitive cut-off              TCut     ...  2.500e-12


------------------------------ INTEGRAL EVALUATION ----------------------------


 * One electron integrals 
 Pre-screening matrix                    ... done
 Shell pair data                         ... done (   0.000 sec)



           ************************************************************
           *        Program running with 8 parallel MPI-processes     *
           *              working on a common directory               *
           ************************************************************
-------------------------------------------------------------------------------
                                 ORCA SCF
-------------------------------------------------------------------------------

------------
SCF SETTINGS
------------
Hamiltonian:
 Density Functional     Method          .... DFT(GTOs)
 Exchange Functional    Exchange        .... WB97X-D3
 Correlation Functional Correlation     .... WB97X-D3
 Gradients option       PostSCFGGA      .... off
 Hybrid DFT is turned on
   Fraction HF Exchange ScalHFX         ....  0.195728
   Scaling of DF-GGA-X  ScalDFX         ....  0.000000
   Scaling of DF-GGA-C  ScalDFC         ....  1.000000
   Scaling of DF-LDA-C  ScalLDAC        ....  1.000000
   Perturbative correction              ....  0.000000
   Density functional embedding theory  .... OFF
 Long-range corrected/Screened/Range-Separated Hybrid DFT is turned on
   Amount of maximum screened exact exchange              ....  0.804272
   Range separation parameter mu (erf(mu*r12)/r12)        ....  0.250000


General Settings:
 Integral files         IntName         .... 101_charges
 Hartree-Fock type      HFTyp           .... RHF
 Total Charge           Charge          ....    0
 Multiplicity           Mult            ....    1
 Number of Electrons    NEL             ....   18
 Basis Dimension        Dim             ....   86
 Nuclear Repulsion      ENuc            ....     40.4872734143 Eh

Convergence Acceleration:
 DIIS                   CNVDIIS         .... on
   Start iteration      DIISMaxIt       ....    12
   Startup error        DIISStart       ....  0.200000
   # of expansion vecs  DIISMaxEq       ....     5
   Bias factor          DIISBfac        ....   1.050
   Max. coefficient     DIISMaxC        ....  10.000
 Newton-Raphson         CNVNR           .... off
 SOSCF                  CNVSOSCF        .... on
   Start iteration      SOSCFMaxIt      ....   150
   Startup grad/error   SOSCFStart      ....  0.003300
 Level Shifting         CNVShift        .... on
   Level shift para.    LevelShift      ....    0.2500
   Turn off err/grad.   ShiftErr        ....    0.0010
 Zerner damping         CNVZerner       .... off
 Static damping         CNVDamp         .... on
   Fraction old density DampFac         ....    0.7000
   Max. Damping (<1)    DampMax         ....    0.9800
   Min. Damping (>=0)   DampMin         ....    0.0000
   Turn off err/grad.   DampErr         ....    0.1000
 Fernandez-Rico         CNVRico         .... off

SCF Procedure:
 Maximum # iterations   MaxIter         ....  1000
 SCF integral mode      SCFMode         .... Direct
   Integral package                     .... LIBINT
 Reset frequency        DirectResetFreq ....    20
 Integral Threshold     Thresh          ....  2.500e-11 Eh
 Primitive CutOff       TCut            ....  2.500e-12 Eh

Convergence Tolerance:
 Convergence Check Mode ConvCheckMode   .... Total+1el-Energy
 Convergence forced     ConvForced      .... 0
 Energy Change          TolE            ....  1.000e-08 Eh
 1-El. energy change                    ....  1.000e-05 Eh
 Orbital Gradient       TolG            ....  1.000e-05
 Orbital Rotation angle TolX            ....  1.000e-05
 DIIS Error             TolErr          ....  5.000e-07


Diagonalization of the overlap matrix:
Smallest eigenvalue                        ... 1.563e-03
Time for diagonalization                   ...    0.034 sec
Threshold for overlap eigenvalues          ... 1.000e-08
Number of eigenvalues below threshold      ... 0
Time for construction of square roots      ...    0.142 sec
Total time needed                          ...    0.176 sec

-------------------
DFT GRID GENERATION
-------------------

General Integration Accuracy     IntAcc      ...  4.340
Radial Grid Type                 RadialGrid  ... Gauss-Chebyshev
Angular Grid (max. acc.)         AngularGrid ... Lebedev-110
Angular grid pruning method      GridPruning ... 3 (G Style)
Weight generation scheme         WeightScheme... Becke
Basis function cutoff            BFCut       ...    1.0000e-11
Integration weight cutoff        WCut        ...    1.0000e-14
Grids for H and He will be reduced by one unit

# of grid points (after initial pruning)     ...   6548 (   0.0 sec)
# of grid points (after weights+screening)   ...   6379 (   0.4 sec)
nearest neighbour list constructed           ...    0.0 sec
Grid point re-assignment to atoms done       ...    0.0 sec
Grid point division into batches done        ...    0.0 sec
Reduced shell lists constructed in    0.0 sec

Total number of grid points                  ...     6379
Total number of batches                      ...      103
Average number of points per batch           ...       61
Average number of grid points per atom       ...     1063
Average number of shells per batch           ...    31.29 (82.33%)
Average number of basis functions per batch  ...    71.29 (82.89%)
Average number of large shells per batch     ...    30.36 (97.03%)
Average number of large basis fcns per batch ...    69.64 (97.70%)
Maximum spatial batch extension              ...  15.96, 16.54, 15.65 au
Average spatial batch extension              ...   0.43,  0.45,  0.44 au

Time for grid setup =    0.933 sec

------------------------------
INITIAL GUESS: MODEL POTENTIAL
------------------------------
Loading Hartree-Fock densities                     ... done
Calculating cut-offs                               ... done
Setting up the integral package                    ... done
Initializing the effective Hamiltonian             ... done
Starting the Coulomb interaction                   ... done (   0.0 sec)
Reading the grid                                   ... done
Mapping shells                                     ... done
Starting the XC term evaluation                    ... done (   0.2 sec)
  promolecular density results
     # of electrons  =     17.990626606
     EX              =    -14.437933689
     EC              =     -0.576120039
     EX+EC           =    -15.014053728
Transforming the Hamiltonian                       ... done (   0.0 sec)
Diagonalizing the Hamiltonian                      ... done (   0.8 sec)
Back transforming the eigenvectors                 ... done (   0.0 sec)
Now organizing SCF variables                       ... done
                      ------------------
                      INITIAL GUESS DONE (   2.4 sec)
                      ------------------
--------------
SCF ITERATIONS
--------------
ITER       Energy         Delta-E        Max-DP      RMS-DP      [F,P]     Damp
               ***  Starting incremental Fock matrix formation  ***
  0   -115.6418253519   0.000000000000 0.03747922  0.00150479  0.2531791 0.7000
  1   -115.6791099369  -0.037284584965 0.02265677  0.00106765  0.1278327 0.7000
                               ***Turning on DIIS***
  2   -115.6964757494  -0.017365812523 0.03591727  0.00194165  0.0511184 0.0000
  3   -115.7248305975  -0.028354848135 0.01847027  0.00070220  0.0617954 0.0000
  4   -115.7293132622  -0.004482664696 0.00412408  0.00013445  0.0069838 0.0000
                      *** Initiating the SOSCF procedure ***
                           *** Shutting down DIIS ***
                      *** Re-Reading the Fockian *** 
                      *** Removing any level shift *** 
ITER      Energy       Delta-E        Grad      Rot      Max-DP    RMS-DP
  5   -115.72940631  -0.0000930430  0.000440  0.000440  0.000721  0.000045
               *** Restarting incremental Fock matrix formation ***
  6   -115.72941457  -0.0000082664  0.000136  0.000240  0.000486  0.000027
  7   -115.72941535  -0.0000007807  0.000049  0.000130  0.000224  0.000012
  8   -115.72941542  -0.0000000674  0.000019  0.000017  0.000029  0.000001
  9   -115.72941543  -0.0000000056  0.000010  0.000008  0.000012  0.000001
 10   -115.72941543  -0.0000000016  0.000003  0.000002  0.000003  0.000000
                  ***Gradient check signals convergence***
              ***Rediagonalizing the Fockian in SOSCF/NRSCF***

               *****************************************************
               *                     SUCCESS                       *
               *           SCF CONVERGED AFTER  11 CYCLES          *
               *****************************************************

Setting up the final grid:

General Integration Accuracy     IntAcc      ...  4.670
Radial Grid Type                 RadialGrid  ... Gauss-Chebyshev
Angular Grid (max. acc.)         AngularGrid ... Lebedev-302
Angular grid pruning method      GridPruning ... 3 (G Style)
Weight generation scheme         WeightScheme... Becke
Basis function cutoff            BFCut       ...    1.0000e-11
Integration weight cutoff        WCut        ...    1.0000e-14
Grids for H and He will be reduced by one unit

# of grid points (after initial pruning)     ...  26000 (   0.0 sec)
# of grid points (after weights+screening)   ...  25153 (   1.6 sec)
nearest neighbour list constructed           ...    0.0 sec
Grid point re-assignment to atoms done       ...    0.0 sec
Grid point division into batches done        ...    0.1 sec
Reduced shell lists constructed in    0.1 sec

Total number of grid points                  ...    25153
Total number of batches                      ...      395
Average number of points per batch           ...       63
Average number of grid points per atom       ...     4192
Average number of shells per batch           ...    30.76 (80.96%)
Average number of basis functions per batch  ...    70.29 (81.74%)
Average number of large shells per batch     ...    29.35 (95.41%)
Average number of large basis fcns per batch ...    67.51 (96.04%)
Maximum spatial batch extension              ...  12.42, 15.85, 16.92 au
Average spatial batch extension              ...   0.29,  0.35,  0.34 au

Final grid set up in    2.1 sec
Final integration                            ... done (   0.2 sec)
Change in XC energy                          ...     0.000025317
Integrated number of electrons               ...    17.999996038
Previous integrated no of electrons          ...    17.995995126

----------------
TOTAL SCF ENERGY
----------------

Total Energy       :         -115.72939011 Eh           -3149.15680 eV

Components:
Nuclear Repulsion  :           40.48727341 Eh            1101.71472 eV
Electronic Energy  :         -156.21666352 Eh           -4250.87152 eV
One Electron Energy:         -237.34221698 Eh           -6458.41006 eV
Two Electron Energy:           81.12555346 Eh            2207.53854 eV

Virial components:
Potential Energy   :         -231.06836712 Eh           -6287.68993 eV
Kinetic Energy     :          115.33897702 Eh            3138.53312 eV
Virial Ratio       :            2.00338492


DFT components:
N(Alpha)           :        8.999998018796 electrons
N(Beta)            :        8.999998018796 electrons
N(Total)           :       17.999996037593 electrons
E(XC)              :      -10.671388956396 Eh       
DFET-embed. en.    :        0.000000000000 Eh       

---------------
SCF CONVERGENCE
---------------

  Last Energy change         ...   -1.0796e-10  Tolerance :   1.0000e-08
  Last MAX-Density change    ...    1.9479e-06  Tolerance :   1.0000e-07
  Last RMS-Density change    ...    9.2065e-08  Tolerance :   5.0000e-09
  Last Orbital Gradient      ...    1.2447e-06  Tolerance :   1.0000e-05
  Last Orbital Rotation      ...    9.7207e-07  Tolerance :   1.0000e-05

             **** THE GBW FILE WAS UPDATED (101_charges.gbw) ****
             **** DENSITY FILE WAS UPDATED (101_charges.scfp.tmp) ****
             **** ENERGY FILE WAS UPDATED (101_charges.en.tmp) ****
----------------
ORBITAL ENERGIES
----------------

  NO   OCC          E(Eh)            E(eV) 
   0   2.0000     -19.227263      -523.2004 
   1   2.0000     -10.310262      -280.5565 
   2   2.0000      -1.139049       -30.9951 
   3   2.0000      -0.801762       -21.8170 
   4   2.0000      -0.609481       -16.5848 
   5   2.0000      -0.544167       -14.8075 
   6   2.0000      -0.529025       -14.3955 
   7   2.0000      -0.441929       -12.0255 
   8   2.0000      -0.371994       -10.1225 
   9   0.0000       0.116878         3.1804 
  10   0.0000       0.156789         4.2664 
  11   0.0000       0.200334         5.4514 
  12   0.0000       0.210637         5.7317 
  13   0.0000       0.225347         6.1320 
  14   0.0000       0.298913         8.1338 
  15   0.0000       0.326173         8.8756 
  16   0.0000       0.393191        10.6993 
  17   0.0000       0.443543        12.0694 
  18   0.0000       0.493042        13.4164 
  19   0.0000       0.528447        14.3798 
  20   0.0000       0.550734        14.9862 
  21   0.0000       0.572085        15.5672 
  22   0.0000       0.601926        16.3792 
  23   0.0000       0.631901        17.1949 
  24   0.0000       0.677870        18.4458 
  25   0.0000       0.766507        20.8577 
  26   0.0000       0.809941        22.0396 
  27   0.0000       0.864336        23.5198 
  28   0.0000       0.986875        26.8542 
  29   0.0000       1.023006        27.8374 
  30   0.0000       1.102571        30.0025 
  31   0.0000       1.374159        37.3928 
  32   0.0000       1.489597        40.5340 
  33   0.0000       1.537389        41.8345 
  34   0.0000       1.566632        42.6302 
  35   0.0000       1.640230        44.6329 
  36   0.0000       1.658725        45.1362 
  37   0.0000       1.672236        45.5039 
  38   0.0000       1.710984        46.5582 
  39   0.0000       1.800367        48.9905 
  40   0.0000       1.963140        53.4198 
  41   0.0000       2.000598        54.4390 
  42   0.0000       2.065710        56.2108 
  43   0.0000       2.083961        56.7075 
  44   0.0000       2.131795        58.0091 
  45   0.0000       2.265712        61.6532 
  46   0.0000       2.307878        62.8005 
  47   0.0000       2.348650        63.9100 
  48   0.0000       2.394022        65.1447 
  49   0.0000       2.457967        66.8847 
  50   0.0000       2.524124        68.6849 
  51   0.0000       2.608049        70.9686 
  52   0.0000       2.664507        72.5049 
  53   0.0000       2.754009        74.9404 
  54   0.0000       2.834521        77.1312 
  55   0.0000       2.877394        78.2979 
  56   0.0000       2.910266        79.1924 
  57   0.0000       2.983262        81.1787 
  58   0.0000       3.110577        84.6431 
  59   0.0000       3.148293        85.6694 
  60   0.0000       3.278752        89.2194 
  61   0.0000       3.383015        92.0565 
  62   0.0000       3.442758        93.6822 
  63   0.0000       3.492040        95.0232 
  64   0.0000       3.593020        97.7711 
  65   0.0000       3.635598        98.9297 
  66   0.0000       3.702896       100.7609 
  67   0.0000       4.060771       110.4992 
  68   0.0000       4.200094       114.2904 
  69   0.0000       4.393030       119.5404 
  70   0.0000       4.427735       120.4848 
  71   0.0000       4.565995       124.2470 
  72   0.0000       5.349037       145.5547 
  73   0.0000       5.469425       148.8306 
  74   0.0000       5.554097       151.1347 
  75   0.0000       5.757979       156.6826 
  76   0.0000       5.799675       157.8172 
  77   0.0000       6.003046       163.3512 
  78   0.0000       6.429710       174.9613 
  79   0.0000       6.532352       177.7543 
  80   0.0000       6.774451       184.3422 
  81   0.0000       6.805016       185.1739 
  82   0.0000       7.029469       191.2816 
  83   0.0000       7.228907       196.7086 
  84   0.0000      22.414611       609.9326 
  85   0.0000      43.637099      1187.4258 

                    ********************************
                    * MULLIKEN POPULATION ANALYSIS *
                    ********************************

-----------------------
MULLIKEN ATOMIC CHARGES
-----------------------
   0 C :   -0.171962
   1 O :   -0.465652
   2 H :    0.307901
   3 H :    0.102818
   4 H :    0.106346
   5 H :    0.120549
Sum of atomic charges:    0.0000000

--------------------------------
MULLIKEN REDUCED ORBITAL CHARGES
--------------------------------
  0 C s       :     3.217927  s :     3.217927
      pz      :     0.695816  p :     2.853208
      px      :     1.099143
      py      :     1.058250
      dz2     :     0.016825  d :     0.093685
      dxz     :     0.028568
      dyz     :     0.036091
      dx2y2   :     0.005524
      dxy     :     0.006678
      f0      :     0.002243  f :     0.007141
      f+1     :     0.001796
      f-1     :     0.002409
      f+2     :     0.000088
      f-2     :     0.000036
      f+3     :     0.000486
      f-3     :     0.000084
  1 O s       :     3.798102  s :     3.798102
      pz      :     1.361792  p :     4.635756
      px      :     1.409479
      py      :     1.864485
      dz2     :     0.013262  d :     0.030159
      dxz     :     0.003863
      dyz     :     0.004292
      dx2y2   :     0.005655
      dxy     :     0.003088
      f0      :     0.000336  f :     0.001635
      f+1     :     0.000318
      f-1     :     0.000226
      f+2     :     0.000072
      f-2     :     0.000036
      f+3     :     0.000268
      f-3     :     0.000379
  2 H s       :     0.641107  s :     0.641107
      pz      :     0.012051  p :     0.050992
      px      :     0.019696
      py      :     0.019245
  3 H s       :     0.878669  s :     0.878669
      pz      :     0.004512  p :     0.018513
      px      :     0.005128
      py      :     0.008874
  4 H s       :     0.872303  s :     0.872303
      pz      :     0.004504  p :     0.021351
      px      :     0.006633
      py      :     0.010214
  5 H s       :     0.858119  s :     0.858119
      pz      :     0.003563  p :     0.021333
      px      :     0.012475
      py      :     0.005295


                     *******************************
                     * LOEWDIN POPULATION ANALYSIS *
                     *******************************

----------------------
LOEWDIN ATOMIC CHARGES
----------------------
   0 C :   -0.368576
   1 O :   -0.076061
   2 H :    0.151100
   3 H :    0.101758
   4 H :    0.087848
   5 H :    0.103931

-------------------------------
LOEWDIN REDUCED ORBITAL CHARGES
-------------------------------
  0 C s       :     2.855942  s :     2.855942
      pz      :     0.834967  p :     3.060232
      px      :     1.120796
      py      :     1.104469
      dz2     :     0.111966  d :     0.398234
      dxz     :     0.088338
      dyz     :     0.135620
      dx2y2   :     0.035173
      dxy     :     0.027137
      f0      :     0.016406  f :     0.054167
      f+1     :     0.012364
      f-1     :     0.014586
      f+2     :     0.002516
      f-2     :     0.005159
      f+3     :     0.002498
      f-3     :     0.000637
  1 O s       :     3.368664  s :     3.368664
      pz      :     1.438814  p :     4.634128
      px      :     1.426249
      py      :     1.769065
      dz2     :     0.028454  d :     0.068611
      dxz     :     0.012718
      dyz     :     0.012944
      dx2y2   :     0.009771
      dxy     :     0.004724
      f0      :     0.001120  f :     0.004657
      f+1     :     0.001460
      f-1     :     0.000971
      f+2     :     0.000086
      f-2     :     0.000038
      f+3     :     0.000368
      f-3     :     0.000614
  2 H s       :     0.677507  s :     0.677507
      pz      :     0.034163  p :     0.171393
      px      :     0.081664
      py      :     0.055566
  3 H s       :     0.841387  s :     0.841387
      pz      :     0.013980  p :     0.056856
      px      :     0.016248
      py      :     0.026628
  4 H s       :     0.844470  s :     0.844470
      pz      :     0.014103  p :     0.067681
      px      :     0.021403
      py      :     0.032175
  5 H s       :     0.831909  s :     0.831909
      pz      :     0.010863  p :     0.064160
      px      :     0.037186
      py      :     0.016112


                      *****************************
                      * MAYER POPULATION ANALYSIS *
                      *****************************

  NA   - Mulliken gross atomic population
  ZA   - Total nuclear charge
  QA   - Mulliken gross atomic charge
  VA   - Mayer's total valence
  BVA  - Mayer's bonded valence
  FA   - Mayer's free valence

  ATOM       NA         ZA         QA         VA         BVA        FA
  0 C      6.1720     6.0000    -0.1720     3.9396     3.9396     0.0000
  1 O      8.4657     8.0000    -0.4657     1.8901     1.8901     0.0000
  2 H      0.6921     1.0000     0.3079     0.9190     0.9190     0.0000
  3 H      0.8972     1.0000     0.1028     0.9663     0.9663     0.0000
  4 H      0.8937     1.0000     0.1063     0.9534     0.9534     0.0000
  5 H      0.8795     1.0000     0.1205     0.9605     0.9605    -0.0000

  Mayer bond orders larger than 0.1
B(  0-C ,  1-O ) :   0.9936 B(  0-C ,  3-H ) :   0.9816 B(  0-C ,  4-H ) :   0.9808 
B(  0-C ,  5-H ) :   0.9736 B(  1-O ,  2-H ) :   0.9093 


------------------
HIRSHFELD ANALYSIS
------------------

Total integrated alpha density =      8.997997563
Total integrated beta density  =      8.997997563

  ATOM     CHARGE      SPIN    
   0 C    0.007748    0.000000
   1 O   -0.255418    0.000000
   2 H    0.156495    0.000000
   3 H    0.031353    0.000000
   4 H    0.019697    0.000000
   5 H    0.044130    0.000000

  TOTAL   0.004005    0.000000

-------
TIMINGS
-------

Total SCF time: 0 days 0 hours 0 min 32 sec 

Total time                  ....      32.166 sec
Sum of individual times     ....      28.046 sec  ( 87.2%)

Fock matrix formation       ....      19.060 sec  ( 59.3%)
  XC integration            ....       4.664 sec  ( 24.5% of F)
    Basis function eval.    ....       0.048 sec  (  1.0% of XC)
    Density eval.           ....       0.055 sec  (  1.2% of XC)
    XC-Functional eval.     ....       0.082 sec  (  1.8% of XC)
    XC-Potential eval.      ....       0.035 sec  (  0.7% of XC)
Diagonalization             ....       2.075 sec  (  6.5%)
Density matrix formation    ....       1.432 sec  (  4.5%)
Population analysis         ....       0.045 sec  (  0.1%)
Initial guess               ....       1.524 sec  (  4.7%)
Orbital Transformation      ....       0.000 sec  (  0.0%)
Orbital Orthonormalization  ....       0.000 sec  (  0.0%)
DIIS solution               ....       0.311 sec  (  1.0%)
SOSCF solution              ....       0.593 sec  (  1.8%)
Grid generation             ....       3.006 sec  (  9.3%)


-------------------------------------------------------------------------------
                          DFT DISPERSION CORRECTION                            
                                                                               
                              DFTD3 V3.1  Rev 1                                
                              USING zero damping                               
-------------------------------------------------------------------------------
The omegaB97X-D3 functional is recognized. Fit by Chai et al.
Active option DFTDOPT                   ...         3   

molecular C6(AA) [au] = 208.651903 


            DFT-D V3
 parameters
 s6 scaling factor         :     1.0000 
 rs6 scaling factor        :     1.2810 
 s8 scaling factor         :     1.0000 
 rs8 scaling factor        :     1.0940 
 Damping factor alpha6     :    14.0000 
 Damping factor alpha8     :    16.0000 
 ad hoc parameters k1-k3   :    16.0000     1.3333    -4.0000 

 Edisp/kcal,au: -0.140300419855  -0.000223582927 
 E6   /kcal   :  -0.027404358 
 E8   /kcal   :  -0.112896062 
 % E8         :  80.467372540 

-------------------------   ----------------
Dispersion correction           -0.000223583
-------------------------   ----------------


-------------------------   --------------------
FINAL SINGLE POINT ENERGY      -115.729613692575
-------------------------   --------------------


                            ***************************************
                            *     ORCA property calculations      *
                            ***************************************

                                    ---------------------
                                    Active property flags
                                    ---------------------
   (+) Dipole Moment


------------------------------------------------------------------------------
                       ORCA ELECTRIC PROPERTIES CALCULATION
------------------------------------------------------------------------------

Dipole Moment Calculation                       ... on
Quadrupole Moment Calculation                   ... off
Polarizability Calculation                      ... off
GBWName                                         ... 101_charges.gbw
Electron density file                           ... 101_charges.scfp.tmp
The origin for moment calculation is the CENTER OF MASS  = (11.851425,  8.463073 10.949937)

-------------
DIPOLE MOMENT
-------------
                                X             Y             Z
Electronic contribution:      0.01746      -0.11046      -1.83921
Nuclear contribution   :      0.46075      -0.00409       2.37030
                        -----------------------------------------
Total Dipole Moment    :      0.47821      -0.11456       0.53108
                        -----------------------------------------
Magnitude (a.u.)       :      0.72378
Magnitude (Debye)      :      1.83971



--------------------
Rotational spectrum 
--------------------
 
Rotational constants in cm-1:     4.420994     0.827922     0.788406 
Rotational constants in MHz : 132538.057792 24820.489018 23635.829766 

 Dipole components along the rotational axes: 
x,y,z [a.u.] :     0.422982    -0.570180    -0.140865 
x,y,z [Debye]:     1.075135    -1.449282    -0.358052 

 
------------------------------------------------------------------------------
                      ORCA CHELPG CHARGES GENERATION
------------------------------------------------------------------------------

GBW file                           ... 101_charges.gbw

Reading the GBW file               ... done

Grid spacing                       ...     0.300000
Point Cut-Off                      ...     2.800000
Van-der-Waals Radii                ...        COSMO
Total charge                       ...            0


Number of points X direction       ...           25
Number of points Y direction       ...           24
Number of points Z direction       ...           25
Maximum number of possible points  ...        15000
Final number of points             ...         5860


CHELPG Charges            
--------------------------------
  0   C   :       0.053274
  1   O   :      -0.601325
  2   H   :       0.407525
  3   H   :       0.015137
  4   H   :       0.032228
  5   H   :       0.093161
--------------------------------
Total charge:    -0.000000
--------------------------------

CHELPG charges calculated...

Timings for individual parts in CHELPG calculation:
Grid generation                 ...        0.002 sec (=   0.000 min)
Potential calculation           ...        0.672 sec (=   0.011 min)
Fit to the potential            ...        0.001 sec (=   0.000 min)
------------------------------------------------------------------------------


Timings for individual modules:

Sum of individual times         ...       40.992 sec (=   0.683 min)
GTO integral calculation        ...        5.191 sec (=   0.087 min)  12.7 %
SCF iterations                  ...       35.072 sec (=   0.585 min)  85.6 %
CHELPG charge generation        ...        0.730 sec (=   0.012 min)   1.8 %
                             ****ORCA TERMINATED NORMALLY****
TOTAL RUN TIME: 0 days 0 hours 0 minutes 43 seconds 170 msec
