
                                 *****************
                                 * O   R   C   A *
                                 *****************

           --- An Ab Initio, DFT and Semiempirical electronic structure package ---

                  #######################################################
                  #                        -***-                        #
                  #          Department of theory and spectroscopy      #
                  #               Directorship: Frank Neese             #
                  #        Max Planck Institute fuer Kohlenforschung    #
                  #                Kaiser Wilhelm Platz 1               #
                  #                 D-45470 Muelheim/Ruhr               #
                  #                      Germany                        #
                  #                                                     #
                  #                  All rights reserved                #
                  #                        -***-                        #
                  #######################################################


                         Program Version 4.1.2  - RELEASE  -


 With contributions from (in alphabetic order):
   Daniel Aravena         : Magnetic Properties
   Michael Atanasov       : Ab Initio Ligand Field Theory
   Alexander A. Auer      : GIAO ZORA
   Ute Becker             : Parallelization
   Giovanni Bistoni       : ED, Open-shell LED
   Martin Brehm           : Molecular dynamics
   Dmytro Bykov           : SCF Hessian
   Vijay G. Chilkuri      : MRCI spin determinant printing
   Dipayan Datta          : RHF DLPNO-CCSD density
   Achintya Kumar Dutta   : EOM-CC, STEOM-CC
   Dmitry Ganyushin       : Spin-Orbit,Spin-Spin,Magnetic field MRCI
   Miquel Garcia          : C-PCM Hessian
   Yang Guo               : DLPNO-NEVPT2, CIM, IAO-localization
   Andreas Hansen         : Spin unrestricted coupled pair/coupled cluster methods
   Benjamin Helmich-Paris : CASSCF linear response (MC-RPA)
   Lee Huntington         : MR-EOM, pCC
   Robert Izsak           : Overlap fitted RIJCOSX, COSX-SCS-MP3, EOM
   Christian Kollmar      : KDIIS, OOCD, Brueckner-CCSD(T), CCSD density
   Simone Kossmann        : Meta GGA functionals, TD-DFT gradient, OOMP2, MP2 Hessian
   Martin Krupicka        : AUTO-CI
   Lucas Lang             : DCDCAS
   Dagmar Lenk            : GEPOL surface, SMD
   Dimitrios Liakos       : Extrapolation schemes; parallel MDCI
   Dimitrios Manganas     : ROCIS; embedding schemes
   Dimitrios Pantazis     : SARC Basis sets
   Taras Petrenko         : DFT Hessian,TD-DFT gradient, ASA, ECA, R-Raman, ABS, FL, XAS/XES, NRVS
   Peter Pinski           : DLPNO-MP2, DLPNO-MP2 Gradient
   Christoph Reimann      : Effective Core Potentials
   Marius Retegan         : Local ZFS, SOC
   Christoph Riplinger    : Optimizer, TS searches, QM/MM, DLPNO-CCSD(T), (RO)-DLPNO pert. Triples
   Tobias Risthaus        : Range-separated hybrids, TD-DFT gradient, RPA, STAB
   Michael Roemelt        : Restricted open shell CIS
   Masaaki Saitow         : Open-shell DLPNO
   Barbara Sandhoefer     : DKH picture change effects
   Avijit Sen             : IP-ROCIS
   Kantharuban Sivalingam : CASSCF convergence, NEVPT2, FIC-MRCI
   Bernardo de Souza      : ESD, SOC TD-DFT
   Georgi Stoychev        : AutoAux, RI-MP2 NMR
   Willem Van den Heuvel  : Paramagnetic NMR
   Boris Wezisla          : Elementary symmetry handling
   Frank Wennmohs         : Technical directorship


 We gratefully acknowledge several colleagues who have allowed us to
 interface, adapt or use parts of their codes:
   Stefan Grimme, W. Hujo, H. Kruse,             : VdW corrections, initial TS optimization,
                  C. Bannwarth                     DFT functionals, gCP, sTDA/sTD-DF
   Ed Valeev                                     : LibInt (2-el integral package), F12 methods
   Garnet Chan, S. Sharma, J. Yang, R. Olivares  : DMRG
   Ulf Ekstrom                                   : XCFun DFT Library
   Mihaly Kallay                                 : mrcc  (arbitrary order and MRCC methods)
   Andreas Klamt, Michael Diedenhofen            : otool_cosmo (COSMO solvation model)
   Jiri Pittner, Ondrej Demel                    : Mk-CCSD
   Frank Weinhold                                : gennbo (NPA and NBO analysis)
   Christopher J. Cramer and Donald G. Truhlar   : smd solvation model
   Lars Goerigk                                  : TD-DFT with DH, B97 family of functionals
   V. Asgeirsson, H. Jonsson                     : NEB implementation
   FAccTs GmbH                                   : IRC, NEB, NEB-TS, Multilevel


 Your calculation uses the libint2 library for the computation of 2-el integrals
 For citations please refer to: http://libint.valeyev.net

 This ORCA versions uses:
   CBLAS   interface :  Fast vector & matrix operations
   LAPACKE interface :  Fast linear algebra routines
   SCALAPACK package :  Parallel linear algebra routines


Your calculation utilizes the atom-pairwise dispersion correction
with the zero-damping scheme (D30)
Cite in your paper:
S.Grimme, J.Antony, S.Ehrlich and H.Krieg, J.Chem.Phys., 132, (2010), 154104 
   

XCFun DFT library Copyright 2009-2010 Ulf Ekstrom and contributors.
See http://admol.org/xcfun for more information. This is free soft-
ware; see the source code for copying conditions. There is ABSOLUTELY
NO WARRANTY; not even for MERCHANTABILITY or FITNESS FOR A PARTICULAR
PURPOSE. For details see the documentation. Scientific users of this 
library should cite U. Ekstrom, L. Visscher, R. Bast, A. J. Thorvald-
sen and K. Ruud; J.Chem.Theor.Comp. 2010, DOI: 10.1021/ct100117s
XCFun Version 0.99 
----- Orbital basis set information -----
Your calculation utilizes the basis: def2-TZVP
   F. Weigend and R. Ahlrichs, Phys. Chem. Chem. Phys. 7, 3297 (2005).

================================================================================
                                        WARNINGS
                       Please study these warnings very carefully!
================================================================================


WARNING: Geometry Optimization
  ===> : Switching off AutoStart
         For restart on a previous wavefunction, please use MOREAD

INFO   : the flag for use of LIBINT has been found!

================================================================================
                                       INPUT FILE
================================================================================
NAME = bonds_angles_[1[6[8][1][1]]]-[6[8[1]][1][1][1]]-[8[6[1][1][1]][1]]_10.in
|  1> #Run DFT geometry optimization
|  2> ! wB97X-D3 def2-TZVP TIGHTSCF Grid5 FinalGrid6 Opt CHELPG PAL4
|  3> 
|  4> %base "10_geo_opt"
|  5> %geom MaxIter 500
|  6> end
|  7> 
|  8> %geom
|  9>   Constraints
| 10>     { A 5 0 1 C }
| 11>   end
| 12> end
| 13> 
| 14> 
| 15> * xyz 0 1
| 16>   C                    3.011308             -1.180897            0.598492            
| 17>   O                    4.393930             -1.122515            0.876904            
| 18>   H                    4.772196             -0.379022            0.412493            
| 19>   H                    2.806434             -1.318965            -0.469350           
| 20>   H                    2.611632             -2.040265            1.135898            
| 21>   H                    2.488886             -0.282708            0.947284            
| 22> *
| 23> 
| 24>                          ****END OF INPUT****
================================================================================

                       *****************************
                       * Geometry Optimization Run *
                       *****************************

Geometry optimization settings:
Update method            Update   .... BFGS
Choice of coordinates    CoordSys .... Z-matrix Internals
Initial Hessian          InHess   .... Almoef's Model

Convergence Tolerances:
Energy Change            TolE     ....  5.0000e-06 Eh
Max. Gradient            TolMAXG  ....  3.0000e-04 Eh/bohr
RMS Gradient             TolRMSG  ....  1.0000e-04 Eh/bohr
Max. Displacement        TolMAXD  ....  4.0000e-03 bohr
RMS Displacement         TolRMSD  ....  2.0000e-03 bohr

------------------------------------------------------------------------------
                        ORCA OPTIMIZATION COORDINATE SETUP
------------------------------------------------------------------------------

The optimization will be done in new redundant internal coordinates
Making redundant internal coordinates   ...  (new redundants) done
Evaluating the initial hessian          ...  (Almloef) done
Evaluating the coordinates              ...  done
Calculating the B-matrix                .... done
Calculating the G-matrix                .... done
Diagonalizing the G-matrix              .... done
Imposing constraints:
 Iter   0:  RMS(Cart)=    0.0000000000 RMS(Int)=    0.0000000000
CONVERGED
The first mode is                       ....    3
The number of degrees of freedom        ....   12
Storing new coordinates                 .... done

    -----------------------------------------------------------------
                    Redundant Internal Coordinates


    -----------------------------------------------------------------
         Definition                    Initial Value    Approx d2E/dq
    -----------------------------------------------------------------
      1. B(O   1,C   0)                  1.4116         0.516942   
      2. B(H   2,O   1)                  0.9547         0.530085   
      3. B(H   3,C   0)                  1.0960         0.352187   
      4. B(H   4,C   0)                  1.0895         0.360732   
      5. B(H   5,C   0)                  1.0960         0.352186   
      6. A(O   1,C   0,H   4)          107.1364         0.340286   
      7. A(O   1,C   0,H   3)          112.3618         0.338926   
      8. A(O   1,C   0,H   5)          111.7282         0.338926 C 
      9. A(H   3,C   0,H   5)          108.9154         0.288819   
     10. A(H   4,C   0,H   5)          108.3340         0.289906   
     11. A(H   3,C   0,H   4)          108.2176         0.289907   
     12. A(C   0,O   1,H   2)          108.9253         0.359965   
     13. D(H   2,O   1,C   0,H   5)    -61.8486         0.021176   
     14. D(H   2,O   1,C   0,H   3)     60.9228         0.021176   
     15. D(H   2,O   1,C   0,H   4)    179.6473         0.021176   
    -----------------------------------------------------------------

Number of atoms                         .... 6
Number of degrees of freedom            .... 15

         *************************************************************
         *                GEOMETRY OPTIMIZATION CYCLE   1            *
         *************************************************************
---------------------------------
CARTESIAN COORDINATES (ANGSTROEM)
---------------------------------
  C      3.011308   -1.180897    0.598492
  O      4.393930   -1.122515    0.876904
  H      4.772196   -0.379022    0.412493
  H      2.806434   -1.318965   -0.469350
  H      2.611632   -2.040265    1.135898
  H      2.488886   -0.282708    0.947284

----------------------------
CARTESIAN COORDINATES (A.U.)
----------------------------
  NO LB      ZA    FRAG     MASS         X           Y           Z
   0 C     6.0000    0    12.011    5.690547   -2.231572    1.130986
   1 O     8.0000    0    15.999    8.303324   -2.121246    1.657108
   2 H     1.0000    0     1.008    9.018143   -0.716248    0.779499
   3 H     1.0000    0     1.008    5.303392   -2.492483   -0.886943
   4 H     1.0000    0     1.008    4.935269   -3.855542    2.146536
   5 H     1.0000    0     1.008    4.703313   -0.534241    1.790107

--------------------------------
INTERNAL COORDINATES (ANGSTROEM)
--------------------------------
 C      0   0   0     0.000000000000     0.00000000     0.00000000
 O      1   0   0     1.411582549677     0.00000000     0.00000000
 H      2   1   0     0.954748440547   108.92527323     0.00000000
 H      1   2   3     1.096048660172   112.36179123    60.92278040
 H      1   2   3     1.089522589594   107.13635180   179.64731870
 H      1   2   3     1.096049307773   111.72819394   298.15138926

---------------------------
INTERNAL COORDINATES (A.U.)
---------------------------
 C      0   0   0     0.000000000000     0.00000000     0.00000000
 O      1   0   0     2.667504434311     0.00000000     0.00000000
 H      2   1   0     1.804213079421   108.92527323     0.00000000
 H      1   2   3     2.071231797176   112.36179123    60.92278040
 H      1   2   3     2.058899311054   107.13635180   179.64731870
 H      1   2   3     2.071233020964   111.72819394   298.15138926

---------------------
BASIS SET INFORMATION
---------------------
There are 3 groups of distinct atoms

 Group   1 Type C   : 11s6p2d1f contracted to 5s3p2d1f pattern {62111/411/11/1}
 Group   2 Type O   : 11s6p2d1f contracted to 5s3p2d1f pattern {62111/411/11/1}
 Group   3 Type H   : 5s1p contracted to 3s1p pattern {311/1}

Atom   0C    basis set group =>   1
Atom   1O    basis set group =>   2
Atom   2H    basis set group =>   3
Atom   3H    basis set group =>   3
Atom   4H    basis set group =>   3
Atom   5H    basis set group =>   3


           ************************************************************
           *        Program running with 4 parallel MPI-processes     *
           *              working on a common directory               *
           ************************************************************
------------------------------------------------------------------------------
                           ORCA GTO INTEGRAL CALCULATION
------------------------------------------------------------------------------

                         BASIS SET STATISTICS AND STARTUP INFO

 # of primitive gaussian shells          ...   64
 # of primitive gaussian functions       ...  124
 # of contracted shells                  ...   38
 # of contracted basis functions         ...   86
 Highest angular momentum                ...    3
 Maximum contraction depth               ...    6
 Integral package used                   ... LIBINT
 Integral threshhold            Thresh   ...  2.500e-11
 Primitive cut-off              TCut     ...  2.500e-12


------------------------------ INTEGRAL EVALUATION ----------------------------


 * One electron integrals 
 Pre-screening matrix                    ... done
 Shell pair data                         ... done (   0.000 sec)



           ************************************************************
           *        Program running with 4 parallel MPI-processes     *
           *              working on a common directory               *
           ************************************************************
-------------------------------------------------------------------------------
                                 ORCA SCF
-------------------------------------------------------------------------------

------------
SCF SETTINGS
------------
Hamiltonian:
 Density Functional     Method          .... DFT(GTOs)
 Exchange Functional    Exchange        .... WB97X-D3
 Correlation Functional Correlation     .... WB97X-D3
 Gradients option       PostSCFGGA      .... off
 Hybrid DFT is turned on
   Fraction HF Exchange ScalHFX         ....  0.195728
   Scaling of DF-GGA-X  ScalDFX         ....  0.000000
   Scaling of DF-GGA-C  ScalDFC         ....  1.000000
   Scaling of DF-LDA-C  ScalLDAC        ....  1.000000
   Perturbative correction              ....  0.000000
   Density functional embedding theory  .... OFF
 Long-range corrected/Screened/Range-Separated Hybrid DFT is turned on
   Amount of maximum screened exact exchange              ....  0.804272
   Range separation parameter mu (erf(mu*r12)/r12)        ....  0.250000


General Settings:
 Integral files         IntName         .... 10_geo_opt
 Hartree-Fock type      HFTyp           .... RHF
 Total Charge           Charge          ....    0
 Multiplicity           Mult            ....    1
 Number of Electrons    NEL             ....   18
 Basis Dimension        Dim             ....   86
 Nuclear Repulsion      ENuc            ....     40.4535567763 Eh

Convergence Acceleration:
 DIIS                   CNVDIIS         .... on
   Start iteration      DIISMaxIt       ....    12
   Startup error        DIISStart       ....  0.200000
   # of expansion vecs  DIISMaxEq       ....     5
   Bias factor          DIISBfac        ....   1.050
   Max. coefficient     DIISMaxC        ....  10.000
 Newton-Raphson         CNVNR           .... off
 SOSCF                  CNVSOSCF        .... on
   Start iteration      SOSCFMaxIt      ....   150
   Startup grad/error   SOSCFStart      ....  0.003300
 Level Shifting         CNVShift        .... on
   Level shift para.    LevelShift      ....    0.2500
   Turn off err/grad.   ShiftErr        ....    0.0010
 Zerner damping         CNVZerner       .... off
 Static damping         CNVDamp         .... on
   Fraction old density DampFac         ....    0.7000
   Max. Damping (<1)    DampMax         ....    0.9800
   Min. Damping (>=0)   DampMin         ....    0.0000
   Turn off err/grad.   DampErr         ....    0.1000
 Fernandez-Rico         CNVRico         .... off

SCF Procedure:
 Maximum # iterations   MaxIter         ....   125
 SCF integral mode      SCFMode         .... Direct
   Integral package                     .... LIBINT
 Reset frequency        DirectResetFreq ....    20
 Integral Threshold     Thresh          ....  2.500e-11 Eh
 Primitive CutOff       TCut            ....  2.500e-12 Eh

Convergence Tolerance:
 Convergence Check Mode ConvCheckMode   .... Total+1el-Energy
 Convergence forced     ConvForced      .... 0
 Energy Change          TolE            ....  1.000e-08 Eh
 1-El. energy change                    ....  1.000e-05 Eh
 Orbital Gradient       TolG            ....  1.000e-05
 Orbital Rotation angle TolX            ....  1.000e-05
 DIIS Error             TolErr          ....  5.000e-07


Diagonalization of the overlap matrix:
Smallest eigenvalue                        ... 1.650e-03
Time for diagonalization                   ...    0.002 sec
Threshold for overlap eigenvalues          ... 1.000e-08
Number of eigenvalues below threshold      ... 0
Time for construction of square roots      ...    0.004 sec
Total time needed                          ...    0.006 sec

-------------------
DFT GRID GENERATION
-------------------

General Integration Accuracy     IntAcc      ...  5.010
Radial Grid Type                 RadialGrid  ... Gauss-Chebyshev
Angular Grid (max. acc.)         AngularGrid ... Lebedev-434
Angular grid pruning method      GridPruning ... 3 (G Style)
Weight generation scheme         WeightScheme... Becke
Basis function cutoff            BFCut       ...    1.0000e-11
Integration weight cutoff        WCut        ...    1.0000e-14
Grids for H and He will be reduced by one unit

# of grid points (after initial pruning)     ...  48308 (   0.0 sec)
# of grid points (after weights+screening)   ...  46682 (   0.0 sec)
nearest neighbour list constructed           ...    0.0 sec
Grid point re-assignment to atoms done       ...    0.0 sec
Grid point division into batches done        ...    0.3 sec
Reduced shell lists constructed in    0.3 sec

Total number of grid points                  ...    46682
Total number of batches                      ...      733
Average number of points per batch           ...       63
Average number of grid points per atom       ...     7780
Average number of shells per batch           ...    33.17 (87.30%)
Average number of basis functions per batch  ...    76.87 (89.38%)
Average number of large shells per batch     ...    30.63 (92.33%)
Average number of large basis fcns per batch ...    72.22 (93.95%)
Maximum spatial batch extension              ...  15.77, 14.99, 16.57 au
Average spatial batch extension              ...   0.41,  0.40,  0.42 au

Time for grid setup =    0.397 sec

------------------------------
INITIAL GUESS: MODEL POTENTIAL
------------------------------
Loading Hartree-Fock densities                     ... done
Calculating cut-offs                               ... done
Setting up the integral package                    ... done
Initializing the effective Hamiltonian             ... done
Starting the Coulomb interaction                   ... done (   0.0 sec)
Reading the grid                                   ... done
Mapping shells                                     ... done
Starting the XC term evaluation                    ... done (   0.1 sec)
  promolecular density results
     # of electrons  =     17.998045260
     EX              =    -14.430895556
     EC              =     -0.575168068
     EX+EC           =    -15.006063624
Transforming the Hamiltonian                       ... done (   0.0 sec)
Diagonalizing the Hamiltonian                      ... done (   0.0 sec)
Back transforming the eigenvectors                 ... done (   0.0 sec)
Now organizing SCF variables                       ... done
                      ------------------
                      INITIAL GUESS DONE (   0.6 sec)
                      ------------------
--------------
SCF ITERATIONS
--------------
ITER       Energy         Delta-E        Max-DP      RMS-DP      [F,P]     Damp
               ***  Starting incremental Fock matrix formation  ***
  0   -115.6510327243   0.000000000000 0.03705021  0.00147627  0.2527026 0.7000
  1   -115.6881697612  -0.037137036898 0.02205139  0.00104176  0.1264497 0.7000
                               ***Turning on DIIS***
  2   -115.7052657680  -0.017096006793 0.03157199  0.00188261  0.0491896 0.0000
  3   -115.7330535792  -0.027787811191 0.01775496  0.00068066  0.0612446 0.0000
  4   -115.7375849369  -0.004531357761 0.00406968  0.00013180  0.0065155 0.0000
                      *** Initiating the SOSCF procedure ***
                           *** Shutting down DIIS ***
                      *** Re-Reading the Fockian *** 
                      *** Removing any level shift *** 
ITER      Energy       Delta-E        Grad      Rot      Max-DP    RMS-DP
  5   -115.73767898  -0.0000940422  0.000487  0.000487  0.000675  0.000043
               *** Restarting incremental Fock matrix formation ***
  6   -115.73768710  -0.0000081198  0.000151  0.000202  0.000491  0.000026
  7   -115.73768782  -0.0000007221  0.000056  0.000108  0.000209  0.000011
  8   -115.73768788  -0.0000000577  0.000019  0.000017  0.000029  0.000001
  9   -115.73768788  -0.0000000054  0.000010  0.000008  0.000014  0.000001
 10   -115.73768789  -0.0000000015  0.000003  0.000003  0.000003  0.000000
                  ***Gradient check signals convergence***
              ***Rediagonalizing the Fockian in SOSCF/NRSCF***

               *****************************************************
               *                     SUCCESS                       *
               *           SCF CONVERGED AFTER  11 CYCLES          *
               *****************************************************

Setting up the final grid:

General Integration Accuracy     IntAcc      ...  5.340
Radial Grid Type                 RadialGrid  ... Gauss-Chebyshev
Angular Grid (max. acc.)         AngularGrid ... Lebedev-590
Angular grid pruning method      GridPruning ... 3 (G Style)
Weight generation scheme         WeightScheme... Becke
Basis function cutoff            BFCut       ...    1.0000e-11
Integration weight cutoff        WCut        ...    1.0000e-14
Grids for H and He will be reduced by one unit

# of grid points (after initial pruning)     ...  77324 (   0.0 sec)
# of grid points (after weights+screening)   ...  74512 (   0.0 sec)
nearest neighbour list constructed           ...    0.0 sec
Grid point re-assignment to atoms done       ...    0.0 sec
Grid point division into batches done        ...    0.8 sec
Reduced shell lists constructed in    0.8 sec

Total number of grid points                  ...    74512
Total number of batches                      ...     1167
Average number of points per batch           ...       63
Average number of grid points per atom       ...    12419
Average number of shells per batch           ...    32.94 (86.68%)
Average number of basis functions per batch  ...    76.37 (88.80%)
Average number of large shells per batch     ...    30.32 (92.05%)
Average number of large basis fcns per batch ...    71.47 (93.59%)
Maximum spatial batch extension              ...  13.18, 14.24, 15.48 au
Average spatial batch extension              ...   0.34,  0.36,  0.36 au

Final grid set up in    0.9 sec
Final integration                            ... done (   0.2 sec)
Change in XC energy                          ...    -0.000107661
Integrated number of electrons               ...    18.000000748
Previous integrated no of electrons          ...    18.000002263

----------------
TOTAL SCF ENERGY
----------------

Total Energy       :         -115.73779555 Eh           -3149.38553 eV

Components:
Nuclear Repulsion  :           40.45355678 Eh            1100.79724 eV
Electronic Energy  :         -156.19135232 Eh           -4250.18277 eV
One Electron Energy:         -237.32457628 Eh           -6457.93004 eV
Two Electron Energy:           81.13322396 Eh            2207.74726 eV

Virial components:
Potential Energy   :         -230.99343727 Eh           -6285.65098 eV
Kinetic Energy     :          115.25564172 Eh            3136.26546 eV
Virial Ratio       :            2.00418334


DFT components:
N(Alpha)           :        9.000000374190 electrons
N(Beta)            :        9.000000374190 electrons
N(Total)           :       18.000000748380 electrons
E(XC)              :      -10.656700563324 Eh       
DFET-embed. en.    :        0.000000000000 Eh       

---------------
SCF CONVERGENCE
---------------

  Last Energy change         ...   -8.0348e-11  Tolerance :   1.0000e-08
  Last MAX-Density change    ...    1.8501e-06  Tolerance :   1.0000e-07
  Last RMS-Density change    ...    7.8041e-08  Tolerance :   5.0000e-09
  Last Orbital Gradient      ...    1.3476e-06  Tolerance :   1.0000e-05
  Last Orbital Rotation      ...    7.7828e-07  Tolerance :   1.0000e-05

             **** THE GBW FILE WAS UPDATED (10_geo_opt.gbw) ****
             **** DENSITY FILE WAS UPDATED (10_geo_opt.scfp.tmp) ****
             **** ENERGY FILE WAS UPDATED (10_geo_opt.en.tmp) ****
----------------
ORBITAL ENERGIES
----------------

  NO   OCC          E(Eh)            E(eV) 
   0   2.0000     -19.227589      -523.2093 
   1   2.0000     -10.315174      -280.6902 
   2   2.0000      -1.137144       -30.9433 
   3   2.0000      -0.795616       -21.6498 
   4   2.0000      -0.611709       -16.6454 
   5   2.0000      -0.542013       -14.7489 
   6   2.0000      -0.526603       -14.3296 
   7   2.0000      -0.433547       -11.7974 
   8   2.0000      -0.373549       -10.1648 
   9   0.0000       0.116929         3.1818 
  10   0.0000       0.156880         4.2689 
  11   0.0000       0.202703         5.5158 
  12   0.0000       0.205022         5.5789 
  13   0.0000       0.226261         6.1569 
  14   0.0000       0.304368         8.2823 
  15   0.0000       0.313179         8.5220 
  16   0.0000       0.404719        11.0130 
  17   0.0000       0.452523        12.3138 
  18   0.0000       0.485419        13.2089 
  19   0.0000       0.536006        14.5855 
  20   0.0000       0.543820        14.7981 
  21   0.0000       0.568171        15.4607 
  22   0.0000       0.598401        16.2833 
  23   0.0000       0.603677        16.4269 
  24   0.0000       0.671715        18.2783 
  25   0.0000       0.779559        21.2129 
  26   0.0000       0.832457        22.6523 
  27   0.0000       0.861770        23.4500 
  28   0.0000       0.989377        26.9223 
  29   0.0000       1.013490        27.5785 
  30   0.0000       1.109943        30.2031 
  31   0.0000       1.383236        37.6398 
  32   0.0000       1.513085        41.1731 
  33   0.0000       1.553456        42.2717 
  34   0.0000       1.603090        43.6223 
  35   0.0000       1.612991        43.8917 
  36   0.0000       1.623658        44.1820 
  37   0.0000       1.659347        45.1531 
  38   0.0000       1.689072        45.9620 
  39   0.0000       1.773071        48.2477 
  40   0.0000       1.952762        53.1374 
  41   0.0000       2.030194        55.2444 
  42   0.0000       2.054805        55.9141 
  43   0.0000       2.094808        57.0026 
  44   0.0000       2.115125        57.5555 
  45   0.0000       2.270519        61.7840 
  46   0.0000       2.333336        63.4933 
  47   0.0000       2.345440        63.8227 
  48   0.0000       2.381717        64.8098 
  49   0.0000       2.428127        66.0727 
  50   0.0000       2.498034        67.9750 
  51   0.0000       2.596465        70.6534 
  52   0.0000       2.640291        71.8460 
  53   0.0000       2.709421        73.7271 
  54   0.0000       2.843288        77.3698 
  55   0.0000       2.873840        78.2012 
  56   0.0000       2.887840        78.5821 
  57   0.0000       2.993106        81.4466 
  58   0.0000       3.096269        84.2538 
  59   0.0000       3.174294        86.3769 
  60   0.0000       3.299133        89.7740 
  61   0.0000       3.409656        92.7814 
  62   0.0000       3.444446        93.7281 
  63   0.0000       3.486982        94.8856 
  64   0.0000       3.613640        98.3321 
  65   0.0000       3.645085        99.1878 
  66   0.0000       3.666915        99.7818 
  67   0.0000       4.008926       109.0884 
  68   0.0000       4.222452       114.8988 
  69   0.0000       4.273351       116.2838 
  70   0.0000       4.456748       121.2743 
  71   0.0000       4.565286       124.2278 
  72   0.0000       5.345675       145.4632 
  73   0.0000       5.424830       147.6171 
  74   0.0000       5.557118       151.2169 
  75   0.0000       5.826267       158.5408 
  76   0.0000       5.836119       158.8089 
  77   0.0000       5.985960       162.8863 
  78   0.0000       6.388379       173.8366 
  79   0.0000       6.531500       177.7312 
  80   0.0000       6.745503       183.5545 
  81   0.0000       6.804960       185.1724 
  82   0.0000       7.039847       191.5640 
  83   0.0000       7.219179       196.4438 
  84   0.0000      22.406076       609.7003 
  85   0.0000      43.664199      1188.1633 

                    ********************************
                    * MULLIKEN POPULATION ANALYSIS *
                    ********************************

-----------------------
MULLIKEN ATOMIC CHARGES
-----------------------
   0 C :   -0.150369
   1 O :   -0.477900
   2 H :    0.312712
   3 H :    0.098649
   4 H :    0.118285
   5 H :    0.098622
Sum of atomic charges:    0.0000000

--------------------------------
MULLIKEN REDUCED ORBITAL CHARGES
--------------------------------
  0 C s       :     3.223313  s :     3.223313
      pz      :     1.046898  p :     2.825422
      px      :     0.702216
      py      :     1.076309
      dz2     :     0.011065  d :     0.094208
      dxz     :     0.032391
      dyz     :     0.002680
      dx2y2   :     0.012847
      dxy     :     0.035225
      f0      :     0.001353  f :     0.007425
      f+1     :     0.000960
      f-1     :     0.000174
      f+2     :     0.001459
      f-2     :     0.000132
      f+3     :     0.001360
      f-3     :     0.001986
  1 O s       :     3.791681  s :     3.791681
      pz      :     1.756633  p :     4.654005
      px      :     1.314579
      py      :     1.582794
      dz2     :     0.003126  d :     0.030521
      dxz     :     0.006524
      dyz     :     0.005866
      dx2y2   :     0.008854
      dxy     :     0.006151
      f0      :     0.000268  f :     0.001693
      f+1     :     0.000231
      f-1     :     0.000088
      f+2     :     0.000287
      f-2     :     0.000241
      f+3     :     0.000368
      f-3     :     0.000209
  2 H s       :     0.639240  s :     0.639240
      pz      :     0.017111  p :     0.048048
      px      :     0.012846
      py      :     0.018091
  3 H s       :     0.881999  s :     0.881999
      pz      :     0.012073  p :     0.019352
      px      :     0.003001
      py      :     0.004278
  4 H s       :     0.861508  s :     0.861508
      pz      :     0.006294  p :     0.020207
      px      :     0.004189
      py      :     0.009725
  5 H s       :     0.882004  s :     0.882004
      pz      :     0.004932  p :     0.019374
      px      :     0.004954
      py      :     0.009488


                     *******************************
                     * LOEWDIN POPULATION ANALYSIS *
                     *******************************

----------------------
LOEWDIN ATOMIC CHARGES
----------------------
   0 C :   -0.384474
   1 O :   -0.075089
   2 H :    0.163951
   3 H :    0.093400
   4 H :    0.108675
   5 H :    0.093537

-------------------------------
LOEWDIN REDUCED ORBITAL CHARGES
-------------------------------
  0 C s       :     2.863077  s :     2.863077
      pz      :     1.096529  p :     3.051753
      px      :     0.845951
      py      :     1.109273
      dz2     :     0.072282  d :     0.412580
      dxz     :     0.113816
      dyz     :     0.020873
      dx2y2   :     0.082233
      dxy     :     0.123376
      f0      :     0.007792  f :     0.057064
      f+1     :     0.007154
      f-1     :     0.000846
      f+2     :     0.012523
      f-2     :     0.004884
      f+3     :     0.011759
      f-3     :     0.012106
  1 O s       :     3.364404  s :     3.364404
      pz      :     1.697069  p :     4.634447
      px      :     1.381443
      py      :     1.555936
      dz2     :     0.006110  d :     0.071585
      dxz     :     0.017939
      dyz     :     0.008181
      dx2y2   :     0.019247
      dxy     :     0.020108
      f0      :     0.000482  f :     0.004652
      f+1     :     0.000623
      f-1     :     0.000075
      f+2     :     0.001049
      f-2     :     0.000574
      f+3     :     0.000887
      f-3     :     0.000963
  2 H s       :     0.675645  s :     0.675645
      pz      :     0.056389  p :     0.160404
      px      :     0.034342
      py      :     0.069673
  3 H s       :     0.846774  s :     0.846774
      pz      :     0.036201  p :     0.059825
      px      :     0.009708
      py      :     0.013916
  4 H s       :     0.831731  s :     0.831731
      pz      :     0.019218  p :     0.059595
      px      :     0.011606
      py      :     0.028771
  5 H s       :     0.846671  s :     0.846671
      pz      :     0.015608  p :     0.059793
      px      :     0.015108
      py      :     0.029076


                      *****************************
                      * MAYER POPULATION ANALYSIS *
                      *****************************

  NA   - Mulliken gross atomic population
  ZA   - Total nuclear charge
  QA   - Mulliken gross atomic charge
  VA   - Mayer's total valence
  BVA  - Mayer's bonded valence
  FA   - Mayer's free valence

  ATOM       NA         ZA         QA         VA         BVA        FA
  0 C      6.1504     6.0000    -0.1504     3.9348     3.9348     0.0000
  1 O      8.4779     8.0000    -0.4779     1.8876     1.8876     0.0000
  2 H      0.6873     1.0000     0.3127     0.9141     0.9141     0.0000
  3 H      0.9014     1.0000     0.0986     0.9596     0.9596     0.0000
  4 H      0.8817     1.0000     0.1183     0.9597     0.9597     0.0000
  5 H      0.9014     1.0000     0.0986     0.9601     0.9601     0.0000

  Mayer bond orders larger than 0.1
B(  0-C ,  1-O ) :   0.9981 B(  0-C ,  3-H ) :   0.9753 B(  0-C ,  4-H ) :   0.9748 
B(  0-C ,  5-H ) :   0.9763 B(  1-O ,  2-H ) :   0.9006 

-------
TIMINGS
-------

Total SCF time: 0 days 0 hours 0 min 8 sec 

Total time                  ....       8.675 sec
Sum of individual times     ....       8.291 sec  ( 95.6%)

Fock matrix formation       ....       6.741 sec  ( 77.7%)
  XC integration            ....       1.946 sec  ( 28.9% of F)
    Basis function eval.    ....       0.408 sec  ( 21.0% of XC)
    Density eval.           ....       0.275 sec  ( 14.1% of XC)
    XC-Functional eval.     ....       0.670 sec  ( 34.4% of XC)
    XC-Potential eval.      ....       0.274 sec  ( 14.1% of XC)
Diagonalization             ....       0.032 sec  (  0.4%)
Density matrix formation    ....       0.002 sec  (  0.0%)
Population analysis         ....       0.011 sec  (  0.1%)
Initial guess               ....       0.181 sec  (  2.1%)
Orbital Transformation      ....       0.000 sec  (  0.0%)
Orbital Orthonormalization  ....       0.000 sec  (  0.0%)
DIIS solution               ....       0.017 sec  (  0.2%)
SOSCF solution              ....       0.026 sec  (  0.3%)
Grid generation             ....       1.281 sec  ( 14.8%)


-------------------------------------------------------------------------------
                          DFT DISPERSION CORRECTION                            
                                                                               
                              DFTD3 V3.1  Rev 1                                
                              USING zero damping                               
-------------------------------------------------------------------------------
The omegaB97X-D3 functional is recognized. Fit by Chai et al.
Active option DFTDOPT                   ...         3   

molecular C6(AA) [au] = 208.713962 


            DFT-D V3
 parameters
 s6 scaling factor         :     1.0000 
 rs6 scaling factor        :     1.2810 
 s8 scaling factor         :     1.0000 
 rs8 scaling factor        :     1.0940 
 Damping factor alpha6     :    14.0000 
 Damping factor alpha8     :    16.0000 
 ad hoc parameters k1-k3   :    16.0000     1.3333    -4.0000 

 Edisp/kcal,au: -0.149724908482  -0.000238601804 
 E6   /kcal   :  -0.029538074 
 E8   /kcal   :  -0.120186834 
 % E8         :  80.271770028 

-------------------------   ----------------
Dispersion correction           -0.000238602
-------------------------   ----------------


-------------------------   --------------------
FINAL SINGLE POINT ENERGY      -115.738034148933
-------------------------   --------------------



           ************************************************************
           *        Program running with 4 parallel MPI-processes     *
           *              working on a common directory               *
           ************************************************************
------------------------------------------------------------------------------
                         ORCA SCF GRADIENT CALCULATION
------------------------------------------------------------------------------

Gradient of the Kohn-Sham DFT energy:
Kohn-Sham wavefunction type      ... RKS
Hartree-Fock exchange scaling    ...    0.196
Number of operators              ...    1
Number of atoms                  ...    6
Basis set dimensions             ...   86
Integral neglect threshold       ... 2.5e-11
Integral primitive cutoff        ... 2.5e-12

Nuclear repulsion gradient       ... done
One Electron Gradient            ... done
Pre-screening matrix             ... done
Starting the two electron gradient:
Two electron gradient done
Exchange-correlation gradient    ... done
Dispersion correction            ... done

------------------
CARTESIAN GRADIENT
------------------

   1   C   :   -0.000458016   -0.001081180   -0.000466008
   2   O   :    0.000715469    0.003126505   -0.001224742
   3   H   :   -0.000840873   -0.002246541    0.001446627
   4   H   :   -0.000128781   -0.000071805   -0.000022704
   5   H   :   -0.000116348   -0.000078940   -0.000072386
   6   H   :    0.000828549    0.000351960    0.000339213

Difference to translation invariance:
           :   -0.0000000000    0.0000000000    0.0000000000

Norm of the cartesian gradient     ...    0.0047119276
RMS gradient                       ...    0.0011106120
MAX gradient                       ...    0.0031265054

-------
TIMINGS
-------

Total SCF gradient time            ...        1.844 sec

One electron gradient       ....       0.007 sec  (  0.4%)
Prescreening matrices       ....       0.025 sec  (  1.3%)
Two electron gradient       ....       0.840 sec  ( 45.5%)
XC gradient                 ....       0.650 sec  ( 35.2%)
------------------------------------------------------------------------------
                         ORCA GEOMETRY RELAXATION STEP
------------------------------------------------------------------------------

Reading the OPT-File                    .... done
Getting information on internals        .... done
Copying old internal coords+grads       .... done
Making the new internal coordinates     .... (new redundants).... done
Validating the new internal coordinates .... (new redundants).... done
Calculating the B-matrix                .... done
Calculating the G,G- and P matrices     .... done
Transforming gradient to internals      .... done
Projecting the internal gradient        .... done
Number of atoms                         ....   6
Number of internal coordinates          ....  15
Current Energy                          ....  -115.738034149 Eh
Current gradient norm                   ....     0.004711928 Eh/bohr
Maximum allowed component of the step   ....  0.300
Current trust radius                    ....  0.300
Evaluating the initial hessian          ....  (Almloef) done
Projecting the Hessian                  .... done
Forming the augmented Hessian           .... done
Diagonalizing the augmented Hessian     .... done
Last element of RFO vector              ....  0.999984185
Lowest eigenvalues of augmented Hessian:
 -0.000015693  0.021176512  0.184258894  0.197959001  0.317858260
Length of the computed step             ....  0.005624103
The final length of the internal step   ....  0.005624103
Converting the step to cartesian space:
 Initial RMS(Int)=    0.0014521371
Transforming coordinates:
 Iter   0:  RMS(Cart)=    0.0009997080 RMS(Int)=    0.0014520183
 Iter   1:  RMS(Cart)=    0.0000010665 RMS(Int)=    0.0000010635
 Iter   2:  RMS(Cart)=    0.0000000025 RMS(Int)=    0.0000000031
Imposing constraints:
 Iter   0:  RMS(Cart)=    0.0000000075 RMS(Int)=    0.0000000060
CONVERGED
done
Storing new coordinates                 .... done

                                .--------------------.
          ----------------------|Geometry convergence|-------------------------
          Item                value                   Tolerance       Converged
          ---------------------------------------------------------------------
          RMS gradient        0.0007357393            0.0001000000      NO
          MAX gradient        0.0027867112            0.0003000000      NO
          RMS step            0.0014521371            0.0020000000      YES
          MAX step            0.0052569498            0.0040000000      NO
          ........................................................
          Max(Bonds)      0.0028      Max(Angles)    0.08
          Max(Dihed)        0.04      Max(Improp)    0.00
          ---------------------------------------------------------------------

The optimization has not yet converged - more geometry cycles are needed


    ---------------------------------------------------------------------------
                         Redundant Internal Coordinates
                            (Angstroem and degrees)

        Definition                    Value    dE/dq     Step     New-Value
    ----------------------------------------------------------------------------
     1. B(O   1,C   0)                1.4116 -0.000042  0.0000    1.4116   
     2. B(H   2,O   1)                0.9547 -0.002787  0.0028    0.9575   
     3. B(H   3,C   0)                1.0960  0.000055 -0.0001    1.0960   
     4. B(H   4,C   0)                1.0895  0.000069 -0.0001    1.0894   
     5. B(H   5,C   0)                1.0960  0.000001 -0.0000    1.0960   
     6. A(O   1,C   0,H   4)          107.14  0.000398   -0.02    107.12   
     7. A(O   1,C   0,H   3)          112.36  0.000464   -0.02    112.34   
     8. A(O   1,C   0,H   5)          111.73 -0.001568    0.00    111.73 C 
     9. A(H   3,C   0,H   5)          108.92  0.000435    0.00    108.92   
    10. A(H   4,C   0,H   5)          108.33  0.000371    0.00    108.34   
    11. A(H   3,C   0,H   4)          108.22 -0.000061    0.04    108.26   
    12. A(C   0,O   1,H   2)          108.93  0.000521   -0.08    108.84   
    13. D(H   2,O   1,C   0,H   5)    -61.85  0.000010    0.03    -61.81   
    14. D(H   2,O   1,C   0,H   3)     60.92 -0.000247    0.02     60.94   
    15. D(H   2,O   1,C   0,H   4)    179.65  0.000200    0.04    179.69   
    ----------------------------------------------------------------------------

         *************************************************************
         *                GEOMETRY OPTIMIZATION CYCLE   2            *
         *************************************************************
---------------------------------
CARTESIAN COORDINATES (ANGSTROEM)
---------------------------------
  C      3.011107   -1.181200    0.598602
  O      4.393733   -1.123716    0.877405
  H      4.772358   -0.377640    0.411703
  H      2.806907   -1.318847   -0.469338
  H      2.611116   -2.040269    1.136046
  H      2.489165   -0.282700    0.947303

----------------------------
CARTESIAN COORDINATES (A.U.)
----------------------------
  NO LB      ZA    FRAG     MASS         X           Y           Z
   0 C     6.0000    0    12.011    5.690168   -2.232145    1.131194
   1 O     8.0000    0    15.999    8.302951   -2.123515    1.658055
   2 H     1.0000    0     1.008    9.018450   -0.713637    0.778006
   3 H     1.0000    0     1.008    5.304285   -2.492260   -0.886920
   4 H     1.0000    0     1.008    4.934295   -3.855550    2.146816
   5 H     1.0000    0     1.008    4.703839   -0.534225    1.790142

--------------------------------
INTERNAL COORDINATES (ANGSTROEM)
--------------------------------
 C      0   0   0     0.000000000000     0.00000000     0.00000000
 O      1   0   0     1.411625967267     0.00000000     0.00000000
 H      2   1   0     0.957530298579   108.84241913     0.00000000
 H      1   2   3     1.095965376353   112.33748471    60.94494275
 H      1   2   3     1.089421180102   107.11513877   179.68921752
 H      1   2   3     1.096047186516   111.72819351   298.18614983

---------------------------
INTERNAL COORDINATES (A.U.)
---------------------------
 C      0   0   0     0.000000000000     0.00000000     0.00000000
 O      1   0   0     2.667586481667     0.00000000     0.00000000
 H      2   1   0     1.809470029246   108.84241913     0.00000000
 H      1   2   3     2.071074413567   112.33748471    60.94494275
 H      1   2   3     2.058707674887   107.11513877   179.68921752
 H      1   2   3     2.071229012371   111.72819351   298.18614983



           ************************************************************
           *        Program running with 4 parallel MPI-processes     *
           *              working on a common directory               *
           ************************************************************


           ************************************************************
           *        Program running with 4 parallel MPI-processes     *
           *              working on a common directory               *
           ************************************************************

Diagonalization of the overlap matrix:
Smallest eigenvalue                        ... 1.650e-03
Time for diagonalization                   ...    0.002 sec
Threshold for overlap eigenvalues          ... 1.000e-08
Number of eigenvalues below threshold      ... 0
Time for construction of square roots      ...    0.007 sec
Total time needed                          ...    0.009 sec

-------------------
DFT GRID GENERATION
-------------------

General Integration Accuracy     IntAcc      ...  5.010
Radial Grid Type                 RadialGrid  ... Gauss-Chebyshev
Angular Grid (max. acc.)         AngularGrid ... Lebedev-434
Angular grid pruning method      GridPruning ... 3 (G Style)
Weight generation scheme         WeightScheme... Becke
Basis function cutoff            BFCut       ...    1.0000e-11
Integration weight cutoff        WCut        ...    1.0000e-14
Grids for H and He will be reduced by one unit

# of grid points (after initial pruning)     ...  48308 (   0.0 sec)
# of grid points (after weights+screening)   ...  46683 (   0.0 sec)
nearest neighbour list constructed           ...    0.0 sec
Grid point re-assignment to atoms done       ...    0.0 sec
Grid point division into batches done        ...    0.3 sec
Reduced shell lists constructed in    0.3 sec

Total number of grid points                  ...    46683
Total number of batches                      ...      733
Average number of points per batch           ...       63
Average number of grid points per atom       ...     7780
Average number of shells per batch           ...    33.12 (87.17%)
Average number of basis functions per batch  ...    76.76 (89.25%)
Average number of large shells per batch     ...    30.55 (92.22%)
Average number of large basis fcns per batch ...    72.08 (93.91%)
Maximum spatial batch extension              ...  15.77, 14.99, 16.57 au
Average spatial batch extension              ...   0.41,  0.40,  0.42 au

Time for grid setup =    0.371 sec

--------------
SCF ITERATIONS
--------------
ITER       Energy         Delta-E        Max-DP      RMS-DP      [F,P]     Damp
               ***  Starting incremental Fock matrix formation  ***
                      *** Initiating the SOSCF procedure ***
                      *** Re-Reading the Fockian *** 
                      *** Removing any level shift *** 
ITER      Energy       Delta-E        Grad      Rot      Max-DP    RMS-DP
  0   -115.73769326 -115.7376932559  0.000539  0.000539  0.000393  0.000017
               *** Restarting incremental Fock matrix formation ***
  1   -115.73769550  -0.0000022465  0.000146  0.000150  0.000220  0.000009
  2   -115.73769569  -0.0000001846  0.000125  0.000084  0.000125  0.000005
  3   -115.73769585  -0.0000001609  0.000010  0.000019  0.000024  0.000001
  4   -115.73769585  -0.0000000019  0.000003  0.000009  0.000011  0.000000
                  ***Gradient check signals convergence***
              ***Rediagonalizing the Fockian in SOSCF/NRSCF***

               *****************************************************
               *                     SUCCESS                       *
               *           SCF CONVERGED AFTER   5 CYCLES          *
               *****************************************************

Setting up the final grid:

General Integration Accuracy     IntAcc      ...  5.340
Radial Grid Type                 RadialGrid  ... Gauss-Chebyshev
Angular Grid (max. acc.)         AngularGrid ... Lebedev-590
Angular grid pruning method      GridPruning ... 3 (G Style)
Weight generation scheme         WeightScheme... Becke
Basis function cutoff            BFCut       ...    1.0000e-11
Integration weight cutoff        WCut        ...    1.0000e-14
Grids for H and He will be reduced by one unit

# of grid points (after initial pruning)     ...  77324 (   0.0 sec)
# of grid points (after weights+screening)   ...  74512 (   0.0 sec)
nearest neighbour list constructed           ...    0.0 sec
Grid point re-assignment to atoms done       ...    0.0 sec
Grid point division into batches done        ...    0.8 sec
Reduced shell lists constructed in    0.8 sec

Total number of grid points                  ...    74512
Total number of batches                      ...     1167
Average number of points per batch           ...       63
Average number of grid points per atom       ...    12419
Average number of shells per batch           ...    32.96 (86.73%)
Average number of basis functions per batch  ...    76.40 (88.83%)
Average number of large shells per batch     ...    30.33 (92.05%)
Average number of large basis fcns per batch ...    71.54 (93.64%)
Maximum spatial batch extension              ...  13.18, 14.24, 15.48 au
Average spatial batch extension              ...   0.33,  0.36,  0.36 au

Final grid set up in    0.9 sec
Final integration                            ... done (   0.2 sec)
Change in XC energy                          ...    -0.000107656
Integrated number of electrons               ...    18.000000751
Previous integrated no of electrons          ...    18.000002281
Total Energy       :         -115.73780351 Eh           -3149.38575 eV
  Last Energy change         ...   -2.6878e-10  Tolerance :   1.0000e-08
  Last MAX-Density change    ...    1.2693e-06  Tolerance :   1.0000e-07
             **** THE GBW FILE WAS UPDATED (10_geo_opt.gbw) ****
             **** DENSITY FILE WAS UPDATED (10_geo_opt.scfp.tmp) ****
             **** ENERGY FILE WAS UPDATED (10_geo_opt.en.tmp) ****
Total SCF time: 0 days 0 hours 0 min 5 sec 


-------------------------------------------------------------------------------
                          DFT DISPERSION CORRECTION                            
                                                                               
                              DFTD3 V3.1  Rev 1                                
                              USING zero damping                               
-------------------------------------------------------------------------------
-------------------------   ----------------
Dispersion correction           -0.000238559
-------------------------   ----------------


-------------------------   --------------------
FINAL SINGLE POINT ENERGY      -115.738042065494
-------------------------   --------------------



           ************************************************************
           *        Program running with 4 parallel MPI-processes     *
           *              working on a common directory               *
           ************************************************************
------------------------------------------------------------------------------
                         ORCA SCF GRADIENT CALCULATION
------------------------------------------------------------------------------

Gradient of the Kohn-Sham DFT energy:
Kohn-Sham wavefunction type      ... RKS
Hartree-Fock exchange scaling    ...    0.196
Number of operators              ...    1
Number of atoms                  ...    6
Basis set dimensions             ...   86
Integral neglect threshold       ... 2.5e-11
Integral primitive cutoff        ... 2.5e-12

Nuclear repulsion gradient       ... done
One Electron Gradient            ... done
Pre-screening matrix             ... done
Starting the two electron gradient:
Two electron gradient done
Exchange-correlation gradient    ... done
Dispersion correction            ... done

------------------
CARTESIAN GRADIENT
------------------

   1   C   :   -0.000511255   -0.001116655   -0.000496282
   2   O   :   -0.000441103    0.000785609    0.000210101
   3   H   :    0.000215241    0.000021057    0.000009792
   4   H   :   -0.000057408   -0.000031001    0.000004259
   5   H   :   -0.000045474   -0.000014994   -0.000064564
   6   H   :    0.000840000    0.000355983    0.000336695

Difference to translation invariance:
           :    0.0000000000   -0.0000000000    0.0000000000

Norm of the cartesian gradient     ...    0.0019009954
RMS gradient                       ...    0.0004480689
MAX gradient                       ...    0.0011166548

-------
TIMINGS
-------

Total SCF gradient time            ...        1.590 sec

One electron gradient       ....       0.004 sec  (  0.3%)
Prescreening matrices       ....       0.024 sec  (  1.5%)
Two electron gradient       ....       0.842 sec  ( 53.0%)
XC gradient                 ....       0.407 sec  ( 25.6%)
------------------------------------------------------------------------------
                         ORCA GEOMETRY RELAXATION STEP
------------------------------------------------------------------------------

Reading the OPT-File                    .... done
Getting information on internals        .... done
Copying old internal coords+grads       .... done
Making the new internal coordinates     .... (new redundants).... done
Validating the new internal coordinates .... (new redundants).... done
Calculating the B-matrix                .... done
Calculating the G,G- and P matrices     .... done
Transforming gradient to internals      .... done
Projecting the internal gradient        .... done
Number of atoms                         ....   6
Number of internal coordinates          ....  15
Current Energy                          ....  -115.738042065 Eh
Current gradient norm                   ....     0.001900995 Eh/bohr
Maximum allowed component of the step   ....  0.300
Current trust radius                    ....  0.300
Updating the Hessian (BFGS)             .... done
Forming the augmented Hessian           .... done
Diagonalizing the augmented Hessian     .... done
Last element of RFO vector              ....  0.999998847
Lowest eigenvalues of augmented Hessian:
 -0.000000489  0.021122216  0.184212372  0.197273097  0.306816179
Length of the computed step             ....  0.001518325
The final length of the internal step   ....  0.001518325
Converting the step to cartesian space:
 Initial RMS(Int)=    0.0003920297
Transforming coordinates:
 Iter   0:  RMS(Cart)=    0.0003704407 RMS(Int)=    0.0003919610
 Iter   1:  RMS(Cart)=    0.0000001821 RMS(Int)=    0.0000002513
 Iter   2:  RMS(Cart)=    0.0000000002 RMS(Int)=    0.0000000001
Imposing constraints:
 Iter   0:  RMS(Cart)=    0.0000000118 RMS(Int)=    0.0000000095
CONVERGED
done
Storing new coordinates                 .... done

                                .--------------------.
          ----------------------|Geometry convergence|-------------------------
          Item                value                   Tolerance       Converged
          ---------------------------------------------------------------------
          Energy change      -0.0000079166            0.0000050000      NO
          RMS gradient        0.0001069414            0.0001000000      NO
          MAX gradient        0.0003497779            0.0003000000      NO
          RMS step            0.0003920297            0.0020000000      YES
          MAX step            0.0010262889            0.0040000000      YES
          ........................................................
          Max(Bonds)      0.0002      Max(Angles)    0.06
          Max(Dihed)        0.04      Max(Improp)    0.00
          ---------------------------------------------------------------------

       The step convergence is overachieved with 
       reasonable convergence on the gradient
       Convergence will therefore be signaled now


                    ***********************HURRAY********************
                    ***        THE OPTIMIZATION HAS CONVERGED     ***
                    *************************************************


    ---------------------------------------------------------------------------
                         Redundant Internal Coordinates

                          --- Optimized Parameters ---  
                            (Angstroem and degrees)

        Definition                    OldVal   dE/dq     Step     FinalVal
    ----------------------------------------------------------------------------
     1. B(O   1,C   0)                1.4116 -0.000145  0.0002    1.4118   
     2. B(H   2,O   1)                0.9575  0.000096 -0.0000    0.9575   
     3. B(H   3,C   0)                1.0960  0.000011 -0.0000    1.0959   
     4. B(H   4,C   0)                1.0894 -0.000003  0.0000    1.0894   
     5. B(H   5,C   0)                1.0960 -0.000001  0.0000    1.0960   
     6. A(O   1,C   0,H   4)          107.12  0.000344   -0.01    107.10   
     7. A(O   1,C   0,H   3)          112.34  0.000384   -0.01    112.33   
     8. A(O   1,C   0,H   5)          111.73 -0.001565   -0.00    111.73 C 
     9. A(H   3,C   0,H   5)          108.92  0.000459    0.00    108.92   
    10. A(H   4,C   0,H   5)          108.34  0.000396    0.00    108.34   
    11. A(H   3,C   0,H   4)          108.26  0.000026    0.02    108.28   
    12. A(C   0,O   1,H   2)          108.84  0.000350   -0.06    108.78   
    13. D(H   2,O   1,C   0,H   5)    -61.81  0.000019    0.03    -61.78   
    14. D(H   2,O   1,C   0,H   3)     60.94 -0.000263    0.03     60.97   
    15. D(H   2,O   1,C   0,H   4)    179.69  0.000210    0.04    179.73   
    ----------------------------------------------------------------------------
                 *******************************************************
                 *** FINAL ENERGY EVALUATION AT THE STATIONARY POINT ***
                 ***               (AFTER    2 CYCLES)               ***
                 *******************************************************
---------------------------------
CARTESIAN COORDINATES (ANGSTROEM)
---------------------------------
  C      3.011126   -1.181232    0.598558
  O      4.393908   -1.124036    0.877407
  H      4.771720   -0.377546    0.411730
  H      2.807113   -1.318750   -0.469415
  H      2.611147   -2.040190    1.136191
  H      2.489371   -0.282617    0.947250

----------------------------
CARTESIAN COORDINATES (A.U.)
----------------------------
  NO LB      ZA    FRAG     MASS         X           Y           Z
   0 C     6.0000    0    12.011    5.690204   -2.232205    1.131110
   1 O     8.0000    0    15.999    8.303283   -2.124121    1.658059
   2 H     1.0000    0     1.008    9.017244   -0.713459    0.778058
   3 H     1.0000    0     1.008    5.304676   -2.492077   -0.887066
   4 H     1.0000    0     1.008    4.934353   -3.855401    2.147091
   5 H     1.0000    0     1.008    4.704229   -0.534069    1.790043

--------------------------------
INTERNAL COORDINATES (ANGSTROEM)
--------------------------------
 C      0   0   0     0.000000000000     0.00000000     0.00000000
 O      1   0   0     1.411776828092     0.00000000     0.00000000
 H      2   1   0     0.957519651002   108.78361711     0.00000000
 H      1   2   3     1.095946625319   112.32671123    60.97088032
 H      1   2   3     1.089423176397   107.10206944   179.72722674
 H      1   2   3     1.096048763909   111.72819331   298.21706672

---------------------------
INTERNAL COORDINATES (A.U.)
---------------------------
 C      0   0   0     0.000000000000     0.00000000     0.00000000
 O      1   0   0     2.667871567311     0.00000000     0.00000000
 H      2   1   0     1.809449908241   108.78361711     0.00000000
 H      1   2   3     2.071038979249   112.32671123    60.97088032
 H      1   2   3     2.058711447337   107.10206944   179.72722674
 H      1   2   3     2.071231993211   111.72819331   298.21706672

---------------------
BASIS SET INFORMATION
---------------------
There are 3 groups of distinct atoms

 Group   1 Type C   : 11s6p2d1f contracted to 5s3p2d1f pattern {62111/411/11/1}
 Group   2 Type O   : 11s6p2d1f contracted to 5s3p2d1f pattern {62111/411/11/1}
 Group   3 Type H   : 5s1p contracted to 3s1p pattern {311/1}

Atom   0C    basis set group =>   1
Atom   1O    basis set group =>   2
Atom   2H    basis set group =>   3
Atom   3H    basis set group =>   3
Atom   4H    basis set group =>   3
Atom   5H    basis set group =>   3


           ************************************************************
           *        Program running with 4 parallel MPI-processes     *
           *              working on a common directory               *
           ************************************************************
------------------------------------------------------------------------------
                           ORCA GTO INTEGRAL CALCULATION
------------------------------------------------------------------------------

                         BASIS SET STATISTICS AND STARTUP INFO

 # of primitive gaussian shells          ...   64
 # of primitive gaussian functions       ...  124
 # of contracted shells                  ...   38
 # of contracted basis functions         ...   86
 Highest angular momentum                ...    3
 Maximum contraction depth               ...    6
 Integral package used                   ... LIBINT
 Integral threshhold            Thresh   ...  2.500e-11
 Primitive cut-off              TCut     ...  2.500e-12


------------------------------ INTEGRAL EVALUATION ----------------------------


 * One electron integrals 
 Pre-screening matrix                    ... done
 Shell pair data                         ... done (   0.000 sec)



           ************************************************************
           *        Program running with 4 parallel MPI-processes     *
           *              working on a common directory               *
           ************************************************************
-------------------------------------------------------------------------------
                                 ORCA SCF
-------------------------------------------------------------------------------

------------
SCF SETTINGS
------------
Hamiltonian:
 Density Functional     Method          .... DFT(GTOs)
 Exchange Functional    Exchange        .... WB97X-D3
 Correlation Functional Correlation     .... WB97X-D3
 Gradients option       PostSCFGGA      .... off
 Hybrid DFT is turned on
   Fraction HF Exchange ScalHFX         ....  0.195728
   Scaling of DF-GGA-X  ScalDFX         ....  0.000000
   Scaling of DF-GGA-C  ScalDFC         ....  1.000000
   Scaling of DF-LDA-C  ScalLDAC        ....  1.000000
   Perturbative correction              ....  0.000000
   Density functional embedding theory  .... OFF
 Long-range corrected/Screened/Range-Separated Hybrid DFT is turned on
   Amount of maximum screened exact exchange              ....  0.804272
   Range separation parameter mu (erf(mu*r12)/r12)        ....  0.250000


General Settings:
 Integral files         IntName         .... 10_geo_opt
 Hartree-Fock type      HFTyp           .... RHF
 Total Charge           Charge          ....    0
 Multiplicity           Mult            ....    1
 Number of Electrons    NEL             ....   18
 Basis Dimension        Dim             ....   86
 Nuclear Repulsion      ENuc            ....     40.4388160868 Eh

Convergence Acceleration:
 DIIS                   CNVDIIS         .... on
   Start iteration      DIISMaxIt       ....    12
   Startup error        DIISStart       ....  0.200000
   # of expansion vecs  DIISMaxEq       ....     5
   Bias factor          DIISBfac        ....   1.050
   Max. coefficient     DIISMaxC        ....  10.000
 Newton-Raphson         CNVNR           .... off
 SOSCF                  CNVSOSCF        .... on
   Start iteration      SOSCFMaxIt      ....   150
   Startup grad/error   SOSCFStart      ....  0.003300
 Level Shifting         CNVShift        .... on
   Level shift para.    LevelShift      ....    0.2500
   Turn off err/grad.   ShiftErr        ....    0.0010
 Zerner damping         CNVZerner       .... off
 Static damping         CNVDamp         .... on
   Fraction old density DampFac         ....    0.7000
   Max. Damping (<1)    DampMax         ....    0.9800
   Min. Damping (>=0)   DampMin         ....    0.0000
   Turn off err/grad.   DampErr         ....    0.1000
 Fernandez-Rico         CNVRico         .... off

SCF Procedure:
 Maximum # iterations   MaxIter         ....   125
 SCF integral mode      SCFMode         .... Direct
   Integral package                     .... LIBINT
 Reset frequency        DirectResetFreq ....    20
 Integral Threshold     Thresh          ....  2.500e-11 Eh
 Primitive CutOff       TCut            ....  2.500e-12 Eh

Convergence Tolerance:
 Convergence Check Mode ConvCheckMode   .... Total+1el-Energy
 Convergence forced     ConvForced      .... 0
 Energy Change          TolE            ....  1.000e-08 Eh
 1-El. energy change                    ....  1.000e-05 Eh
 Orbital Gradient       TolG            ....  1.000e-05
 Orbital Rotation angle TolX            ....  1.000e-05
 DIIS Error             TolErr          ....  5.000e-07


Diagonalization of the overlap matrix:
Smallest eigenvalue                        ... 1.650e-03
Time for diagonalization                   ...    0.002 sec
Threshold for overlap eigenvalues          ... 1.000e-08
Number of eigenvalues below threshold      ... 0
Time for construction of square roots      ...    0.004 sec
Total time needed                          ...    0.006 sec

---------------------
INITIAL GUESS: MOREAD
---------------------
Guess MOs are being read from file: 10_geo_opt.gbw
Input Geometry matches current geometry (good)
Input basis set matches current basis set (good)
MOs were renormalized
MOs were reorthogonalized (Cholesky)
                      ------------------
                      INITIAL GUESS DONE (   0.0 sec)
                      ------------------
-------------------
DFT GRID GENERATION
-------------------

General Integration Accuracy     IntAcc      ...  5.010
Radial Grid Type                 RadialGrid  ... Gauss-Chebyshev
Angular Grid (max. acc.)         AngularGrid ... Lebedev-434
Angular grid pruning method      GridPruning ... 3 (G Style)
Weight generation scheme         WeightScheme... Becke
Basis function cutoff            BFCut       ...    1.0000e-11
Integration weight cutoff        WCut        ...    1.0000e-14
Grids for H and He will be reduced by one unit

# of grid points (after initial pruning)     ...  48308 (   0.0 sec)
# of grid points (after weights+screening)   ...  46683 (   0.0 sec)
nearest neighbour list constructed           ...    0.0 sec
Grid point re-assignment to atoms done       ...    0.0 sec
Grid point division into batches done        ...    0.3 sec
Reduced shell lists constructed in    0.3 sec

Total number of grid points                  ...    46683
Total number of batches                      ...      733
Average number of points per batch           ...       63
Average number of grid points per atom       ...     7780
Average number of shells per batch           ...    33.12 (87.16%)
Average number of basis functions per batch  ...    76.75 (89.25%)
Average number of large shells per batch     ...    30.58 (92.35%)
Average number of large basis fcns per batch ...    72.14 (93.99%)
Maximum spatial batch extension              ...  15.77, 14.99, 16.57 au
Average spatial batch extension              ...   0.41,  0.41,  0.42 au

Time for grid setup =    0.373 sec

--------------
SCF ITERATIONS
--------------
ITER       Energy         Delta-E        Max-DP      RMS-DP      [F,P]     Damp
               ***  Starting incremental Fock matrix formation  ***
                      *** Initiating the SOSCF procedure ***
                      *** Re-Reading the Fockian *** 
                      *** Removing any level shift *** 
ITER      Energy       Delta-E        Grad      Rot      Max-DP    RMS-DP
  0   -115.73769633 -115.7376963287  0.000069  0.000069  0.000080  0.000004
               *** Restarting incremental Fock matrix formation ***
  1   -115.73769643  -0.0000000989  0.000029  0.000028  0.000040  0.000002
  2   -115.73769644  -0.0000000125  0.000008  0.000013  0.000020  0.000001
  3   -115.73769644  -0.0000000008  0.000006  0.000004  0.000006  0.000000
                  ***Gradient check signals convergence***
              ***Rediagonalizing the Fockian in SOSCF/NRSCF***

               *****************************************************
               *                     SUCCESS                       *
               *           SCF CONVERGED AFTER   4 CYCLES          *
               *****************************************************

Setting up the final grid:

General Integration Accuracy     IntAcc      ...  5.340
Radial Grid Type                 RadialGrid  ... Gauss-Chebyshev
Angular Grid (max. acc.)         AngularGrid ... Lebedev-590
Angular grid pruning method      GridPruning ... 3 (G Style)
Weight generation scheme         WeightScheme... Becke
Basis function cutoff            BFCut       ...    1.0000e-11
Integration weight cutoff        WCut        ...    1.0000e-14
Grids for H and He will be reduced by one unit

# of grid points (after initial pruning)     ...  77324 (   0.0 sec)
# of grid points (after weights+screening)   ...  74514 (   0.0 sec)
nearest neighbour list constructed           ...    0.0 sec
Grid point re-assignment to atoms done       ...    0.0 sec
Grid point division into batches done        ...    0.8 sec
Reduced shell lists constructed in    0.9 sec

Total number of grid points                  ...    74514
Total number of batches                      ...     1167
Average number of points per batch           ...       63
Average number of grid points per atom       ...    12419
Average number of shells per batch           ...    32.95 (86.70%)
Average number of basis functions per batch  ...    76.37 (88.80%)
Average number of large shells per batch     ...    30.33 (92.08%)
Average number of large basis fcns per batch ...    71.55 (93.69%)
Maximum spatial batch extension              ...  13.18, 14.24, 15.48 au
Average spatial batch extension              ...   0.33,  0.36,  0.36 au

Final grid set up in    1.0 sec
Final integration                            ... done (   0.2 sec)
Change in XC energy                          ...    -0.000107610
Integrated number of electrons               ...    18.000000752
Previous integrated no of electrons          ...    18.000002286

----------------
TOTAL SCF ENERGY
----------------

Total Energy       :         -115.73780405 Eh           -3149.38576 eV

Components:
Nuclear Repulsion  :           40.43881609 Eh            1100.39613 eV
Electronic Energy  :         -156.17662014 Eh           -4249.78189 eV
One Electron Energy:         -237.29817034 Eh           -6457.21149 eV
Two Electron Energy:           81.12155020 Eh            2207.42960 eV

Virial components:
Potential Energy   :         -230.98879719 Eh           -6285.52472 eV
Kinetic Energy     :          115.25099314 Eh            3136.13896 eV
Virial Ratio       :            2.00422392


DFT components:
N(Alpha)           :        9.000000375868 electrons
N(Beta)            :        9.000000375868 electrons
N(Total)           :       18.000000751736 electrons
E(XC)              :      -10.655689322046 Eh       
DFET-embed. en.    :        0.000000000000 Eh       

---------------
SCF CONVERGENCE
---------------

  Last Energy change         ...   -2.9974e-10  Tolerance :   1.0000e-08
  Last MAX-Density change    ...    1.8836e-06  Tolerance :   1.0000e-07
  Last RMS-Density change    ...    1.0025e-07  Tolerance :   5.0000e-09
  Last Orbital Gradient      ...    1.4404e-06  Tolerance :   1.0000e-05
  Last Orbital Rotation      ...    1.1497e-06  Tolerance :   1.0000e-05

             **** THE GBW FILE WAS UPDATED (10_geo_opt.gbw) ****
             **** DENSITY FILE WAS UPDATED (10_geo_opt.scfp.tmp) ****
             **** ENERGY FILE WAS UPDATED (10_geo_opt.en.tmp) ****
----------------
ORBITAL ENERGIES
----------------

  NO   OCC          E(Eh)            E(eV) 
   0   2.0000     -19.227852      -523.2164 
   1   2.0000     -10.315119      -280.6887 
   2   2.0000      -1.136629       -30.9292 
   3   2.0000      -0.795285       -21.6408 
   4   2.0000      -0.611338       -16.6353 
   5   2.0000      -0.541990       -14.7483 
   6   2.0000      -0.526444       -14.3253 
   7   2.0000      -0.433635       -11.7998 
   8   2.0000      -0.373462       -10.1624 
   9   0.0000       0.116600         3.1729 
  10   0.0000       0.156816         4.2672 
  11   0.0000       0.202662         5.5147 
  12   0.0000       0.204999         5.5783 
  13   0.0000       0.226139         6.1536 
  14   0.0000       0.304391         8.2829 
  15   0.0000       0.313153         8.5213 
  16   0.0000       0.404552        11.0084 
  17   0.0000       0.452394        12.3103 
  18   0.0000       0.484809        13.1923 
  19   0.0000       0.536040        14.5864 
  20   0.0000       0.543616        14.7925 
  21   0.0000       0.567859        15.4522 
  22   0.0000       0.598369        16.2825 
  23   0.0000       0.603693        16.4273 
  24   0.0000       0.671300        18.2670 
  25   0.0000       0.779634        21.2149 
  26   0.0000       0.832046        22.6411 
  27   0.0000       0.861696        23.4479 
  28   0.0000       0.989272        26.9194 
  29   0.0000       1.013607        27.5817 
  30   0.0000       1.109905        30.2021 
  31   0.0000       1.382578        37.6219 
  32   0.0000       1.512431        41.1553 
  33   0.0000       1.553233        42.2656 
  34   0.0000       1.603117        43.6230 
  35   0.0000       1.613131        43.8955 
  36   0.0000       1.623515        44.1781 
  37   0.0000       1.660357        45.1806 
  38   0.0000       1.689085        45.9623 
  39   0.0000       1.773913        48.2706 
  40   0.0000       1.952627        53.1337 
  41   0.0000       2.030019        55.2396 
  42   0.0000       2.054695        55.9111 
  43   0.0000       2.094942        57.0063 
  44   0.0000       2.114791        57.5464 
  45   0.0000       2.269248        61.7494 
  46   0.0000       2.333443        63.4962 
  47   0.0000       2.345543        63.8255 
  48   0.0000       2.381018        64.7908 
  49   0.0000       2.427976        66.0686 
  50   0.0000       2.497908        67.9715 
  51   0.0000       2.595978        70.6401 
  52   0.0000       2.640058        71.8396 
  53   0.0000       2.707155        73.6654 
  54   0.0000       2.841531        77.3220 
  55   0.0000       2.873459        78.1908 
  56   0.0000       2.887127        78.5627 
  57   0.0000       2.992743        81.4367 
  58   0.0000       3.096320        84.2551 
  59   0.0000       3.173770        86.3627 
  60   0.0000       3.299704        89.7895 
  61   0.0000       3.410190        92.7960 
  62   0.0000       3.442360        93.6714 
  63   0.0000       3.486582        94.8747 
  64   0.0000       3.613811        98.3368 
  65   0.0000       3.645016        99.1859 
  66   0.0000       3.666319        99.7656 
  67   0.0000       4.005934       109.0070 
  68   0.0000       4.222618       114.9033 
  69   0.0000       4.273033       116.2752 
  70   0.0000       4.457129       121.2846 
  71   0.0000       4.564684       124.2114 
  72   0.0000       5.345974       145.4714 
  73   0.0000       5.425244       147.6284 
  74   0.0000       5.554613       151.1487 
  75   0.0000       5.826017       158.5340 
  76   0.0000       5.833893       158.7483 
  77   0.0000       5.985124       162.8635 
  78   0.0000       6.379810       173.6034 
  79   0.0000       6.531288       177.7254 
  80   0.0000       6.744897       183.5380 
  81   0.0000       6.804836       185.1690 
  82   0.0000       7.039571       191.5565 
  83   0.0000       7.216178       196.3622 
  84   0.0000      22.405859       609.6944 
  85   0.0000      43.664719      1188.1774 

                    ********************************
                    * MULLIKEN POPULATION ANALYSIS *
                    ********************************

-----------------------
MULLIKEN ATOMIC CHARGES
-----------------------
   0 C :   -0.150593
   1 O :   -0.478040
   2 H :    0.313013
   3 H :    0.098700
   4 H :    0.118273
   5 H :    0.098647
Sum of atomic charges:   -0.0000000

--------------------------------
MULLIKEN REDUCED ORBITAL CHARGES
--------------------------------
  0 C s       :     3.223441  s :     3.223441
      pz      :     1.046807  p :     2.825523
      px      :     0.702328
      py      :     1.076389
      dz2     :     0.011088  d :     0.094209
      dxz     :     0.032388
      dyz     :     0.002672
      dx2y2   :     0.012842
      dxy     :     0.035220
      f0      :     0.001354  f :     0.007420
      f+1     :     0.000961
      f-1     :     0.000174
      f+2     :     0.001458
      f-2     :     0.000131
      f+3     :     0.001358
      f-3     :     0.001984
  1 O s       :     3.792684  s :     3.792684
      pz      :     1.756656  p :     4.653114
      px      :     1.314637
      py      :     1.581821
      dz2     :     0.003126  d :     0.030555
      dxz     :     0.006519
      dyz     :     0.005875
      dx2y2   :     0.008886
      dxy     :     0.006148
      f0      :     0.000267  f :     0.001686
      f+1     :     0.000231
      f-1     :     0.000088
      f+2     :     0.000288
      f-2     :     0.000238
      f+3     :     0.000366
      f-3     :     0.000208
  2 H s       :     0.639294  s :     0.639294
      pz      :     0.016986  p :     0.047693
      px      :     0.012733
      py      :     0.017974
  3 H s       :     0.881948  s :     0.881948
      pz      :     0.012078  p :     0.019352
      px      :     0.003000
      py      :     0.004275
  4 H s       :     0.861517  s :     0.861517
      pz      :     0.006295  p :     0.020210
      px      :     0.004194
      py      :     0.009721
  5 H s       :     0.881982  s :     0.881982
      pz      :     0.004930  p :     0.019370
      px      :     0.004947
      py      :     0.009492


                     *******************************
                     * LOEWDIN POPULATION ANALYSIS *
                     *******************************

----------------------
LOEWDIN ATOMIC CHARGES
----------------------
   0 C :   -0.384678
   1 O :   -0.076569
   2 H :    0.165722
   3 H :    0.093374
   4 H :    0.108631
   5 H :    0.093520

-------------------------------
LOEWDIN REDUCED ORBITAL CHARGES
-------------------------------
  0 C s       :     2.863192  s :     2.863192
      pz      :     1.096467  p :     3.051849
      px      :     0.846042
      py      :     1.109340
      dz2     :     0.072397  d :     0.412593
      dxz     :     0.113770
      dyz     :     0.020848
      dx2y2   :     0.082238
      dxy     :     0.123340
      f0      :     0.007793  f :     0.057044
      f+1     :     0.007157
      f-1     :     0.000845
      f+2     :     0.012525
      f-2     :     0.004880
      f+3     :     0.011749
      f-3     :     0.012096
  1 O s       :     3.366273  s :     3.366273
      pz      :     1.697244  p :     4.634119
      px      :     1.381858
      py      :     1.555017
      dz2     :     0.006114  d :     0.071534
      dxz     :     0.017911
      dyz     :     0.008174
      dx2y2   :     0.019266
      dxy     :     0.020070
      f0      :     0.000480  f :     0.004642
      f+1     :     0.000623
      f-1     :     0.000075
      f+2     :     0.001049
      f-2     :     0.000567
      f+3     :     0.000884
      f-3     :     0.000964
  2 H s       :     0.675177  s :     0.675177
      pz      :     0.055890  p :     0.159101
      px      :     0.033952
      py      :     0.069259
  3 H s       :     0.846786  s :     0.846786
      pz      :     0.036216  p :     0.059839
      px      :     0.009709
      py      :     0.013914
  4 H s       :     0.831758  s :     0.831758
      pz      :     0.019223  p :     0.059612
      px      :     0.011623
      py      :     0.028765
  5 H s       :     0.846688  s :     0.846688
      pz      :     0.015605  p :     0.059793
      px      :     0.015097
      py      :     0.029091


                      *****************************
                      * MAYER POPULATION ANALYSIS *
                      *****************************

  NA   - Mulliken gross atomic population
  ZA   - Total nuclear charge
  QA   - Mulliken gross atomic charge
  VA   - Mayer's total valence
  BVA  - Mayer's bonded valence
  FA   - Mayer's free valence

  ATOM       NA         ZA         QA         VA         BVA        FA
  0 C      6.1506     6.0000    -0.1506     3.9348     3.9348    -0.0000
  1 O      8.4780     8.0000    -0.4780     1.8872     1.8872    -0.0000
  2 H      0.6870     1.0000     0.3130     0.9136     0.9136     0.0000
  3 H      0.9013     1.0000     0.0987     0.9596     0.9596    -0.0000
  4 H      0.8817     1.0000     0.1183     0.9597     0.9597    -0.0000
  5 H      0.9014     1.0000     0.0986     0.9600     0.9600    -0.0000

  Mayer bond orders larger than 0.1
B(  0-C ,  1-O ) :   0.9982 B(  0-C ,  3-H ) :   0.9753 B(  0-C ,  4-H ) :   0.9748 
B(  0-C ,  5-H ) :   0.9762 B(  1-O ,  2-H ) :   0.9002 

-------
TIMINGS
-------

Total SCF time: 0 days 0 hours 0 min 5 sec 

Total time                  ....       5.152 sec
Sum of individual times     ....       4.823 sec  ( 93.6%)

Fock matrix formation       ....       3.402 sec  ( 66.0%)
  XC integration            ....       0.929 sec  ( 27.3% of F)
    Basis function eval.    ....       0.198 sec  ( 21.3% of XC)
    Density eval.           ....       0.124 sec  ( 13.3% of XC)
    XC-Functional eval.     ....       0.320 sec  ( 34.5% of XC)
    XC-Potential eval.      ....       0.118 sec  ( 12.8% of XC)
Diagonalization             ....       0.003 sec  (  0.1%)
Density matrix formation    ....       0.002 sec  (  0.0%)
Population analysis         ....       0.011 sec  (  0.2%)
Initial guess               ....       0.003 sec  (  0.1%)
Orbital Transformation      ....       0.000 sec  (  0.0%)
Orbital Orthonormalization  ....       0.001 sec  (  0.0%)
DIIS solution               ....       0.000 sec  (  0.0%)
SOSCF solution              ....       0.010 sec  (  0.2%)
Grid generation             ....       1.391 sec  ( 27.0%)


-------------------------------------------------------------------------------
                          DFT DISPERSION CORRECTION                            
                                                                               
                              DFTD3 V3.1  Rev 1                                
                              USING zero damping                               
-------------------------------------------------------------------------------
The omegaB97X-D3 functional is recognized. Fit by Chai et al.
Active option DFTDOPT                   ...         3   

molecular C6(AA) [au] = 208.715834 


            DFT-D V3
 parameters
 s6 scaling factor         :     1.0000 
 rs6 scaling factor        :     1.2810 
 s8 scaling factor         :     1.0000 
 rs8 scaling factor        :     1.0940 
 Damping factor alpha6     :    14.0000 
 Damping factor alpha8     :    16.0000 
 ad hoc parameters k1-k3   :    16.0000     1.3333    -4.0000 

 Edisp/kcal,au: -0.149613800086  -0.000238424741 
 E6   /kcal   :  -0.029547830 
 E8   /kcal   :  -0.120065970 
 % E8         :  80.250598289 

-------------------------   ----------------
Dispersion correction           -0.000238425
-------------------------   ----------------


-------------------------   --------------------
FINAL SINGLE POINT ENERGY      -115.738042476425
-------------------------   --------------------

                                *** OPTIMIZATION RUN DONE ***

                            ***************************************
                            *     ORCA property calculations      *
                            ***************************************

                                    ---------------------
                                    Active property flags
                                    ---------------------
   (+) Dipole Moment


------------------------------------------------------------------------------
                       ORCA ELECTRIC PROPERTIES CALCULATION
------------------------------------------------------------------------------

Dipole Moment Calculation                       ... on
Quadrupole Moment Calculation                   ... off
Polarizability Calculation                      ... off
GBWName                                         ... 10_geo_opt.gbw
Electron density file                           ... 10_geo_opt.scfp.tmp
The origin for moment calculation is the CENTER OF MASS  = ( 7.032690, -2.136277  1.372317)

-------------
DIPOLE MOMENT
-------------
                                X             Y             Z
Electronic contribution:      1.75048      -0.02759       0.42088
Nuclear contribution   :     -2.06043       0.47178      -0.82246
                        -----------------------------------------
Total Dipole Moment    :     -0.30995       0.44419      -0.40158
                        -----------------------------------------
Magnitude (a.u.)       :      0.67427
Magnitude (Debye)      :      1.71386



--------------------
Rotational spectrum 
--------------------
 
Rotational constants in cm-1:     4.288688     0.833980     0.805147 
Rotational constants in MHz : 128571.627944 25002.088897 24137.697065 

 Dipole components along the rotational axes: 
x,y,z [a.u.] :    -0.333196     0.586194     0.000727 
x,y,z [Debye]:    -0.846917     1.489987     0.001847 

 
------------------------------------------------------------------------------
                      ORCA CHELPG CHARGES GENERATION
------------------------------------------------------------------------------

GBW file                           ... 10_geo_opt.gbw

Reading the GBW file               ... done

Grid spacing                       ...     0.300000
Point Cut-Off                      ...     2.800000
Van-der-Waals Radii                ...        COSMO
Total charge                       ...            0


Number of points X direction       ...           26
Number of points Y direction       ...           24
Number of points Z direction       ...           24
Maximum number of possible points  ...        14976
Final number of points             ...         5942


CHELPG Charges            
--------------------------------
  0   C   :       0.091413
  1   O   :      -0.606764
  2   H   :       0.403955
  3   H   :       0.015191
  4   H   :       0.081773
  5   H   :       0.014432
--------------------------------
Total charge:     0.000000
--------------------------------

CHELPG charges calculated...

Timings for individual parts in CHELPG calculation:
Grid generation                 ...        0.001 sec (=   0.000 min)
Potential calculation           ...        0.662 sec (=   0.011 min)
Fit to the potential            ...        0.001 sec (=   0.000 min)
------------------------------------------------------------------------------


Timings for individual modules:

Sum of individual times         ...       45.816 sec (=   0.764 min)
GTO integral calculation        ...        9.003 sec (=   0.150 min)  19.6 %
SCF iterations                  ...       23.868 sec (=   0.398 min)  52.1 %
SCF Gradient evaluation         ...        8.909 sec (=   0.148 min)  19.4 %
Geometry relaxation             ...        3.296 sec (=   0.055 min)   7.2 %
CHELPG charge generation        ...        0.742 sec (=   0.012 min)   1.6 %
                             ****ORCA TERMINATED NORMALLY****
TOTAL RUN TIME: 0 days 0 hours 0 minutes 48 seconds 20 msec
