
                                 *****************
                                 * O   R   C   A *
                                 *****************

           --- An Ab Initio, DFT and Semiempirical electronic structure package ---

                  #######################################################
                  #                        -***-                        #
                  #          Department of theory and spectroscopy      #
                  #               Directorship: Frank Neese             #
                  #        Max Planck Institute fuer Kohlenforschung    #
                  #                Kaiser Wilhelm Platz 1               #
                  #                 D-45470 Muelheim/Ruhr               #
                  #                      Germany                        #
                  #                                                     #
                  #                  All rights reserved                #
                  #                        -***-                        #
                  #######################################################


                         Program Version 4.1.2  - RELEASE  -


 With contributions from (in alphabetic order):
   Daniel Aravena         : Magnetic Properties
   Michael Atanasov       : Ab Initio Ligand Field Theory
   Alexander A. Auer      : GIAO ZORA
   Ute Becker             : Parallelization
   Giovanni Bistoni       : ED, Open-shell LED
   Martin Brehm           : Molecular dynamics
   Dmytro Bykov           : SCF Hessian
   Vijay G. Chilkuri      : MRCI spin determinant printing
   Dipayan Datta          : RHF DLPNO-CCSD density
   Achintya Kumar Dutta   : EOM-CC, STEOM-CC
   Dmitry Ganyushin       : Spin-Orbit,Spin-Spin,Magnetic field MRCI
   Miquel Garcia          : C-PCM Hessian
   Yang Guo               : DLPNO-NEVPT2, CIM, IAO-localization
   Andreas Hansen         : Spin unrestricted coupled pair/coupled cluster methods
   Benjamin Helmich-Paris : CASSCF linear response (MC-RPA)
   Lee Huntington         : MR-EOM, pCC
   Robert Izsak           : Overlap fitted RIJCOSX, COSX-SCS-MP3, EOM
   Christian Kollmar      : KDIIS, OOCD, Brueckner-CCSD(T), CCSD density
   Simone Kossmann        : Meta GGA functionals, TD-DFT gradient, OOMP2, MP2 Hessian
   Martin Krupicka        : AUTO-CI
   Lucas Lang             : DCDCAS
   Dagmar Lenk            : GEPOL surface, SMD
   Dimitrios Liakos       : Extrapolation schemes; parallel MDCI
   Dimitrios Manganas     : ROCIS; embedding schemes
   Dimitrios Pantazis     : SARC Basis sets
   Taras Petrenko         : DFT Hessian,TD-DFT gradient, ASA, ECA, R-Raman, ABS, FL, XAS/XES, NRVS
   Peter Pinski           : DLPNO-MP2, DLPNO-MP2 Gradient
   Christoph Reimann      : Effective Core Potentials
   Marius Retegan         : Local ZFS, SOC
   Christoph Riplinger    : Optimizer, TS searches, QM/MM, DLPNO-CCSD(T), (RO)-DLPNO pert. Triples
   Tobias Risthaus        : Range-separated hybrids, TD-DFT gradient, RPA, STAB
   Michael Roemelt        : Restricted open shell CIS
   Masaaki Saitow         : Open-shell DLPNO
   Barbara Sandhoefer     : DKH picture change effects
   Avijit Sen             : IP-ROCIS
   Kantharuban Sivalingam : CASSCF convergence, NEVPT2, FIC-MRCI
   Bernardo de Souza      : ESD, SOC TD-DFT
   Georgi Stoychev        : AutoAux, RI-MP2 NMR
   Willem Van den Heuvel  : Paramagnetic NMR
   Boris Wezisla          : Elementary symmetry handling
   Frank Wennmohs         : Technical directorship


 We gratefully acknowledge several colleagues who have allowed us to
 interface, adapt or use parts of their codes:
   Stefan Grimme, W. Hujo, H. Kruse,             : VdW corrections, initial TS optimization,
                  C. Bannwarth                     DFT functionals, gCP, sTDA/sTD-DF
   Ed Valeev                                     : LibInt (2-el integral package), F12 methods
   Garnet Chan, S. Sharma, J. Yang, R. Olivares  : DMRG
   Ulf Ekstrom                                   : XCFun DFT Library
   Mihaly Kallay                                 : mrcc  (arbitrary order and MRCC methods)
   Andreas Klamt, Michael Diedenhofen            : otool_cosmo (COSMO solvation model)
   Jiri Pittner, Ondrej Demel                    : Mk-CCSD
   Frank Weinhold                                : gennbo (NPA and NBO analysis)
   Christopher J. Cramer and Donald G. Truhlar   : smd solvation model
   Lars Goerigk                                  : TD-DFT with DH, B97 family of functionals
   V. Asgeirsson, H. Jonsson                     : NEB implementation
   FAccTs GmbH                                   : IRC, NEB, NEB-TS, Multilevel


 Your calculation uses the libint2 library for the computation of 2-el integrals
 For citations please refer to: http://libint.valeyev.net

 This ORCA versions uses:
   CBLAS   interface :  Fast vector & matrix operations
   LAPACKE interface :  Fast linear algebra routines
   SCALAPACK package :  Parallel linear algebra routines


Your calculation utilizes the atom-pairwise dispersion correction
with the zero-damping scheme (D30)
Cite in your paper:
S.Grimme, J.Antony, S.Ehrlich and H.Krieg, J.Chem.Phys., 132, (2010), 154104 
   

XCFun DFT library Copyright 2009-2010 Ulf Ekstrom and contributors.
See http://admol.org/xcfun for more information. This is free soft-
ware; see the source code for copying conditions. There is ABSOLUTELY
NO WARRANTY; not even for MERCHANTABILITY or FITNESS FOR A PARTICULAR
PURPOSE. For details see the documentation. Scientific users of this 
library should cite U. Ekstrom, L. Visscher, R. Bast, A. J. Thorvald-
sen and K. Ruud; J.Chem.Theor.Comp. 2010, DOI: 10.1021/ct100117s
XCFun Version 0.99 
----- Orbital basis set information -----
Your calculation utilizes the basis: def2-TZVP
   F. Weigend and R. Ahlrichs, Phys. Chem. Chem. Phys. 7, 3297 (2005).

================================================================================
                                        WARNINGS
                       Please study these warnings very carefully!
================================================================================


INFO   : the flag for use of LIBINT has been found!

Your calculation utilizes the atom-pairwise dispersion correction
with the zero-damping scheme (D30)
Cite in your paper:
S.Grimme, J.Antony, S.Ehrlich and H.Krieg, J.Chem.Phys., 132, (2010), 154104 
   

XCFun DFT library Copyright 2009-2010 Ulf Ekstrom and contributors.
See http://admol.org/xcfun for more information. This is free soft-
ware; see the source code for copying conditions. There is ABSOLUTELY
NO WARRANTY; not even for MERCHANTABILITY or FITNESS FOR A PARTICULAR
PURPOSE. For details see the documentation. Scientific users of this 
library should cite U. Ekstrom, L. Visscher, R. Bast, A. J. Thorvald-
sen and K. Ruud; J.Chem.Theor.Comp. 2010, DOI: 10.1021/ct100117s
XCFun Version 0.99 
----- Orbital basis set information -----
Your calculation utilizes the basis: def2-TZVP
   F. Weigend and R. Ahlrichs, Phys. Chem. Chem. Phys. 7, 3297 (2005).

================================================================================
                                        WARNINGS
                       Please study these warnings very carefully!
================================================================================


WARNING: MOInp is set but Guess=PModel. MOInp will be ignored!
         To read the initial guess from a file you must also specify
         'MORead' in the simple input or 'Guess MORead' in the %scf block


INFO   : the flag for use of LIBINT has been found!

Your calculation utilizes the atom-pairwise dispersion correction
with the zero-damping scheme (D30)
Cite in your paper:
S.Grimme, J.Antony, S.Ehrlich and H.Krieg, J.Chem.Phys., 132, (2010), 154104 
   

XCFun DFT library Copyright 2009-2010 Ulf Ekstrom and contributors.
See http://admol.org/xcfun for more information. This is free soft-
ware; see the source code for copying conditions. There is ABSOLUTELY
NO WARRANTY; not even for MERCHANTABILITY or FITNESS FOR A PARTICULAR
PURPOSE. For details see the documentation. Scientific users of this 
library should cite U. Ekstrom, L. Visscher, R. Bast, A. J. Thorvald-
sen and K. Ruud; J.Chem.Theor.Comp. 2010, DOI: 10.1021/ct100117s
XCFun Version 0.99 
----- Orbital basis set information -----
Your calculation utilizes the basis: def2-TZVP
   F. Weigend and R. Ahlrichs, Phys. Chem. Chem. Phys. 7, 3297 (2005).

================================================================================
                                        WARNINGS
                       Please study these warnings very carefully!
================================================================================


WARNING: MOInp is set but Guess=PModel. MOInp will be ignored!
         To read the initial guess from a file you must also specify
         'MORead' in the simple input or 'Guess MORead' in the %scf block


INFO   : the flag for use of LIBINT has been found!

================================================================================
                                       INPUT FILE
================================================================================
NAME = 12-135.in
|  1> #Run DFT-D3 single point of the dimer
|  2> ! wB97X-D3 def2-TZVP TIGHTSCF CHELPG PMODEL PAL8
|  3> 
|  4> %base "12-135_DFT_AB"
|  5> 
|  6> %scf
|  7> MaxIter 1000
|  8> end
|  9> 
| 10> * xyz 0 1
| 11>   C                      3.937609             6.089715             5.121929            
| 12>   O                      4.894966             6.938586             4.500561            
| 13>   H                      5.624434             6.969971             5.126123            
| 14>   H                      3.038266             5.905496             4.475867            
| 15>   H                      4.311928             5.107801             5.271609            
| 16>   H                      3.625862             6.468092             6.095905            
| 17>   C                      2.788778             7.113822             10.181854           
| 18>   O                      3.801655             6.976364             9.220775            
| 19>   H                      4.465584             6.400968             9.529224            
| 20>   H                      2.109126             6.241315             10.280435           
| 21>   H                      3.263922             7.233564             11.141851           
| 22>   H                      2.128043             7.959936             9.959660            
| 23> *
| 24> 
| 25> #Run DFT-D3 single point of the molecule with dimer basis set
| 26> $new_job
| 27> %base "12-135_DFT_A"
| 28> ! wB97X-D3 def2-TZVP TIGHTSCF CHELPG PMODEL
| 29> 
| 30> %scf
| 31> MaxIter 1000
| 32> end
| 33> 
| 34> * xyz 0 1
| 35>   C                      3.937609             6.089715             5.121929            
| 36>   O                      4.894966             6.938586             4.500561            
| 37>   H                      5.624434             6.969971             5.126123            
| 38>   H                      3.038266             5.905496             4.475867            
| 39>   H                      4.311928             5.107801             5.271609            
| 40>   H                      3.625862             6.468092             6.095905            
| 41>   C                    : 2.788778             7.113822             10.181854           
| 42>   O                    : 3.801655             6.976364             9.220775            
| 43>   H                    : 4.465584             6.400968             9.529224            
| 44>   H                    : 2.109126             6.241315             10.280435           
| 45>   H                    : 3.263922             7.233564             11.141851           
| 46>   H                    : 2.128043             7.959936             9.959660            
| 47> *
| 48> 
| 49> #Run DFT-D3 single point of the particle with dimer basis set
| 50> $new_job
| 51> %base "12-135_DFT_B"
| 52> ! wB97X-D3 def2-TZVP TIGHTSCF CHELPG PMODEL
| 53> 
| 54> %scf
| 55> MaxIter 1000
| 56> end
| 57> 
| 58> * xyz 0 1
| 59>   C                    : 3.937609             6.089715             5.121929            
| 60>   O                    : 4.894966             6.938586             4.500561            
| 61>   H                    : 5.624434             6.969971             5.126123            
| 62>   H                    : 3.038266             5.905496             4.475867            
| 63>   H                    : 4.311928             5.107801             5.271609            
| 64>   H                    : 3.625862             6.468092             6.095905            
| 65>   C                      2.788778             7.113822             10.181854           
| 66>   O                      3.801655             6.976364             9.220775            
| 67>   H                      4.465584             6.400968             9.529224            
| 68>   H                      2.109126             6.241315             10.280435           
| 69>   H                      3.263922             7.233564             11.141851           
| 70>   H                      2.128043             7.959936             9.959660            
| 71> *
| 72> 
| 73>                          ****END OF INPUT****
================================================================================


                 $$$$$$$$$$$$$$$$$$$$$$$$$$$$$$$$$$$$$$$$$$$$$$ 
                 $ THERE ARE  3 JOBS TO BE PROCESSED THIS RUN $
                 $$$$$$$$$$$$$$$$$$$$$$$$$$$$$$$$$$$$$$$$$$$$$$ 




                 $$$$$$$$$$$$$$$$  JOB NUMBER  1 $$$$$$$$$$$$$$


                       ****************************
                       * Single Point Calculation *
                       ****************************

---------------------------------
CARTESIAN COORDINATES (ANGSTROEM)
---------------------------------
  C      3.937609    6.089715    5.121929
  O      4.894966    6.938586    4.500561
  H      5.624434    6.969971    5.126123
  H      3.038266    5.905496    4.475867
  H      4.311928    5.107801    5.271609
  H      3.625862    6.468092    6.095905
  C      2.788778    7.113822   10.181854
  O      3.801655    6.976364    9.220775
  H      4.465584    6.400968    9.529224
  H      2.109126    6.241315   10.280435
  H      3.263922    7.233564   11.141851
  H      2.128043    7.959936    9.959660

----------------------------
CARTESIAN COORDINATES (A.U.)
----------------------------
  NO LB      ZA    FRAG     MASS         X           Y           Z
   0 C     6.0000    0    12.011    7.441003   11.507894    9.679043
   1 O     8.0000    0    15.999    9.250145   13.112027    8.504828
   2 H     1.0000    0     1.008   10.628640   13.171336    9.686969
   3 H     1.0000    0     1.008    5.741491   11.159770    8.458163
   4 H     1.0000    0     1.008    8.148363    9.652345    9.961897
   5 H     1.0000    0     1.008    6.851886   12.222922   11.519591
   6 C     6.0000    0    12.011    5.270027   13.443175   19.240916
   7 O     8.0000    0    15.999    7.184087   13.183417   17.424739
   8 H     1.0000    0     1.008    8.438731   12.096077   18.007624
   9 H     1.0000    0     1.008    3.985671   11.794376   19.427207
  10 H     1.0000    0     1.008    6.167919   13.669455   21.055047
  11 H     1.0000    0     1.008    4.021418   15.042099   18.821030

--------------------------------
INTERNAL COORDINATES (ANGSTROEM)
--------------------------------
 C      0   0   0     0.000000000000     0.00000000     0.00000000
 O      1   0   0     1.422396777103     0.00000000     0.00000000
 H      2   1   0     0.961476155239   104.23528303     0.00000000
 H      1   2   3     1.122564287448   112.68987849   183.31390662
 H      1   2   3     1.061448971716   112.10588886   298.00278538
 H      1   2   3     1.090405701890   112.05764469    58.60973510
 C      6   1   2     4.220504245532   167.04394665   241.50806249
 O      7   6   1     1.403027926712    34.78099546    66.09457452
 H      8   7   6     0.931140730211   110.38816606   226.08448427
 H      7   6   1     1.110366389852    94.99853121   297.54343521
 H      7   6   1     1.077819190453   142.35885482    62.32433553
 H      7   6   1     1.096289110982    92.37303540   192.45149389

---------------------------
INTERNAL COORDINATES (A.U.)
---------------------------
 C      0   0   0     0.000000000000     0.00000000     0.00000000
 O      1   0   0     2.687940362498     0.00000000     0.00000000
 H      2   1   0     1.816926617697   104.23528303     0.00000000
 H      1   2   3     2.121339070997   112.68987849   183.31390662
 H      1   2   3     2.005847861676   112.10588886   298.00278538
 H      1   2   3     2.060568151438   112.05764469    58.60973510
 C      6   1   2     7.975597171108   167.04394665   241.50806249
 O      7   6   1     2.651338539729    34.78099546    66.09457452
 H      8   7   6     1.759600972238   110.38816606   226.08448427
 H      7   6   1     2.098288385132    94.99853121   297.54343521
 H      7   6   1     2.036783091841   142.35885482    62.32433553
 H      7   6   1     2.071686183355    92.37303540   192.45149389

---------------------
BASIS SET INFORMATION
---------------------
There are 3 groups of distinct atoms

 Group   1 Type C   : 11s6p2d1f contracted to 5s3p2d1f pattern {62111/411/11/1}
 Group   2 Type O   : 11s6p2d1f contracted to 5s3p2d1f pattern {62111/411/11/1}
 Group   3 Type H   : 5s1p contracted to 3s1p pattern {311/1}

Atom   0C    basis set group =>   1
Atom   1O    basis set group =>   2
Atom   2H    basis set group =>   3
Atom   3H    basis set group =>   3
Atom   4H    basis set group =>   3
Atom   5H    basis set group =>   3
Atom   6C    basis set group =>   1
Atom   7O    basis set group =>   2
Atom   8H    basis set group =>   3
Atom   9H    basis set group =>   3
Atom  10H    basis set group =>   3
Atom  11H    basis set group =>   3


           ************************************************************
           *        Program running with 8 parallel MPI-processes     *
           *              working on a common directory               *
           ************************************************************
------------------------------------------------------------------------------
                           ORCA GTO INTEGRAL CALCULATION
------------------------------------------------------------------------------

                         BASIS SET STATISTICS AND STARTUP INFO

 # of primitive gaussian shells          ...  128
 # of primitive gaussian functions       ...  248
 # of contracted shells                  ...   76
 # of contracted basis functions         ...  172
 Highest angular momentum                ...    3
 Maximum contraction depth               ...    6
 Integral package used                   ... LIBINT
 Integral threshhold            Thresh   ...  2.500e-11
 Primitive cut-off              TCut     ...  2.500e-12


------------------------------ INTEGRAL EVALUATION ----------------------------


 * One electron integrals 
 Pre-screening matrix                    ... done
 Shell pair data                         ... done (   0.001 sec)



           ************************************************************
           *        Program running with 8 parallel MPI-processes     *
           *              working on a common directory               *
           ************************************************************
-------------------------------------------------------------------------------
                                 ORCA SCF
-------------------------------------------------------------------------------

------------
SCF SETTINGS
------------
Hamiltonian:
 Density Functional     Method          .... DFT(GTOs)
 Exchange Functional    Exchange        .... WB97X-D3
 Correlation Functional Correlation     .... WB97X-D3
 Gradients option       PostSCFGGA      .... off
 Hybrid DFT is turned on
   Fraction HF Exchange ScalHFX         ....  0.195728
   Scaling of DF-GGA-X  ScalDFX         ....  0.000000
   Scaling of DF-GGA-C  ScalDFC         ....  1.000000
   Scaling of DF-LDA-C  ScalLDAC        ....  1.000000
   Perturbative correction              ....  0.000000
   Density functional embedding theory  .... OFF
 Long-range corrected/Screened/Range-Separated Hybrid DFT is turned on
   Amount of maximum screened exact exchange              ....  0.804272
   Range separation parameter mu (erf(mu*r12)/r12)        ....  0.250000


General Settings:
 Integral files         IntName         .... 12-135_DFT_AB
 Hartree-Fock type      HFTyp           .... RHF
 Total Charge           Charge          ....    0
 Multiplicity           Mult            ....    1
 Number of Electrons    NEL             ....   36
 Basis Dimension        Dim             ....  172
 Nuclear Repulsion      ENuc            ....    115.0853167027 Eh

Convergence Acceleration:
 DIIS                   CNVDIIS         .... on
   Start iteration      DIISMaxIt       ....    12
   Startup error        DIISStart       ....  0.200000
   # of expansion vecs  DIISMaxEq       ....     5
   Bias factor          DIISBfac        ....   1.050
   Max. coefficient     DIISMaxC        ....  10.000
 Newton-Raphson         CNVNR           .... off
 SOSCF                  CNVSOSCF        .... on
   Start iteration      SOSCFMaxIt      ....   150
   Startup grad/error   SOSCFStart      ....  0.003300
 Level Shifting         CNVShift        .... on
   Level shift para.    LevelShift      ....    0.2500
   Turn off err/grad.   ShiftErr        ....    0.0010
 Zerner damping         CNVZerner       .... off
 Static damping         CNVDamp         .... on
   Fraction old density DampFac         ....    0.7000
   Max. Damping (<1)    DampMax         ....    0.9800
   Min. Damping (>=0)   DampMin         ....    0.0000
   Turn off err/grad.   DampErr         ....    0.1000
 Fernandez-Rico         CNVRico         .... off

SCF Procedure:
 Maximum # iterations   MaxIter         ....  1000
 SCF integral mode      SCFMode         .... Direct
   Integral package                     .... LIBINT
 Reset frequency        DirectResetFreq ....    20
 Integral Threshold     Thresh          ....  2.500e-11 Eh
 Primitive CutOff       TCut            ....  2.500e-12 Eh

Convergence Tolerance:
 Convergence Check Mode ConvCheckMode   .... Total+1el-Energy
 Convergence forced     ConvForced      .... 0
 Energy Change          TolE            ....  1.000e-08 Eh
 1-El. energy change                    ....  1.000e-05 Eh
 Orbital Gradient       TolG            ....  1.000e-05
 Orbital Rotation angle TolX            ....  1.000e-05
 DIIS Error             TolErr          ....  5.000e-07


Diagonalization of the overlap matrix:
Smallest eigenvalue                        ... 1.334e-03
Time for diagonalization                   ...    0.004 sec
Threshold for overlap eigenvalues          ... 1.000e-08
Number of eigenvalues below threshold      ... 0
Time for construction of square roots      ...    0.005 sec
Total time needed                          ...    0.010 sec

-------------------
DFT GRID GENERATION
-------------------

General Integration Accuracy     IntAcc      ...  4.340
Radial Grid Type                 RadialGrid  ... Gauss-Chebyshev
Angular Grid (max. acc.)         AngularGrid ... Lebedev-110
Angular grid pruning method      GridPruning ... 3 (G Style)
Weight generation scheme         WeightScheme... Becke
Basis function cutoff            BFCut       ...    1.0000e-11
Integration weight cutoff        WCut        ...    1.0000e-14
Grids for H and He will be reduced by one unit

# of grid points (after initial pruning)     ...  13096 (   0.0 sec)
# of grid points (after weights+screening)   ...  12577 (   0.0 sec)
nearest neighbour list constructed           ...    0.0 sec
Grid point re-assignment to atoms done       ...    0.0 sec
Grid point division into batches done        ...    0.0 sec
Reduced shell lists constructed in    0.0 sec

Total number of grid points                  ...    12577
Total number of batches                      ...      202
Average number of points per batch           ...       62
Average number of grid points per atom       ...     1048
Average number of shells per batch           ...    43.52 (57.26%)
Average number of basis functions per batch  ...    94.85 (55.15%)
Average number of large shells per batch     ...    35.22 (80.94%)
Average number of large basis fcns per batch ...    79.59 (83.91%)
Maximum spatial batch extension              ...  13.37, 15.38, 16.72 au
Average spatial batch extension              ...   0.39,  0.44,  0.46 au

Time for grid setup =    0.042 sec

------------------------------
INITIAL GUESS: MODEL POTENTIAL
------------------------------
Loading Hartree-Fock densities                     ... done
Calculating cut-offs                               ... done
Setting up the integral package                    ... done
Initializing the effective Hamiltonian             ... done
Starting the Coulomb interaction                   ... done (   0.0 sec)
Reading the grid                                   ... done
Mapping shells                                     ... done
Starting the XC term evaluation                    ... done (   0.0 sec)
  promolecular density results
     # of electrons  =     35.994506683
     EX              =    -28.867492845
     EC              =     -1.151334219
     EX+EC           =    -30.018827064
Transforming the Hamiltonian                       ... done (   0.0 sec)
Diagonalizing the Hamiltonian                      ... done (   0.0 sec)
Back transforming the eigenvectors                 ... done (   0.0 sec)
Now organizing SCF variables                       ... done
                      ------------------
                      INITIAL GUESS DONE (   0.1 sec)
                      ------------------
--------------
SCF ITERATIONS
--------------
ITER       Energy         Delta-E        Max-DP      RMS-DP      [F,P]     Damp
               ***  Starting incremental Fock matrix formation  ***
  0   -231.2971829589   0.000000000000 0.03765903  0.00105432  0.2515623 0.7000
  1   -231.3705245189  -0.073341560001 0.02222397  0.00074962  0.1259989 0.7000
                               ***Turning on DIIS***
  2   -231.4044272017  -0.033902682812 0.03132876  0.00136117  0.0488631 0.0000
  3   -231.4596208906  -0.055193688876 0.01784997  0.00049026  0.0617770 0.0000
  4   -231.4685444520  -0.008923561428 0.00409335  0.00009437  0.0060343 0.0000
                      *** Initiating the SOSCF procedure ***
                           *** Shutting down DIIS ***
                      *** Re-Reading the Fockian *** 
                      *** Removing any level shift *** 
ITER      Energy       Delta-E        Grad      Rot      Max-DP    RMS-DP
  5   -231.46872275  -0.0001783001  0.000462  0.000462  0.000753  0.000032
               *** Restarting incremental Fock matrix formation ***
  6   -231.46873891  -0.0000161610  0.000140  0.000194  0.000493  0.000020
  7   -231.46874039  -0.0000014774  0.000057  0.000117  0.000227  0.000009
  8   -231.46874050  -0.0000001096  0.000047  0.000030  0.000057  0.000001
  9   -231.46874053  -0.0000000295  0.000015  0.000008  0.000020  0.000001
 10   -231.46874053  -0.0000000030  0.000003  0.000003  0.000005  0.000000
                  ***Gradient check signals convergence***
              ***Rediagonalizing the Fockian in SOSCF/NRSCF***

               *****************************************************
               *                     SUCCESS                       *
               *           SCF CONVERGED AFTER  11 CYCLES          *
               *****************************************************

Setting up the final grid:

General Integration Accuracy     IntAcc      ...  4.670
Radial Grid Type                 RadialGrid  ... Gauss-Chebyshev
Angular Grid (max. acc.)         AngularGrid ... Lebedev-302
Angular grid pruning method      GridPruning ... 3 (G Style)
Weight generation scheme         WeightScheme... Becke
Basis function cutoff            BFCut       ...    1.0000e-11
Integration weight cutoff        WCut        ...    1.0000e-14
Grids for H and He will be reduced by one unit

# of grid points (after initial pruning)     ...  52000 (   0.0 sec)
# of grid points (after weights+screening)   ...  49560 (   0.0 sec)
nearest neighbour list constructed           ...    0.0 sec
Grid point re-assignment to atoms done       ...    0.0 sec
Grid point division into batches done        ...    0.2 sec
Reduced shell lists constructed in    0.2 sec

Total number of grid points                  ...    49560
Total number of batches                      ...      781
Average number of points per batch           ...       63
Average number of grid points per atom       ...     4130
Average number of shells per batch           ...    41.70 (54.86%)
Average number of basis functions per batch  ...    90.69 (52.72%)
Average number of large shells per batch     ...    33.46 (80.26%)
Average number of large basis fcns per batch ...    76.27 (84.11%)
Maximum spatial batch extension              ...  15.06, 14.94, 15.27 au
Average spatial batch extension              ...   0.28,  0.27,  0.27 au

Final grid set up in    0.2 sec
Final integration                            ... done (   0.1 sec)
Change in XC energy                          ...     0.000010492
Integrated number of electrons               ...    36.000006158
Previous integrated no of electrons          ...    35.997476938

----------------
TOTAL SCF ENERGY
----------------

Total Energy       :         -231.46873004 Eh           -6298.58436 eV

Components:
Nuclear Repulsion  :          115.08531670 Eh            3131.63068 eV
Electronic Energy  :         -346.55404674 Eh           -9430.21503 eV
One Electron Energy:         -543.00733034 Eh          -14775.98065 eV
Two Electron Energy:          196.45328360 Eh            5345.76562 eV

Virial components:
Potential Energy   :         -462.02143869 Eh          -12572.24251 eV
Kinetic Energy     :          230.55270865 Eh            6273.65815 eV
Virial Ratio       :            2.00397315


DFT components:
N(Alpha)           :       18.000003078980 electrons
N(Beta)            :       18.000003078980 electrons
N(Total)           :       36.000006157960 electrons
E(XC)              :      -21.320274295211 Eh       
DFET-embed. en.    :        0.000000000000 Eh       

---------------
SCF CONVERGENCE
---------------

  Last Energy change         ...   -4.5972e-10  Tolerance :   1.0000e-08
  Last MAX-Density change    ...    1.9397e-06  Tolerance :   1.0000e-07
  Last RMS-Density change    ...    6.7949e-08  Tolerance :   5.0000e-09
  Last Orbital Gradient      ...    8.7021e-07  Tolerance :   1.0000e-05
  Last Orbital Rotation      ...    7.8704e-07  Tolerance :   1.0000e-05

             **** THE GBW FILE WAS UPDATED (12-135_DFT_AB.gbw) ****
             **** DENSITY FILE WAS UPDATED (12-135_DFT_AB.scfp.tmp) ****
             **** ENERGY FILE WAS UPDATED (12-135_DFT_AB.en.tmp) ****
----------------
ORBITAL ENERGIES
----------------

  NO   OCC          E(Eh)            E(eV) 
   0   2.0000     -19.234116      -523.3869 
   1   2.0000     -19.223593      -523.1006 
   2   2.0000     -10.317960      -280.7660 
   3   2.0000     -10.302425      -280.3432 
   4   2.0000      -1.151056       -31.3218 
   5   2.0000      -1.127377       -30.6775 
   6   2.0000      -0.804407       -21.8890 
   7   2.0000      -0.786015       -21.3885 
   8   2.0000      -0.624741       -17.0001 
   9   2.0000      -0.600794       -16.3484 
  10   2.0000      -0.549435       -14.9509 
  11   2.0000      -0.535300       -14.5662 
  12   2.0000      -0.533836       -14.5264 
  13   2.0000      -0.514088       -13.9891 
  14   2.0000      -0.439139       -11.9496 
  15   2.0000      -0.427585       -11.6352 
  16   2.0000      -0.378732       -10.3058 
  17   2.0000      -0.365978        -9.9588 
  18   0.0000       0.105227         2.8634 
  19   0.0000       0.129146         3.5142 
  20   0.0000       0.152141         4.1400 
  21   0.0000       0.164218         4.4686 
  22   0.0000       0.196272         5.3408 
  23   0.0000       0.201627         5.4866 
  24   0.0000       0.209481         5.7003 
  25   0.0000       0.215312         5.8589 
  26   0.0000       0.230969         6.2850 
  27   0.0000       0.244274         6.6470 
  28   0.0000       0.299872         8.1599 
  29   0.0000       0.313026         8.5179 
  30   0.0000       0.317707         8.6452 
  31   0.0000       0.328053         8.9268 
  32   0.0000       0.399303        10.8656 
  33   0.0000       0.412897        11.2355 
  34   0.0000       0.447572        12.1791 
  35   0.0000       0.461279        12.5521 
  36   0.0000       0.485092        13.2000 
  37   0.0000       0.495404        13.4806 
  38   0.0000       0.527510        14.3543 
  39   0.0000       0.542567        14.7640 
  40   0.0000       0.551764        15.0143 
  41   0.0000       0.560432        15.2501 
  42   0.0000       0.578828        15.7507 
  43   0.0000       0.591549        16.0969 
  44   0.0000       0.605533        16.4774 
  45   0.0000       0.617669        16.8076 
  46   0.0000       0.628215        17.0946 
  47   0.0000       0.668304        18.1855 
  48   0.0000       0.674821        18.3628 
  49   0.0000       0.686864        18.6905 
  50   0.0000       0.783684        21.3251 
  51   0.0000       0.796651        21.6780 
  52   0.0000       0.821575        22.3562 
  53   0.0000       0.840114        22.8607 
  54   0.0000       0.861445        23.4411 
  55   0.0000       0.877418        23.8758 
  56   0.0000       0.983193        26.7541 
  57   0.0000       1.003843        27.3160 
  58   0.0000       1.017898        27.6984 
  59   0.0000       1.034594        28.1527 
  60   0.0000       1.107056        30.1245 
  61   0.0000       1.117340        30.4044 
  62   0.0000       1.380732        37.5716 
  63   0.0000       1.400163        38.1004 
  64   0.0000       1.498893        40.7870 
  65   0.0000       1.511712        41.1358 
  66   0.0000       1.549044        42.1516 
  67   0.0000       1.572513        42.7902 
  68   0.0000       1.591289        43.3012 
  69   0.0000       1.598843        43.5067 
  70   0.0000       1.610236        43.8168 
  71   0.0000       1.629063        44.3291 
  72   0.0000       1.646968        44.8163 
  73   0.0000       1.656911        45.0868 
  74   0.0000       1.677436        45.6453 
  75   0.0000       1.679278        45.6955 
  76   0.0000       1.696899        46.1750 
  77   0.0000       1.704623        46.3851 
  78   0.0000       1.766711        48.0747 
  79   0.0000       1.816574        49.4315 
  80   0.0000       1.963126        53.4194 
  81   0.0000       1.982873        53.9567 
  82   0.0000       2.001545        54.4648 
  83   0.0000       2.028297        55.1928 
  84   0.0000       2.047503        55.7154 
  85   0.0000       2.064637        56.1816 
  86   0.0000       2.102792        57.2199 
  87   0.0000       2.107911        57.3592 
  88   0.0000       2.125980        57.8509 
  89   0.0000       2.126674        57.8697 
  90   0.0000       2.262372        61.5623 
  91   0.0000       2.276360        61.9429 
  92   0.0000       2.307998        62.8038 
  93   0.0000       2.330434        63.4143 
  94   0.0000       2.344862        63.8070 
  95   0.0000       2.373195        64.5779 
  96   0.0000       2.403743        65.4092 
  97   0.0000       2.419696        65.8433 
  98   0.0000       2.446460        66.5716 
  99   0.0000       2.475475        67.3611 
 100   0.0000       2.507026        68.2196 
 101   0.0000       2.521472        68.6127 
 102   0.0000       2.584726        70.3340 
 103   0.0000       2.613612        71.1200 
 104   0.0000       2.642973        71.9189 
 105   0.0000       2.671179        72.6865 
 106   0.0000       2.719692        74.0066 
 107   0.0000       2.741644        74.6039 
 108   0.0000       2.825422        76.8836 
 109   0.0000       2.859784        77.8187 
 110   0.0000       2.862288        77.8868 
 111   0.0000       2.880046        78.3700 
 112   0.0000       2.902562        78.9827 
 113   0.0000       2.931316        79.7652 
 114   0.0000       2.981431        81.1289 
 115   0.0000       2.988757        81.3282 
 116   0.0000       3.093386        84.1753 
 117   0.0000       3.108346        84.5824 
 118   0.0000       3.157586        85.9223 
 119   0.0000       3.175208        86.4018 
 120   0.0000       3.265551        88.8602 
 121   0.0000       3.270815        89.0034 
 122   0.0000       3.380901        91.9990 
 123   0.0000       3.381550        92.0167 
 124   0.0000       3.452099        93.9364 
 125   0.0000       3.467892        94.3661 
 126   0.0000       3.502246        95.3010 
 127   0.0000       3.520489        95.7974 
 128   0.0000       3.597158        97.8836 
 129   0.0000       3.611740        98.2804 
 130   0.0000       3.653838        99.4260 
 131   0.0000       3.660591        99.6098 
 132   0.0000       3.661963        99.6471 
 133   0.0000       3.698301       100.6359 
 134   0.0000       4.015232       109.2600 
 135   0.0000       4.039797       109.9285 
 136   0.0000       4.214782       114.6900 
 137   0.0000       4.235557       115.2554 
 138   0.0000       4.295452       116.8852 
 139   0.0000       4.328609       117.7874 
 140   0.0000       4.414253       120.1179 
 141   0.0000       4.454829       121.2221 
 142   0.0000       4.564805       124.2147 
 143   0.0000       4.569014       124.3292 
 144   0.0000       5.344305       145.4259 
 145   0.0000       5.367181       146.0484 
 146   0.0000       5.416672       147.3951 
 147   0.0000       5.464309       148.6914 
 148   0.0000       5.543343       150.8420 
 149   0.0000       5.580465       151.8522 
 150   0.0000       5.777894       157.2245 
 151   0.0000       5.820904       158.3949 
 152   0.0000       5.833784       158.7453 
 153   0.0000       5.850956       159.2126 
 154   0.0000       5.992492       163.0640 
 155   0.0000       6.006560       163.4468 
 156   0.0000       6.349820       172.7874 
 157   0.0000       6.444091       175.3526 
 158   0.0000       6.527325       177.6176 
 159   0.0000       6.539282       177.9429 
 160   0.0000       6.756882       183.8641 
 161   0.0000       6.767339       184.1487 
 162   0.0000       6.804032       185.1471 
 163   0.0000       6.807248       185.2346 
 164   0.0000       7.027643       191.2319 
 165   0.0000       7.044014       191.6774 
 166   0.0000       7.210124       196.1975 
 167   0.0000       7.242621       197.0817 
 168   0.0000      22.409011       609.7802 
 169   0.0000      22.425360       610.2251 
 170   0.0000      43.649084      1187.7520 
 171   0.0000      43.660699      1188.0680 

                    ********************************
                    * MULLIKEN POPULATION ANALYSIS *
                    ********************************

-----------------------
MULLIKEN ATOMIC CHARGES
-----------------------
   0 C :   -0.178320
   1 O :   -0.471897
   2 H :    0.312898
   3 H :    0.110492
   4 H :    0.096832
   5 H :    0.124498
   6 C :   -0.157932
   7 O :   -0.472297
   8 H :    0.311618
   9 H :    0.096740
  10 H :    0.102879
  11 H :    0.124490
Sum of atomic charges:    0.0000000

--------------------------------
MULLIKEN REDUCED ORBITAL CHARGES
--------------------------------
  0 C s       :     3.225106  s :     3.225106
      pz      :     1.006393  p :     2.852138
      px      :     0.922127
      py      :     0.923617
      dz2     :     0.016921  d :     0.093862
      dxz     :     0.021082
      dyz     :     0.012027
      dx2y2   :     0.031463
      dxy     :     0.012369
      f0      :     0.000394  f :     0.007215
      f+1     :     0.001111
      f-1     :     0.000868
      f+2     :     0.001035
      f-2     :     0.001285
      f+3     :     0.001631
      f-3     :     0.000890
  1 O s       :     3.802227  s :     3.802227
      pz      :     1.581739  p :     4.637482
      px      :     1.341341
      py      :     1.714402
      dz2     :     0.003841  d :     0.030589
      dxz     :     0.012368
      dyz     :     0.005427
      dx2y2   :     0.004737
      dxy     :     0.004216
      f0      :     0.000087  f :     0.001600
      f+1     :     0.000250
      f-1     :     0.000079
      f+2     :     0.000414
      f-2     :     0.000228
      f+3     :     0.000247
      f-3     :     0.000296
  2 H s       :     0.639965  s :     0.639965
      pz      :     0.015481  p :     0.047137
      px      :     0.016522
      py      :     0.015134
  3 H s       :     0.870187  s :     0.870187
      pz      :     0.006068  p :     0.019321
      px      :     0.009259
      py      :     0.003993
  4 H s       :     0.882492  s :     0.882492
      pz      :     0.004736  p :     0.020677
      px      :     0.004544
      py      :     0.011396
  5 H s       :     0.855465  s :     0.855465
      pz      :     0.011310  p :     0.020037
      px      :     0.004244
      py      :     0.004483
  6 C s       :     3.222187  s :     3.222187
      pz      :     0.869930  p :     2.830273
      px      :     0.885457
      py      :     1.074886
      dz2     :     0.030139  d :     0.097705
      dxz     :     0.014161
      dyz     :     0.011678
      dx2y2   :     0.011554
      dxy     :     0.030173
      f0      :     0.000906  f :     0.007768
      f+1     :     0.002351
      f-1     :     0.000290
      f+2     :     0.000973
      f-2     :     0.001679
      f+3     :     0.000975
      f-3     :     0.000595
  7 O s       :     3.782349  s :     3.782349
      pz      :     1.596097  p :     4.658254
      px      :     1.368851
      py      :     1.693306
      dz2     :     0.006414  d :     0.029919
      dxz     :     0.009781
      dyz     :     0.004852
      dx2y2   :     0.002202
      dxy     :     0.006670
      f0      :     0.000217  f :     0.001774
      f+1     :     0.000219
      f-1     :     0.000035
      f+2     :     0.000243
      f-2     :     0.000387
      f+3     :     0.000249
      f-3     :     0.000424
  8 H s       :     0.636965  s :     0.636965
      pz      :     0.014047  p :     0.051417
      px      :     0.017978
      py      :     0.019392
  9 H s       :     0.883955  s :     0.883955
      pz      :     0.003328  p :     0.019304
      px      :     0.007090
      py      :     0.008886
 10 H s       :     0.877250  s :     0.877250
      pz      :     0.010520  p :     0.019871
      px      :     0.004902
      py      :     0.004449
 11 H s       :     0.855625  s :     0.855625
      pz      :     0.003321  p :     0.019885
      px      :     0.007120
      py      :     0.009444


                     *******************************
                     * LOEWDIN POPULATION ANALYSIS *
                     *******************************

----------------------
LOEWDIN ATOMIC CHARGES
----------------------
   0 C :   -0.385759
   1 O :   -0.084725
   2 H :    0.170888
   3 H :    0.113056
   4 H :    0.084887
   5 H :    0.097261
   6 C :   -0.388932
   7 O :   -0.055968
   8 H :    0.150353
   9 H :    0.095287
  10 H :    0.093286
  11 H :    0.110365

-------------------------------
LOEWDIN REDUCED ORBITAL CHARGES
-------------------------------
  0 C s       :     2.860135  s :     2.860135
      pz      :     1.060754  p :     3.063652
      px      :     0.992340
      py      :     1.010558
      dz2     :     0.068411  d :     0.407352
      dxz     :     0.099067
      dyz     :     0.055719
      dx2y2   :     0.114444
      dxy     :     0.069711
      f0      :     0.004606  f :     0.054619
      f+1     :     0.005995
      f-1     :     0.007588
      f+2     :     0.006990
      f-2     :     0.009386
      f+3     :     0.013039
      f-3     :     0.007016
  1 O s       :     3.380364  s :     3.380364
      pz      :     1.594173  p :     4.630340
      px      :     1.359959
      py      :     1.676208
      dz2     :     0.007138  d :     0.069444
      dxz     :     0.025628
      dyz     :     0.009454
      dx2y2   :     0.015648
      dxy     :     0.011576
      f0      :     0.000278  f :     0.004576
      f+1     :     0.000953
      f-1     :     0.000315
      f+2     :     0.001160
      f-2     :     0.000632
      f+3     :     0.000619
      f-3     :     0.000620
  2 H s       :     0.672080  s :     0.672080
      pz      :     0.060779  p :     0.157032
      px      :     0.055492
      py      :     0.040761
  3 H s       :     0.831845  s :     0.831845
      pz      :     0.018286  p :     0.055099
      px      :     0.025677
      py      :     0.011136
  4 H s       :     0.848901  s :     0.848901
      pz      :     0.015482  p :     0.066212
      px      :     0.015690
      py      :     0.035040
  5 H s       :     0.840490  s :     0.840490
      pz      :     0.033636  p :     0.062249
      px      :     0.014292
      py      :     0.014322
  6 C s       :     2.859315  s :     2.859315
      pz      :     0.973268  p :     3.053833
      px      :     0.971928
      py      :     1.108637
      dz2     :     0.121118  d :     0.417561
      dxz     :     0.096857
      dyz     :     0.039997
      dx2y2   :     0.038912
      dxy     :     0.120678
      f0      :     0.005288  f :     0.058223
      f+1     :     0.015678
      f-1     :     0.004733
      f+2     :     0.011958
      f-2     :     0.009797
      f+3     :     0.006940
      f-3     :     0.003828
  7 O s       :     3.341954  s :     3.341954
      pz      :     1.617088  p :     4.636566
      px      :     1.385335
      py      :     1.634143
      dz2     :     0.016377  d :     0.072630
      dxz     :     0.021139
      dyz     :     0.008819
      dx2y2   :     0.007320
      dxy     :     0.018975
      f0      :     0.000818  f :     0.004818
      f+1     :     0.000832
      f-1     :     0.000146
      f+2     :     0.000661
      f-2     :     0.001231
      f+3     :     0.000401
      f-3     :     0.000729
  8 H s       :     0.678157  s :     0.678157
      pz      :     0.048195  p :     0.171490
      px      :     0.057254
      py      :     0.066041
  9 H s       :     0.846836  s :     0.846836
      pz      :     0.010342  p :     0.057877
      px      :     0.020340
      py      :     0.027196
 10 H s       :     0.843938  s :     0.843938
      pz      :     0.031774  p :     0.062776
      px      :     0.015981
      py      :     0.015021
 11 H s       :     0.830569  s :     0.830569
      pz      :     0.010925  p :     0.059065
      px      :     0.019638
      py      :     0.028503


                      *****************************
                      * MAYER POPULATION ANALYSIS *
                      *****************************

  NA   - Mulliken gross atomic population
  ZA   - Total nuclear charge
  QA   - Mulliken gross atomic charge
  VA   - Mayer's total valence
  BVA  - Mayer's bonded valence
  FA   - Mayer's free valence

  ATOM       NA         ZA         QA         VA         BVA        FA
  0 C      6.1783     6.0000    -0.1783     3.9235     3.9235     0.0000
  1 O      8.4719     8.0000    -0.4719     1.8893     1.8893     0.0000
  2 H      0.6871     1.0000     0.3129     0.9129     0.9129     0.0000
  3 H      0.8895     1.0000     0.1105     0.9615     0.9615     0.0000
  4 H      0.9032     1.0000     0.0968     0.9542     0.9542     0.0000
  5 H      0.8755     1.0000     0.1245     0.9713     0.9713    -0.0000
  6 C      6.1579     6.0000    -0.1579     3.9312     3.9312    -0.0000
  7 O      8.4723     8.0000    -0.4723     1.8941     1.8941    -0.0000
  8 H      0.6884     1.0000     0.3116     0.9167     0.9167    -0.0000
  9 H      0.9033     1.0000     0.0967     0.9533     0.9533    -0.0000
 10 H      0.8971     1.0000     0.1029     0.9646     0.9646    -0.0000
 11 H      0.8755     1.0000     0.1245     0.9595     0.9595     0.0000

  Mayer bond orders larger than 0.1
B(  0-C ,  1-O ) :   0.9940 B(  0-C ,  3-H ) :   0.9723 B(  0-C ,  4-H ) :   0.9776 
B(  0-C ,  5-H ) :   0.9735 B(  1-O ,  2-H ) :   0.9016 B(  6-C ,  7-O ) :   0.9909 
B(  6-C ,  9-H ) :   0.9698 B(  6-C , 10-H ) :   0.9843 B(  6-C , 11-H ) :   0.9740 
B(  7-O ,  8-H ) :   0.9027 

-------
TIMINGS
-------

Total SCF time: 0 days 0 hours 0 min 18 sec 

Total time                  ....      18.971 sec
Sum of individual times     ....      18.424 sec  ( 97.1%)

Fock matrix formation       ....      17.619 sec  ( 92.9%)
  XC integration            ....       8.470 sec  ( 48.1% of F)
    Basis function eval.    ....       0.056 sec  (  0.7% of XC)
    Density eval.           ....       0.165 sec  (  1.9% of XC)
    XC-Functional eval.     ....       0.150 sec  (  1.8% of XC)
    XC-Potential eval.      ....       0.057 sec  (  0.7% of XC)
Diagonalization             ....       0.208 sec  (  1.1%)
Density matrix formation    ....       0.005 sec  (  0.0%)
Population analysis         ....       0.015 sec  (  0.1%)
Initial guess               ....       0.105 sec  (  0.6%)
Orbital Transformation      ....       0.000 sec  (  0.0%)
Orbital Orthonormalization  ....       0.000 sec  (  0.0%)
DIIS solution               ....       0.119 sec  (  0.6%)
SOSCF solution              ....       0.064 sec  (  0.3%)
Grid generation             ....       0.290 sec  (  1.5%)


-------------------------------------------------------------------------------
                          DFT DISPERSION CORRECTION                            
                                                                               
                              DFTD3 V3.1  Rev 1                                
                              USING zero damping                               
-------------------------------------------------------------------------------
The omegaB97X-D3 functional is recognized. Fit by Chai et al.
Active option DFTDOPT                   ...         3   

molecular C6(AA) [au] = 834.818778 


            DFT-D V3
 parameters
 s6 scaling factor         :     1.0000 
 rs6 scaling factor        :     1.2810 
 s8 scaling factor         :     1.0000 
 rs8 scaling factor        :     1.0940 
 Damping factor alpha6     :    14.0000 
 Damping factor alpha8     :    16.0000 
 ad hoc parameters k1-k3   :    16.0000     1.3333    -4.0000 

 Edisp/kcal,au: -0.598277218817  -0.000953415334 
 E6   /kcal   :  -0.282799982 
 E8   /kcal   :  -0.315477237 
 % E8         :  52.730946015 

-------------------------   ----------------
Dispersion correction           -0.000953415
-------------------------   ----------------


-------------------------   --------------------
FINAL SINGLE POINT ENERGY      -231.469683456743
-------------------------   --------------------


                            ***************************************
                            *     ORCA property calculations      *
                            ***************************************

                                    ---------------------
                                    Active property flags
                                    ---------------------
   (+) Dipole Moment


------------------------------------------------------------------------------
                       ORCA ELECTRIC PROPERTIES CALCULATION
------------------------------------------------------------------------------

Dipole Moment Calculation                       ... on
Quadrupole Moment Calculation                   ... off
Polarizability Calculation                      ... off
GBWName                                         ... 12-135_DFT_AB.gbw
Electron density file                           ... 12-135_DFT_AB.scfp.tmp
The origin for moment calculation is the CENTER OF MASS  = ( 7.334427, 12.795502 13.733191)

-------------
DIPOLE MOMENT
-------------
                                X             Y             Z
Electronic contribution:      2.40983       1.14118      -2.19359
Nuclear contribution   :     -2.31523      -1.75972       3.49895
                        -----------------------------------------
Total Dipole Moment    :      0.09459      -0.61854       1.30536
                        -----------------------------------------
Magnitude (a.u.)       :      1.44758
Magnitude (Debye)      :      3.67947



--------------------
Rotational spectrum 
--------------------
 
Rotational constants in cm-1:     0.646040     0.039029     0.037927 
Rotational constants in MHz : 19367.794941  1170.073249  1137.036120 

 Dipole components along the rotational axes: 
x,y,z [a.u.] :     1.178914     0.047896     0.838670 
x,y,z [Debye]:     2.996561     0.121742     2.131731 

 
------------------------------------------------------------------------------
                      ORCA CHELPG CHARGES GENERATION
------------------------------------------------------------------------------

GBW file                           ... 12-135_DFT_AB.gbw

Reading the GBW file               ... done

Grid spacing                       ...     0.300000
Point Cut-Off                      ...     2.800000
Van-der-Waals Radii                ...        COSMO
Total charge                       ...            0


Number of points X direction       ...           30
Number of points Y direction       ...           28
Number of points Z direction       ...           40
Maximum number of possible points  ...        33600
Final number of points             ...        11000


CHELPG Charges            
--------------------------------
  0   C   :       0.175911
  1   O   :      -0.616889
  2   H   :       0.394177
  3   H   :       0.056901
  4   H   :      -0.012432
  5   H   :      -0.012497
  6   C   :       0.052415
  7   O   :      -0.565038
  8   H   :       0.397909
  9   H   :       0.022202
 10   H   :       0.021906
 11   H   :       0.085435
--------------------------------
Total charge:     0.000000
--------------------------------

CHELPG charges calculated...

Timings for individual parts in CHELPG calculation:
Grid generation                 ...        0.002 sec (=   0.000 min)
Potential calculation           ...        2.122 sec (=   0.035 min)
Fit to the potential            ...        0.004 sec (=   0.000 min)
------------------------------------------------------------------------------


Timings for individual modules:

Sum of individual times         ...       29.336 sec (=   0.489 min)
GTO integral calculation        ...        5.833 sec (=   0.097 min)  19.9 %
SCF iterations                  ...       21.341 sec (=   0.356 min)  72.7 %
CHELPG charge generation        ...        2.162 sec (=   0.036 min)   7.4 %


                 $$$$$$$$$$$$$$$$  JOB NUMBER  2 $$$$$$$$$$$$$$


                       ****************************
                       * Single Point Calculation *
                       ****************************

---------------------------------
CARTESIAN COORDINATES (ANGSTROEM)
---------------------------------
  C      3.937609    6.089715    5.121929
  O      4.894966    6.938586    4.500561
  H      5.624434    6.969971    5.126123
  H      3.038266    5.905496    4.475867
  H      4.311928    5.107801    5.271609
  H      3.625862    6.468092    6.095905
  C      2.788778    7.113822   10.181854
  O      3.801655    6.976364    9.220775
  H      4.465584    6.400968    9.529224
  H      2.109126    6.241315   10.280435
  H      3.263922    7.233564   11.141851
  H      2.128043    7.959936    9.959660

----------------------------
CARTESIAN COORDINATES (A.U.)
----------------------------
  NO LB      ZA    FRAG     MASS         X           Y           Z
   0 C     6.0000    0    12.011    7.441003   11.507894    9.679043
   1 O     8.0000    0    15.999    9.250145   13.112027    8.504828
   2 H     1.0000    0     1.008   10.628640   13.171336    9.686969
   3 H     1.0000    0     1.008    5.741491   11.159770    8.458163
   4 H     1.0000    0     1.008    8.148363    9.652345    9.961897
   5 H     1.0000    0     1.008    6.851886   12.222922   11.519591
   6 C     0.0000    0     0.000    5.270027   13.443175   19.240916
   7 O     0.0000    0     0.000    7.184087   13.183417   17.424739
   8 H     0.0000    0     0.000    8.438731   12.096077   18.007624
   9 H     0.0000    0     0.000    3.985671   11.794376   19.427207
  10 H     0.0000    0     0.000    6.167919   13.669455   21.055047
  11 H     0.0000    0     0.000    4.021418   15.042099   18.821030

--------------------------------
INTERNAL COORDINATES (ANGSTROEM)
--------------------------------
 C      0   0   0     0.000000000000     0.00000000     0.00000000
 O      1   0   0     1.422396777103     0.00000000     0.00000000
 H      2   1   0     0.961476155239   104.23528303     0.00000000
 H      1   2   3     1.122564287448   112.68987849   183.31390662
 H      1   2   3     1.061448971716   112.10588886   298.00278538
 H      1   2   3     1.090405701890   112.05764469    58.60973510
 C      6   1   2     4.220504245532   167.04394665   241.50806249
 O      7   6   1     1.403027926712    34.78099546    66.09457452
 H      8   7   6     0.931140730211   110.38816606   226.08448427
 H      7   6   1     1.110366389852    94.99853121   297.54343521
 H      7   6   1     1.077819190453   142.35885482    62.32433553
 H      7   6   1     1.096289110982    92.37303540   192.45149389

---------------------------
INTERNAL COORDINATES (A.U.)
---------------------------
 C      0   0   0     0.000000000000     0.00000000     0.00000000
 O      1   0   0     2.687940362498     0.00000000     0.00000000
 H      2   1   0     1.816926617697   104.23528303     0.00000000
 H      1   2   3     2.121339070997   112.68987849   183.31390662
 H      1   2   3     2.005847861676   112.10588886   298.00278538
 H      1   2   3     2.060568151438   112.05764469    58.60973510
 C      6   1   2     7.975597171108   167.04394665   241.50806249
 O      7   6   1     2.651338539729    34.78099546    66.09457452
 H      8   7   6     1.759600972238   110.38816606   226.08448427
 H      7   6   1     2.098288385132    94.99853121   297.54343521
 H      7   6   1     2.036783091841   142.35885482    62.32433553
 H      7   6   1     2.071686183355    92.37303540   192.45149389

---------------------
BASIS SET INFORMATION
---------------------
There are 3 groups of distinct atoms

 Group   1 Type C   : 11s6p2d1f contracted to 5s3p2d1f pattern {62111/411/11/1}
 Group   2 Type O   : 11s6p2d1f contracted to 5s3p2d1f pattern {62111/411/11/1}
 Group   3 Type H   : 5s1p contracted to 3s1p pattern {311/1}

Atom   0C    basis set group =>   1
Atom   1O    basis set group =>   2
Atom   2H    basis set group =>   3
Atom   3H    basis set group =>   3
Atom   4H    basis set group =>   3
Atom   5H    basis set group =>   3
Atom   6C    basis set group =>   1
Atom   7O    basis set group =>   2
Atom   8H    basis set group =>   3
Atom   9H    basis set group =>   3
Atom  10H    basis set group =>   3
Atom  11H    basis set group =>   3


           ************************************************************
           *        Program running with 8 parallel MPI-processes     *
           *              working on a common directory               *
           ************************************************************
------------------------------------------------------------------------------
                           ORCA GTO INTEGRAL CALCULATION
------------------------------------------------------------------------------

                         BASIS SET STATISTICS AND STARTUP INFO

 # of primitive gaussian shells          ...  128
 # of primitive gaussian functions       ...  248
 # of contracted shells                  ...   76
 # of contracted basis functions         ...  172
 Highest angular momentum                ...    3
 Maximum contraction depth               ...    6
 Integral package used                   ... LIBINT
 Integral threshhold            Thresh   ...  2.500e-11
 Primitive cut-off              TCut     ...  2.500e-12


------------------------------ INTEGRAL EVALUATION ----------------------------


 * One electron integrals 
 Pre-screening matrix                    ... done
 Shell pair data                         ... done (   0.001 sec)



           ************************************************************
           *        Program running with 8 parallel MPI-processes     *
           *              working on a common directory               *
           ************************************************************
-------------------------------------------------------------------------------
                                 ORCA SCF
-------------------------------------------------------------------------------

------------
SCF SETTINGS
------------
Hamiltonian:
 Density Functional     Method          .... DFT(GTOs)
 Exchange Functional    Exchange        .... WB97X-D3
 Correlation Functional Correlation     .... WB97X-D3
 Gradients option       PostSCFGGA      .... off
 Hybrid DFT is turned on
   Fraction HF Exchange ScalHFX         ....  0.195728
   Scaling of DF-GGA-X  ScalDFX         ....  0.000000
   Scaling of DF-GGA-C  ScalDFC         ....  1.000000
   Scaling of DF-LDA-C  ScalLDAC        ....  1.000000
   Perturbative correction              ....  0.000000
   Density functional embedding theory  .... OFF
 Long-range corrected/Screened/Range-Separated Hybrid DFT is turned on
   Amount of maximum screened exact exchange              ....  0.804272
   Range separation parameter mu (erf(mu*r12)/r12)        ....  0.250000


General Settings:
 Integral files         IntName         .... 12-135_DFT_A
 Hartree-Fock type      HFTyp           .... RHF
 Total Charge           Charge          ....    0
 Multiplicity           Mult            ....    1
 Number of Electrons    NEL             ....   18
 Basis Dimension        Dim             ....  172
 Nuclear Repulsion      ENuc            ....     40.2783951090 Eh

Convergence Acceleration:
 DIIS                   CNVDIIS         .... on
   Start iteration      DIISMaxIt       ....    12
   Startup error        DIISStart       ....  0.200000
   # of expansion vecs  DIISMaxEq       ....     5
   Bias factor          DIISBfac        ....   1.050
   Max. coefficient     DIISMaxC        ....  10.000
 Newton-Raphson         CNVNR           .... off
 SOSCF                  CNVSOSCF        .... on
   Start iteration      SOSCFMaxIt      ....   150
   Startup grad/error   SOSCFStart      ....  0.003300
 Level Shifting         CNVShift        .... on
   Level shift para.    LevelShift      ....    0.2500
   Turn off err/grad.   ShiftErr        ....    0.0010
 Zerner damping         CNVZerner       .... off
 Static damping         CNVDamp         .... on
   Fraction old density DampFac         ....    0.7000
   Max. Damping (<1)    DampMax         ....    0.9800
   Min. Damping (>=0)   DampMin         ....    0.0000
   Turn off err/grad.   DampErr         ....    0.1000
 Fernandez-Rico         CNVRico         .... off

SCF Procedure:
 Maximum # iterations   MaxIter         ....  1000
 SCF integral mode      SCFMode         .... Direct
   Integral package                     .... LIBINT
 Reset frequency        DirectResetFreq ....    20
 Integral Threshold     Thresh          ....  2.500e-11 Eh
 Primitive CutOff       TCut            ....  2.500e-12 Eh

Convergence Tolerance:
 Convergence Check Mode ConvCheckMode   .... Total+1el-Energy
 Convergence forced     ConvForced      .... 0
 Energy Change          TolE            ....  1.000e-08 Eh
 1-El. energy change                    ....  1.000e-05 Eh
 Orbital Gradient       TolG            ....  1.000e-05
 Orbital Rotation angle TolX            ....  1.000e-05
 DIIS Error             TolErr          ....  5.000e-07


Diagonalization of the overlap matrix:
Smallest eigenvalue                        ... 1.334e-03
Time for diagonalization                   ...    0.005 sec
Threshold for overlap eigenvalues          ... 1.000e-08
Number of eigenvalues below threshold      ... 0
Time for construction of square roots      ...    0.006 sec
Total time needed                          ...    0.011 sec

-------------------
DFT GRID GENERATION
-------------------

General Integration Accuracy     IntAcc      ...  4.340
Radial Grid Type                 RadialGrid  ... Gauss-Chebyshev
Angular Grid (max. acc.)         AngularGrid ... Lebedev-110
Angular grid pruning method      GridPruning ... 3 (G Style)
Weight generation scheme         WeightScheme... Becke
Basis function cutoff            BFCut       ...    1.0000e-11
Integration weight cutoff        WCut        ...    1.0000e-14
Grids for H and He will be reduced by one unit

# of grid points (after initial pruning)     ...  13096 (   0.0 sec)
# of grid points (after weights+screening)   ...  12577 (   0.0 sec)
nearest neighbour list constructed           ...    0.0 sec
Grid point re-assignment to atoms done       ...    0.0 sec
Grid point division into batches done        ...    0.0 sec
Reduced shell lists constructed in    0.0 sec

Total number of grid points                  ...    12577
Total number of batches                      ...      202
Average number of points per batch           ...       62
Average number of grid points per atom       ...     1048
Average number of shells per batch           ...    43.52 (57.26%)
Average number of basis functions per batch  ...    94.85 (55.15%)
Average number of large shells per batch     ...    35.22 (80.94%)
Average number of large basis fcns per batch ...    79.59 (83.91%)
Maximum spatial batch extension              ...  13.37, 15.38, 16.72 au
Average spatial batch extension              ...   0.39,  0.44,  0.46 au

Time for grid setup =    0.041 sec

------------------------------
INITIAL GUESS: MODEL POTENTIAL
------------------------------
Loading Hartree-Fock densities                     ... done
Calculating cut-offs                               ... done
Setting up the integral package                    ... done
Initializing the effective Hamiltonian             ... done
Starting the Coulomb interaction                   ... done (   0.0 sec)
Reading the grid                                   ... done
Mapping shells                                     ... done
Starting the XC term evaluation                    ... done (   0.0 sec)
  promolecular density results
     # of electrons  =     17.995410577
     EX              =    -14.428243548
     EC              =     -0.575092528
     EX+EC           =    -15.003336076
Transforming the Hamiltonian                       ... done (   0.0 sec)
Diagonalizing the Hamiltonian                      ... done (   0.0 sec)
Back transforming the eigenvectors                 ... done (   0.0 sec)
Now organizing SCF variables                       ... done
                      ------------------
                      INITIAL GUESS DONE (   0.1 sec)
                      ------------------
--------------
SCF ITERATIONS
--------------
ITER       Energy         Delta-E        Max-DP      RMS-DP      [F,P]     Damp
               ***  Starting incremental Fock matrix formation  ***
  0   -115.6487388656   0.000000000000 0.03466962  0.00073528  0.2360930 0.7000
  1   -115.6850571733  -0.036318307741 0.02040214  0.00052071  0.1171950 0.7000
                               ***Turning on DIIS***
  2   -115.7018740090  -0.016816835643 0.02941853  0.00094682  0.0447277 0.0000
  3   -115.7292833655  -0.027409356520 0.01656714  0.00034239  0.0576574 0.0000
  4   -115.7336948951  -0.004411529632 0.00404053  0.00006657  0.0058568 0.0000
                      *** Initiating the SOSCF procedure ***
                           *** Shutting down DIIS ***
                      *** Re-Reading the Fockian *** 
                      *** Removing any level shift *** 
ITER      Energy       Delta-E        Grad      Rot      Max-DP    RMS-DP
  5   -115.73378653  -0.0000916387  0.000433  0.000433  0.000726  0.000022
               *** Restarting incremental Fock matrix formation ***
  6   -115.73379491  -0.0000083759  0.000150  0.000161  0.000407  0.000013
  7   -115.73379567  -0.0000007568  0.000044  0.000088  0.000187  0.000006
  8   -115.73379572  -0.0000000581  0.000023  0.000019  0.000033  0.000001
  9   -115.73379573  -0.0000000084  0.000012  0.000009  0.000018  0.000001
                  ***Gradient check signals convergence***
              ***Rediagonalizing the Fockian in SOSCF/NRSCF***

               *****************************************************
               *                     SUCCESS                       *
               *           SCF CONVERGED AFTER  10 CYCLES          *
               *****************************************************

Setting up the final grid:

General Integration Accuracy     IntAcc      ...  4.670
Radial Grid Type                 RadialGrid  ... Gauss-Chebyshev
Angular Grid (max. acc.)         AngularGrid ... Lebedev-302
Angular grid pruning method      GridPruning ... 3 (G Style)
Weight generation scheme         WeightScheme... Becke
Basis function cutoff            BFCut       ...    1.0000e-11
Integration weight cutoff        WCut        ...    1.0000e-14
Grids for H and He will be reduced by one unit

# of grid points (after initial pruning)     ...  52000 (   0.0 sec)
# of grid points (after weights+screening)   ...  49560 (   0.0 sec)
nearest neighbour list constructed           ...    0.0 sec
Grid point re-assignment to atoms done       ...    0.0 sec
Grid point division into batches done        ...    0.2 sec
Reduced shell lists constructed in    0.2 sec

Total number of grid points                  ...    49560
Total number of batches                      ...      781
Average number of points per batch           ...       63
Average number of grid points per atom       ...     4130
Average number of shells per batch           ...    41.70 (54.86%)
Average number of basis functions per batch  ...    90.69 (52.72%)
Average number of large shells per batch     ...    33.46 (80.26%)
Average number of large basis fcns per batch ...    76.27 (84.11%)
Maximum spatial batch extension              ...  15.06, 14.94, 15.27 au
Average spatial batch extension              ...   0.28,  0.27,  0.27 au

Final grid set up in    0.3 sec
Final integration                            ... done (   0.1 sec)
Change in XC energy                          ...     0.000099903
Integrated number of electrons               ...    17.999992826
Previous integrated no of electrons          ...    17.996601113

----------------
TOTAL SCF ENERGY
----------------

Total Energy       :         -115.73369583 Eh           -3149.27397 eV

Components:
Nuclear Repulsion  :           40.27839511 Eh            1096.03085 eV
Electronic Energy  :         -156.01209094 Eh           -4245.30482 eV
One Electron Energy:         -236.96248958 Eh           -6448.07716 eV
Two Electron Energy:           80.95039864 Eh            2202.77233 eV

Virial components:
Potential Energy   :         -230.97684599 Eh           -6285.19951 eV
Kinetic Energy     :          115.24315016 Eh            3135.92554 eV
Virial Ratio       :            2.00425661


DFT components:
N(Alpha)           :        8.999996412870 electrons
N(Beta)            :        8.999996412870 electrons
N(Total)           :       17.999992825740 electrons
E(XC)              :      -10.652509962923 Eh       
DFET-embed. en.    :        0.000000000000 Eh       

---------------
SCF CONVERGENCE
---------------

  Last Energy change         ...   -1.9664e-09  Tolerance :   1.0000e-08
  Last MAX-Density change    ...    3.1460e-06  Tolerance :   1.0000e-07
  Last RMS-Density change    ...    9.6396e-08  Tolerance :   5.0000e-09
  Last Orbital Gradient      ...    2.1109e-06  Tolerance :   1.0000e-05
  Last Orbital Rotation      ...    1.9497e-06  Tolerance :   1.0000e-05

             **** THE GBW FILE WAS UPDATED (12-135_DFT_A.gbw) ****
             **** DENSITY FILE WAS UPDATED (12-135_DFT_A.scfp.tmp) ****
             **** ENERGY FILE WAS UPDATED (12-135_DFT_A.en.tmp) ****
----------------
ORBITAL ENERGIES
----------------

  NO   OCC          E(Eh)            E(eV) 
   0   2.0000     -19.232210      -523.3350 
   1   2.0000     -10.312810      -280.6258 
   2   2.0000      -1.136110       -30.9151 
   3   2.0000      -0.795772       -21.6541 
   4   2.0000      -0.609894       -16.5961 
   5   2.0000      -0.544673       -14.8213 
   6   2.0000      -0.522962       -14.2305 
   7   2.0000      -0.436841       -11.8870 
   8   2.0000      -0.375268       -10.2116 
   9   0.0000       0.078950         2.1483 
  10   0.0000       0.115885         3.1534 
  11   0.0000       0.149510         4.0684 
  12   0.0000       0.166400         4.5280 
  13   0.0000       0.181266         4.9325 
  14   0.0000       0.198605         5.4043 
  15   0.0000       0.204262         5.5583 
  16   0.0000       0.224391         6.1060 
  17   0.0000       0.234404         6.3785 
  18   0.0000       0.275299         7.4913 
  19   0.0000       0.307788         8.3753 
  20   0.0000       0.314693         8.5632 
  21   0.0000       0.327412         8.9093 
  22   0.0000       0.332081         9.0364 
  23   0.0000       0.354987         9.6597 
  24   0.0000       0.399988        10.8842 
  25   0.0000       0.437794        11.9130 
  26   0.0000       0.473086        12.8733 
  27   0.0000       0.482024        13.1166 
  28   0.0000       0.512530        13.9467 
  29   0.0000       0.543456        14.7882 
  30   0.0000       0.546348        14.8669 
  31   0.0000       0.559823        15.2336 
  32   0.0000       0.597004        16.2453 
  33   0.0000       0.613678        16.6990 
  34   0.0000       0.622272        16.9329 
  35   0.0000       0.662597        18.0302 
  36   0.0000       0.670365        18.2416 
  37   0.0000       0.685594        18.6560 
  38   0.0000       0.776555        21.1311 
  39   0.0000       0.787146        21.4193 
  40   0.0000       0.803593        21.8669 
  41   0.0000       0.817025        22.2324 
  42   0.0000       0.867405        23.6033 
  43   0.0000       0.896461        24.3939 
  44   0.0000       0.989222        26.9181 
  45   0.0000       1.023264        27.8444 
  46   0.0000       1.046647        28.4807 
  47   0.0000       1.104240        30.0479 
  48   0.0000       1.144654        31.1476 
  49   0.0000       1.149809        31.2879 
  50   0.0000       1.176177        32.0054 
  51   0.0000       1.217105        33.1191 
  52   0.0000       1.246219        33.9113 
  53   0.0000       1.351405        36.7736 
  54   0.0000       1.375257        37.4226 
  55   0.0000       1.389255        37.8036 
  56   0.0000       1.447164        39.3793 
  57   0.0000       1.503049        40.9000 
  58   0.0000       1.540607        41.9220 
  59   0.0000       1.569640        42.7121 
  60   0.0000       1.596078        43.4315 
  61   0.0000       1.634915        44.4883 
  62   0.0000       1.646996        44.8170 
  63   0.0000       1.669255        45.4227 
  64   0.0000       1.694318        46.1047 
  65   0.0000       1.804905        49.1140 
  66   0.0000       1.823013        49.6067 
  67   0.0000       1.916303        52.1453 
  68   0.0000       1.926928        52.4344 
  69   0.0000       1.964363        53.4530 
  70   0.0000       2.018856        54.9359 
  71   0.0000       2.054282        55.8999 
  72   0.0000       2.084055        56.7100 
  73   0.0000       2.104004        57.2529 
  74   0.0000       2.117932        57.6319 
  75   0.0000       2.188252        59.5454 
  76   0.0000       2.201938        59.9178 
  77   0.0000       2.227687        60.6185 
  78   0.0000       2.254009        61.3347 
  79   0.0000       2.321248        63.1644 
  80   0.0000       2.331601        63.4461 
  81   0.0000       2.364294        64.3357 
  82   0.0000       2.404945        65.4419 
  83   0.0000       2.449406        66.6517 
  84   0.0000       2.484528        67.6074 
  85   0.0000       2.511566        68.3432 
  86   0.0000       2.570185        69.9383 
  87   0.0000       2.605143        70.8896 
  88   0.0000       2.648937        72.0812 
  89   0.0000       2.653617        72.2086 
  90   0.0000       2.671630        72.6987 
  91   0.0000       2.732539        74.3562 
  92   0.0000       2.816542        76.6420 
  93   0.0000       2.859451        77.8096 
  94   0.0000       2.866317        77.9964 
  95   0.0000       2.890948        78.6667 
  96   0.0000       2.925337        79.6025 
  97   0.0000       2.974400        80.9375 
  98   0.0000       2.987848        81.3035 
  99   0.0000       3.097430        84.2853 
 100   0.0000       3.128418        85.1286 
 101   0.0000       3.147578        85.6499 
 102   0.0000       3.170942        86.2857 
 103   0.0000       3.205694        87.2314 
 104   0.0000       3.258878        88.6786 
 105   0.0000       3.306315        89.9694 
 106   0.0000       3.371434        91.7414 
 107   0.0000       3.379832        91.9699 
 108   0.0000       3.380176        91.9793 
 109   0.0000       3.442977        93.6882 
 110   0.0000       3.492118        95.0254 
 111   0.0000       3.586425        97.5916 
 112   0.0000       3.603077        98.0447 
 113   0.0000       3.649755        99.3149 
 114   0.0000       3.665526        99.7440 
 115   0.0000       3.687142       100.3322 
 116   0.0000       3.747047       101.9623 
 117   0.0000       4.030910       109.6866 
 118   0.0000       4.088587       111.2561 
 119   0.0000       4.144034       112.7649 
 120   0.0000       4.204228       114.4028 
 121   0.0000       4.266388       116.0943 
 122   0.0000       4.293780       116.8397 
 123   0.0000       4.318849       117.5219 
 124   0.0000       4.355095       118.5082 
 125   0.0000       4.443553       120.9152 
 126   0.0000       4.514853       122.8554 
 127   0.0000       4.543792       123.6429 
 128   0.0000       4.554977       123.9472 
 129   0.0000       4.561394       124.1218 
 130   0.0000       4.589884       124.8971 
 131   0.0000       5.041890       137.1968 
 132   0.0000       5.063678       137.7897 
 133   0.0000       5.079082       138.2089 
 134   0.0000       5.358642       145.8161 
 135   0.0000       5.417594       147.4202 
 136   0.0000       5.453525       148.3980 
 137   0.0000       5.457043       148.4937 
 138   0.0000       5.534974       150.6143 
 139   0.0000       5.769250       156.9893 
 140   0.0000       5.781145       157.3130 
 141   0.0000       5.812222       158.1586 
 142   0.0000       5.951291       161.9429 
 143   0.0000       5.997786       163.2081 
 144   0.0000       6.006294       163.4396 
 145   0.0000       6.341416       172.5587 
 146   0.0000       6.530486       177.7036 
 147   0.0000       6.603347       179.6862 
 148   0.0000       6.696577       182.2231 
 149   0.0000       6.758561       183.9098 
 150   0.0000       6.795488       184.9146 
 151   0.0000       6.891525       187.5279 
 152   0.0000       7.020620       191.0408 
 153   0.0000       7.167456       195.0364 
 154   0.0000       7.201946       195.9749 
 155   0.0000       7.261578       197.5976 
 156   0.0000       7.463739       203.0987 
 157   0.0000       8.268037       224.9847 
 158   0.0000       8.886605       241.8168 
 159   0.0000       9.348685       254.3906 
 160   0.0000       9.555607       260.0213 
 161   0.0000       9.575333       260.5581 
 162   0.0000       9.786441       266.3026 
 163   0.0000       9.856177       268.2002 
 164   0.0000       9.946033       270.6453 
[...]
  82   0.0000       2.421851        65.9019 
  83   0.0000       2.455935        66.8294 
  84   0.0000       2.508091        68.2486 
  85   0.0000       2.535139        68.9846 
  86   0.0000       2.589329        70.4592 
  87   0.0000       2.599010        70.7227 
  88   0.0000       2.617646        71.2298 
  89   0.0000       2.646185        72.0064 
  90   0.0000       2.658475        72.3408 
  91   0.0000       2.724988        74.1507 
  92   0.0000       2.851968        77.6060 
  93   0.0000       2.856443        77.7278 
  94   0.0000       2.866363        77.9977 
  95   0.0000       2.873282        78.1860 
  96   0.0000       2.936944        79.9183 
  97   0.0000       2.988264        81.3148 
  98   0.0000       3.075991        83.7020 
  99   0.0000       3.097537        84.2883 
 100   0.0000       3.134666        85.2986 
 101   0.0000       3.167142        86.1823 
 102   0.0000       3.179446        86.5171 
 103   0.0000       3.243646        88.2641 
 104   0.0000       3.271382        89.0188 
 105   0.0000       3.292838        89.6027 
 106   0.0000       3.384903        92.1079 
 107   0.0000       3.386542        92.1525 
 108   0.0000       3.432537        93.4041 
 109   0.0000       3.473148        94.5092 
 110   0.0000       3.526094        95.9499 
 111   0.0000       3.615132        98.3727 
 112   0.0000       3.617527        98.4379 
 113   0.0000       3.659242        99.5730 
 114   0.0000       3.666827        99.7794 
 115   0.0000       3.710776       100.9754 
 116   0.0000       3.737341       101.6982 
 117   0.0000       4.021467       109.4297 
 118   0.0000       4.058298       110.4319 
 119   0.0000       4.139514       112.6419 
 120   0.0000       4.239644       115.3666 
 121   0.0000       4.275387       116.3392 
 122   0.0000       4.295164       116.8773 
 123   0.0000       4.301199       117.0416 
 124   0.0000       4.311836       117.3310 
 125   0.0000       4.418888       120.2441 
 126   0.0000       4.529505       123.2541 
 127   0.0000       4.548181       123.7623 
 128   0.0000       4.568053       124.3030 
 129   0.0000       4.580255       124.6351 
 130   0.0000       4.623762       125.8190 
 131   0.0000       5.062919       137.7690 
 132   0.0000       5.073416       138.0547 
 133   0.0000       5.129601       139.5836 
 134   0.0000       5.322962       144.8452 
 135   0.0000       5.351397       145.6189 
 136   0.0000       5.423540       147.5820 
 137   0.0000       5.455465       148.4508 
 138   0.0000       5.587364       152.0399 
 139   0.0000       5.749407       156.4493 
 140   0.0000       5.840422       158.9259 
 141   0.0000       5.857494       159.3905 
 142   0.0000       5.954001       162.0166 
 143   0.0000       5.999254       163.2480 
 144   0.0000       6.117871       166.4757 
 145   0.0000       6.450969       175.5398 
 146   0.0000       6.534780       177.8204 
 147   0.0000       6.626727       180.3224 
 148   0.0000       6.737475       183.3360 
 149   0.0000       6.764367       184.0678 
 150   0.0000       6.814174       185.4231 
 151   0.0000       6.830194       185.8590 
 152   0.0000       7.047517       191.7727 
 153   0.0000       7.055847       191.9993 
 154   0.0000       7.232797       196.8144 
 155   0.0000       7.249579       197.2711 
 156   0.0000       7.420874       201.9322 
 157   0.0000       8.082076       219.9245 
 158   0.0000       8.870343       241.3743 
 159   0.0000       9.335483       254.0314 
 160   0.0000       9.534373       259.4435 
 161   0.0000       9.557150       260.0633 
 162   0.0000       9.789276       266.3797 
 163   0.0000       9.890951       269.1465 
 164   0.0000       9.930033       270.2099 
 165   0.0000      10.077593       274.2253 
 166   0.0000      11.155662       303.5610 
 167   0.0000      19.092111       519.5227 
 168   0.0000      22.429770       610.3451 
 169   0.0000      43.663669      1188.1488 
 170   0.0000      65.913716      1793.6034 
 171   0.0000     126.401260      3439.5531 

                    ********************************
                    * MULLIKEN POPULATION ANALYSIS *
                    ********************************

-----------------------
MULLIKEN ATOMIC CHARGES
-----------------------
   0 C :    0.001552
   1 O :    0.000005
   2 H :   -0.000101
   3 H :   -0.000087
   4 H :   -0.000044
   5 H :   -0.005766
   6 C :   -0.157449
   7 O :   -0.466513
   8 H :    0.311010
   9 H :    0.095056
  10 H :    0.100762
  11 H :    0.121574
Sum of atomic charges:   -0.0000000

--------------------------------
MULLIKEN REDUCED ORBITAL CHARGES
--------------------------------
  0 C s       :    -0.001396  s :    -0.001396
      pz      :    -0.000065  p :    -0.000172
      px      :    -0.000022
      py      :    -0.000084
      dz2     :     0.000010  d :     0.000016
      dxz     :     0.000000
      dyz     :     0.000005
      dx2y2   :     0.000000
      dxy     :     0.000000
      f0      :    -0.000000  f :     0.000000
      f+1     :     0.000000
      f-1     :     0.000000
      f+2     :    -0.000000
      f-2     :    -0.000000
      f+3     :    -0.000000
      f-3     :    -0.000000
  1 O s       :     0.000006  s :     0.000006
      pz      :    -0.000021  p :    -0.000010
      px      :     0.000011
      py      :     0.000000
      dz2     :    -0.000000  d :    -0.000000
      dxz     :     0.000000
      dyz     :     0.000000
      dx2y2   :     0.000000
      dxy     :    -0.000000
      f0      :    -0.000000  f :    -0.000000
      f+1     :    -0.000000
      f-1     :    -0.000000
      f+2     :    -0.000000
      f-2     :     0.000000
      f+3     :    -0.000000
      f-3     :    -0.000000
  2 H s       :     0.000101  s :     0.000101
      pz      :     0.000000  p :    -0.000000
      px      :    -0.000000
      py      :    -0.000000
  3 H s       :     0.000086  s :     0.000086
      pz      :     0.000000  p :     0.000000
      px      :    -0.000000
      py      :    -0.000000
  4 H s       :     0.000045  s :     0.000045
      pz      :    -0.000000  p :    -0.000001
      px      :    -0.000000
      py      :    -0.000000
  5 H s       :     0.005749  s :     0.005749
      pz      :     0.000016  p :     0.000017
      px      :    -0.000000
      py      :     0.000001
  6 C s       :     3.220960  s :     3.220960
      pz      :     0.870542  p :     2.830065
      px      :     0.886085
      py      :     1.073438
      dz2     :     0.030501  d :     0.098651
      dxz     :     0.014092
      dyz     :     0.011896
      dx2y2   :     0.011677
      dxy     :     0.030486
      f0      :     0.000908  f :     0.007774
      f+1     :     0.002351
      f-1     :     0.000292
      f+2     :     0.000971
      f-2     :     0.001683
      f+3     :     0.000975
      f-3     :     0.000594
  7 O s       :     3.783995  s :     3.783995
      pz      :     1.593172  p :     4.650790
      px      :     1.366122
      py      :     1.691497
      dz2     :     0.006427  d :     0.029954
      dxz     :     0.009823
      dyz     :     0.004878
      dx2y2   :     0.002187
      dxy     :     0.006639
      f0      :     0.000218  f :     0.001773
      f+1     :     0.000219
      f-1     :     0.000035
      f+2     :     0.000243
      f-2     :     0.000387
      f+3     :     0.000249
      f-3     :     0.000423
  8 H s       :     0.637437  s :     0.637437
      pz      :     0.014144  p :     0.051553
      px      :     0.018039
      py      :     0.019370
  9 H s       :     0.885652  s :     0.885652
      pz      :     0.003329  p :     0.019292
      px      :     0.007074
      py      :     0.008889
 10 H s       :     0.879398  s :     0.879398
      pz      :     0.010488  p :     0.019840
      px      :     0.004916
      py      :     0.004436
 11 H s       :     0.858562  s :     0.858562
      pz      :     0.003330  p :     0.019865
      px      :     0.007109
      py      :     0.009426


                     *******************************
                     * LOEWDIN POPULATION ANALYSIS *
                     *******************************

----------------------
LOEWDIN ATOMIC CHARGES
----------------------
   0 C :   -0.001120
   1 O :   -0.000014
   2 H :   -0.000028
   3 H :   -0.000004
   4 H :   -0.000032
   5 H :   -0.003976
   6 C :   -0.390066
   7 O :   -0.052067
   8 H :    0.150680
   9 H :    0.094667
  10 H :    0.092545
  11 H :    0.109416

-------------------------------
LOEWDIN REDUCED ORBITAL CHARGES
-------------------------------
  0 C s       :     0.000073  s :     0.000073
      pz      :     0.000970  p :     0.001031
      px      :     0.000013
      py      :     0.000048
      dz2     :     0.000012  d :     0.000016
      dxz     :     0.000000
      dyz     :     0.000003
      dx2y2   :     0.000000
      dxy     :     0.000000
      f0      :     0.000000  f :     0.000001
      f+1     :     0.000000
      f-1     :     0.000000
      f+2     :     0.000000
      f-2     :     0.000000
      f+3     :     0.000000
      f-3     :     0.000000
  1 O s       :     0.000004  s :     0.000004
      pz      :     0.000008  p :     0.000009
      px      :     0.000001
      py      :     0.000000
      dz2     :     0.000000  d :     0.000001
      dxz     :     0.000000
      dyz     :     0.000000
      dx2y2   :     0.000000
      dxy     :     0.000000
      f0      :     0.000000  f :     0.000000
      f+1     :     0.000000
      f-1     :     0.000000
      f+2     :     0.000000
      f-2     :     0.000000
      f+3     :     0.000000
      f-3     :     0.000000
  2 H s       :     0.000028  s :     0.000028
      pz      :     0.000000  p :     0.000000
      px      :     0.000000
      py      :     0.000000
  3 H s       :     0.000003  s :     0.000003
      pz      :     0.000001  p :     0.000001
      px      :     0.000000
      py      :     0.000000
  4 H s       :     0.000031  s :     0.000031
      pz      :     0.000001  p :     0.000001
      px      :     0.000000
      py      :     0.000000
  5 H s       :     0.003945  s :     0.003945
      pz      :     0.000030  p :     0.000031
      px      :     0.000000
      py      :     0.000001
  6 C s       :     2.859211  s :     2.859211
      pz      :     0.973510  p :     3.053803
      px      :     0.972374
      py      :     1.107919
      dz2     :     0.121823  d :     0.418824
      dxz     :     0.096784
      dyz     :     0.040084
      dx2y2   :     0.038907
      dxy     :     0.121227
      f0      :     0.005285  f :     0.058228
      f+1     :     0.015703
      f-1     :     0.004738
      f+2     :     0.011932
      f-2     :     0.009796
      f+3     :     0.006947
      f-3     :     0.003828
  7 O s       :     3.342235  s :     3.342235
      pz      :     1.614733  p :     4.632373
      px      :     1.384221
      py      :     1.633419
      dz2     :     0.016298  d :     0.072639
      dxz     :     0.021309
      dyz     :     0.008814
      dx2y2   :     0.007321
      dxy     :     0.018896
      f0      :     0.000818  f :     0.004820
      f+1     :     0.000833
      f-1     :     0.000146
      f+2     :     0.000664
      f-2     :     0.001229
      f+3     :     0.000401
      f-3     :     0.000729
  8 H s       :     0.677863  s :     0.677863
      pz      :     0.048192  p :     0.171457
      px      :     0.057253
      py      :     0.066012
  9 H s       :     0.847505  s :     0.847505
      pz      :     0.010343  p :     0.057827
      px      :     0.020309
      py      :     0.027175
 10 H s       :     0.844722  s :     0.844722
      pz      :     0.031722  p :     0.062733
      px      :     0.016005
      py      :     0.015005
 11 H s       :     0.831628  s :     0.831628
      pz      :     0.010944  p :     0.058957
      px      :     0.019587
      py      :     0.028426


                      *****************************
                      * MAYER POPULATION ANALYSIS *
                      *****************************

  NA   - Mulliken gross atomic population
  ZA   - Total nuclear charge
  QA   - Mulliken gross atomic charge
  VA   - Mayer's total valence
  BVA  - Mayer's bonded valence
  FA   - Mayer's free valence

  ATOM       NA         ZA         QA         VA         BVA        FA
  0 C     -0.0016     0.0000     0.0016    -0.0031    -0.0031    -0.0000
  1 O     -0.0000     0.0000     0.0000    -0.0000    -0.0000     0.0000
  2 H      0.0001     0.0000    -0.0001     0.0002     0.0002     0.0000
  3 H      0.0001     0.0000    -0.0001     0.0002     0.0002     0.0000
  4 H      0.0000     0.0000    -0.0000     0.0001     0.0001     0.0000
  5 H      0.0058     0.0000    -0.0058     0.0115     0.0115     0.0000
  6 C      6.1574     6.0000    -0.1574     3.9371     3.9371    -0.0000
  7 O      8.4665     8.0000    -0.4665     1.8985     1.8985    -0.0000
  8 H      0.6890     1.0000     0.3110     0.9173     0.9173    -0.0000
  9 H      0.9049     1.0000     0.0951     0.9529     0.9529    -0.0000
 10 H      0.8992     1.0000     0.1008     0.9643     0.9643    -0.0000
 11 H      0.8784     1.0000     0.1216     0.9593     0.9593     0.0000

  Mayer bond orders larger than 0.1
B(  6-C ,  7-O ) :   0.9966 B(  6-C ,  9-H ) :   0.9695 B(  6-C , 10-H ) :   0.9841 
B(  6-C , 11-H ) :   0.9743 B(  7-O ,  8-H ) :   0.9030 

-------
TIMINGS
-------

Total SCF time: 0 days 0 hours 0 min 10 sec 

Total time                  ....      10.463 sec
Sum of individual times     ....      10.210 sec  ( 97.6%)

Fock matrix formation       ....       9.689 sec  ( 92.6%)
  XC integration            ....       3.676 sec  ( 37.9% of F)
    Basis function eval.    ....       0.053 sec  (  1.5% of XC)
    Density eval.           ....       0.051 sec  (  1.4% of XC)
    XC-Functional eval.     ....       0.084 sec  (  2.3% of XC)
    XC-Potential eval.      ....       0.055 sec  (  1.5% of XC)
Diagonalization             ....       0.056 sec  (  0.5%)
Density matrix formation    ....       0.005 sec  (  0.0%)
Population analysis         ....       0.022 sec  (  0.2%)
Initial guess               ....       0.097 sec  (  0.9%)
Orbital Transformation      ....       0.000 sec  (  0.0%)
Orbital Orthonormalization  ....       0.000 sec  (  0.0%)
DIIS solution               ....       0.025 sec  (  0.2%)
SOSCF solution              ....       0.028 sec  (  0.3%)
Grid generation             ....       0.287 sec  (  2.7%)


-------------------------------------------------------------------------------
                          DFT DISPERSION CORRECTION                            
                                                                               
                              DFTD3 V3.1  Rev 1                                
                              USING zero damping                               
-------------------------------------------------------------------------------
The omegaB97X-D3 functional is recognized. Fit by Chai et al.
Active option DFTDOPT                   ...         3   

molecular C6(AA) [au] = 208.701366 


            DFT-D V3
 parameters
 s6 scaling factor         :     1.0000 
 rs6 scaling factor        :     1.2810 
 s8 scaling factor         :     1.0000 
 rs8 scaling factor        :     1.0940 
 Damping factor alpha6     :    14.0000 
 Damping factor alpha8     :    16.0000 
 ad hoc parameters k1-k3   :    16.0000     1.3333    -4.0000 

 Edisp/kcal,au: -0.149954284106  -0.000238967337 
 E6   /kcal   :  -0.030572945 
 E8   /kcal   :  -0.119381339 
 % E8         :  79.611823061 

-------------------------   ----------------
Dispersion correction           -0.000238967
-------------------------   ----------------


-------------------------   --------------------
FINAL SINGLE POINT ENERGY      -115.734467140511
-------------------------   --------------------


                            ***************************************
                            *     ORCA property calculations      *
                            ***************************************

                                    ---------------------
                                    Active property flags
                                    ---------------------
   (+) Dipole Moment


------------------------------------------------------------------------------
                       ORCA ELECTRIC PROPERTIES CALCULATION
------------------------------------------------------------------------------

Dipole Moment Calculation                       ... on
Quadrupole Moment Calculation                   ... off
Polarizability Calculation                      ... off
GBWName                                         ... 12-135_DFT_B.gbw
Electron density file                           ... 12-135_DFT_B.scfp.tmp
The origin for moment calculation is the CENTER OF MASS  = ( 6.273989, 13.276646 18.344998)

-------------
DIPOLE MOMENT
-------------
                                X             Y             Z
Electronic contribution:      1.26491      -0.05388      -1.34154
Nuclear contribution   :     -1.22520      -0.25123       1.94435
                        -----------------------------------------
Total Dipole Moment    :      0.03970      -0.30512       0.60281
                        -----------------------------------------
Magnitude (a.u.)       :      0.67679
Magnitude (Debye)      :      1.72027



--------------------
Rotational spectrum 
--------------------
 
Rotational constants in cm-1:     4.417692     0.838872     0.807034 
Rotational constants in MHz : 132439.071103 25148.735778 24194.285003 

 Dipole components along the rotational axes: 
x,y,z [a.u.] :    -0.321540    -0.595356    -0.014535 
x,y,z [Debye]:    -0.817290    -1.513274    -0.036945 

 
------------------------------------------------------------------------------
                      ORCA CHELPG CHARGES GENERATION
------------------------------------------------------------------------------

GBW file                           ... 12-135_DFT_B.gbw

Reading the GBW file               ... done

Grid spacing                       ...     0.300000
Point Cut-Off                      ...     2.800000
Van-der-Waals Radii                ...        COSMO
Total charge                       ...            0


Number of points X direction       ...           30
Number of points Y direction       ...           28
Number of points Z direction       ...           40
Maximum number of possible points  ...        33600
Final number of points             ...         5932


CHELPG Charges            
--------------------------------
  0   C   :       0.041786
  1   O   :      -0.022134
  2   H   :      -0.024829
  3   H   :       0.069004
  4   H   :      -0.067234
  5   H   :      -0.014439
  6   C   :       0.010131
  7   O   :      -0.580203
  8   H   :       0.426070
  9   H   :       0.032967
 10   H   :       0.031608
 11   H   :       0.097275
--------------------------------
Total charge:     0.000000
--------------------------------

CHELPG charges calculated...

Timings for individual parts in CHELPG calculation:
Grid generation                 ...        0.001 sec (=   0.000 min)
Potential calculation           ...        1.072 sec (=   0.018 min)
Fit to the potential            ...        0.002 sec (=   0.000 min)
------------------------------------------------------------------------------


Timings for individual modules:

Sum of individual times         ...       12.726 sec (=   0.212 min)
GTO integral calculation        ...        0.728 sec (=   0.012 min)   5.7 %
SCF iterations                  ...       10.889 sec (=   0.181 min)  85.6 %
CHELPG charge generation        ...        1.109 sec (=   0.018 min)   8.7 %



                             ****ORCA TERMINATED NORMALLY****
TOTAL RUN TIME: 0 days 0 hours 1 minutes 6 seconds 227 msec
