
                                 *****************
                                 * O   R   C   A *
                                 *****************

           --- An Ab Initio, DFT and Semiempirical electronic structure package ---

                  #######################################################
                  #                        -***-                        #
                  #          Department of theory and spectroscopy      #
                  #               Directorship: Frank Neese             #
                  #        Max Planck Institute fuer Kohlenforschung    #
                  #                Kaiser Wilhelm Platz 1               #
                  #                 D-45470 Muelheim/Ruhr               #
                  #                      Germany                        #
                  #                                                     #
                  #                  All rights reserved                #
                  #                        -***-                        #
                  #######################################################


                         Program Version 4.1.2  - RELEASE  -


 With contributions from (in alphabetic order):
   Daniel Aravena         : Magnetic Properties
   Michael Atanasov       : Ab Initio Ligand Field Theory
   Alexander A. Auer      : GIAO ZORA
   Ute Becker             : Parallelization
   Giovanni Bistoni       : ED, Open-shell LED
   Martin Brehm           : Molecular dynamics
   Dmytro Bykov           : SCF Hessian
   Vijay G. Chilkuri      : MRCI spin determinant printing
   Dipayan Datta          : RHF DLPNO-CCSD density
   Achintya Kumar Dutta   : EOM-CC, STEOM-CC
   Dmitry Ganyushin       : Spin-Orbit,Spin-Spin,Magnetic field MRCI
   Miquel Garcia          : C-PCM Hessian
   Yang Guo               : DLPNO-NEVPT2, CIM, IAO-localization
   Andreas Hansen         : Spin unrestricted coupled pair/coupled cluster methods
   Benjamin Helmich-Paris : CASSCF linear response (MC-RPA)
   Lee Huntington         : MR-EOM, pCC
   Robert Izsak           : Overlap fitted RIJCOSX, COSX-SCS-MP3, EOM
   Christian Kollmar      : KDIIS, OOCD, Brueckner-CCSD(T), CCSD density
   Simone Kossmann        : Meta GGA functionals, TD-DFT gradient, OOMP2, MP2 Hessian
   Martin Krupicka        : AUTO-CI
   Lucas Lang             : DCDCAS
   Dagmar Lenk            : GEPOL surface, SMD
   Dimitrios Liakos       : Extrapolation schemes; parallel MDCI
   Dimitrios Manganas     : ROCIS; embedding schemes
   Dimitrios Pantazis     : SARC Basis sets
   Taras Petrenko         : DFT Hessian,TD-DFT gradient, ASA, ECA, R-Raman, ABS, FL, XAS/XES, NRVS
   Peter Pinski           : DLPNO-MP2, DLPNO-MP2 Gradient
   Christoph Reimann      : Effective Core Potentials
   Marius Retegan         : Local ZFS, SOC
   Christoph Riplinger    : Optimizer, TS searches, QM/MM, DLPNO-CCSD(T), (RO)-DLPNO pert. Triples
   Tobias Risthaus        : Range-separated hybrids, TD-DFT gradient, RPA, STAB
   Michael Roemelt        : Restricted open shell CIS
   Masaaki Saitow         : Open-shell DLPNO
   Barbara Sandhoefer     : DKH picture change effects
   Avijit Sen             : IP-ROCIS
   Kantharuban Sivalingam : CASSCF convergence, NEVPT2, FIC-MRCI
   Bernardo de Souza      : ESD, SOC TD-DFT
   Georgi Stoychev        : AutoAux, RI-MP2 NMR
   Willem Van den Heuvel  : Paramagnetic NMR
   Boris Wezisla          : Elementary symmetry handling
   Frank Wennmohs         : Technical directorship


 We gratefully acknowledge several colleagues who have allowed us to
 interface, adapt or use parts of their codes:
   Stefan Grimme, W. Hujo, H. Kruse,             : VdW corrections, initial TS optimization,
                  C. Bannwarth                     DFT functionals, gCP, sTDA/sTD-DF
   Ed Valeev                                     : LibInt (2-el integral package), F12 methods
   Garnet Chan, S. Sharma, J. Yang, R. Olivares  : DMRG
   Ulf Ekstrom                                   : XCFun DFT Library
   Mihaly Kallay                                 : mrcc  (arbitrary order and MRCC methods)
   Andreas Klamt, Michael Diedenhofen            : otool_cosmo (COSMO solvation model)
   Jiri Pittner, Ondrej Demel                    : Mk-CCSD
   Frank Weinhold                                : gennbo (NPA and NBO analysis)
   Christopher J. Cramer and Donald G. Truhlar   : smd solvation model
   Lars Goerigk                                  : TD-DFT with DH, B97 family of functionals
   V. Asgeirsson, H. Jonsson                     : NEB implementation
   FAccTs GmbH                                   : IRC, NEB, NEB-TS, Multilevel


 Your calculation uses the libint2 library for the computation of 2-el integrals
 For citations please refer to: http://libint.valeyev.net

 This ORCA versions uses:
   CBLAS   interface :  Fast vector & matrix operations
   LAPACKE interface :  Fast linear algebra routines
   SCALAPACK package :  Parallel linear algebra routines


Your calculation utilizes the atom-pairwise dispersion correction
with the zero-damping scheme (D30)
Cite in your paper:
S.Grimme, J.Antony, S.Ehrlich and H.Krieg, J.Chem.Phys., 132, (2010), 154104 
   

XCFun DFT library Copyright 2009-2010 Ulf Ekstrom and contributors.
See http://admol.org/xcfun for more information. This is free soft-
ware; see the source code for copying conditions. There is ABSOLUTELY
NO WARRANTY; not even for MERCHANTABILITY or FITNESS FOR A PARTICULAR
PURPOSE. For details see the documentation. Scientific users of this 
library should cite U. Ekstrom, L. Visscher, R. Bast, A. J. Thorvald-
sen and K. Ruud; J.Chem.Theor.Comp. 2010, DOI: 10.1021/ct100117s
XCFun Version 0.99 
----- Orbital basis set information -----
Your calculation utilizes the basis: def2-TZVP
   F. Weigend and R. Ahlrichs, Phys. Chem. Chem. Phys. 7, 3297 (2005).

================================================================================
                                        WARNINGS
                       Please study these warnings very carefully!
================================================================================


INFO   : the flag for use of LIBINT has been found!

================================================================================
                                       INPUT FILE
================================================================================
NAME = 196.in
|  1> #Run DFT-D3 single point of the dimer
|  2> ! wB97X-D3 def2-TZVP TIGHTSCF  CHELPG PAL8
|  3> 
|  4> %base "196_charges"
|  5> 
|  6> %scf
|  7> MaxIter 1000
|  8> end
|  9> %output
| 10>   Print[ P_Mayer ] 1
| 11>   Print[ P_NatPop ] 1
| 12>   Print[ P_Hirshfeld ] 1
| 13>   Print[ P_Mulliken ] 1
| 14>   Print [ P_Loewdin ] 1
| 15> end
| 16> 
| 17> * xyz 0 1
| 18>   C                      7.461028             -3.924208            7.645301            
| 19>   O                      7.795634             -4.883773            8.593616            
| 20>   H                      7.047737             -5.467526            8.677806            
| 21>   H                      8.333208             -3.314785            7.495032            
| 22>   H                      7.054215             -4.277551            6.683916            
| 23>   H                      6.719253             -3.238531            8.013440            
| 24> *
| 25> 
| 26>                          ****END OF INPUT****
================================================================================

                       ****************************
                       * Single Point Calculation *
                       ****************************

---------------------------------
CARTESIAN COORDINATES (ANGSTROEM)
---------------------------------
  C      7.461028   -3.924208    7.645301
  O      7.795634   -4.883773    8.593616
  H      7.047737   -5.467526    8.677806
  H      8.333208   -3.314785    7.495032
  H      7.054215   -4.277551    6.683916
  H      6.719253   -3.238531    8.013440

----------------------------
CARTESIAN COORDINATES (A.U.)
----------------------------
  NO LB      ZA    FRAG     MASS         X           Y           Z
   0 C     6.0000    0    12.011   14.099300   -7.415678   14.447525
   1 O     8.0000    0    15.999   14.731613   -9.228993   16.239581
   2 H     1.0000    0     1.008   13.318293  -10.332127   16.398677
   3 H     1.0000    0     1.008   15.747481   -6.264036   14.163558
   4 H     1.0000    0     1.008   13.330534   -8.083400   12.630771
   5 H     1.0000    0     1.008   12.697548   -6.119937   15.143207

--------------------------------
INTERNAL COORDINATES (ANGSTROEM)
--------------------------------
 C      0   0   0     0.000000000000     0.00000000     0.00000000
 O      1   0   0     1.389973921945     0.00000000     0.00000000
 H      2   1   0     0.952473329662   107.12050939     0.00000000
 H      1   2   3     1.074558103450   106.95018675   184.41703479
 H      1   2   3     1.102093104435   117.55983105   310.07425727
 H      1   2   3     1.075132281291   111.88542074    70.85242015

---------------------------
INTERNAL COORDINATES (A.U.)
---------------------------
 C      0   0   0     0.000000000000     0.00000000     0.00000000
 O      1   0   0     2.626670045768     0.00000000     0.00000000
 H      2   1   0     1.799913742926   107.12050939     0.00000000
 H      1   2   3     2.030620530506   106.95018675   184.41703479
 H      1   2   3     2.082654141465   117.55983105   310.07425727
 H      1   2   3     2.031705569379   111.88542074    70.85242015

---------------------
BASIS SET INFORMATION
---------------------
There are 3 groups of distinct atoms

 Group   1 Type C   : 11s6p2d1f contracted to 5s3p2d1f pattern {62111/411/11/1}
 Group   2 Type O   : 11s6p2d1f contracted to 5s3p2d1f pattern {62111/411/11/1}
 Group   3 Type H   : 5s1p contracted to 3s1p pattern {311/1}

Atom   0C    basis set group =>   1
Atom   1O    basis set group =>   2
Atom   2H    basis set group =>   3
Atom   3H    basis set group =>   3
Atom   4H    basis set group =>   3
Atom   5H    basis set group =>   3


           ************************************************************
           *        Program running with 8 parallel MPI-processes     *
           *              working on a common directory               *
           ************************************************************
------------------------------------------------------------------------------
                           ORCA GTO INTEGRAL CALCULATION
------------------------------------------------------------------------------

                         BASIS SET STATISTICS AND STARTUP INFO

 # of primitive gaussian shells          ...   64
 # of primitive gaussian functions       ...  124
 # of contracted shells                  ...   38
 # of contracted basis functions         ...   86
 Highest angular momentum                ...    3
 Maximum contraction depth               ...    6
 Integral package used                   ... LIBINT
 Integral threshhold            Thresh   ...  2.500e-11
 Primitive cut-off              TCut     ...  2.500e-12


------------------------------ INTEGRAL EVALUATION ----------------------------


 * One electron integrals 
 Pre-screening matrix                    ... done
 Shell pair data                         ... done (   0.000 sec)



           ************************************************************
           *        Program running with 8 parallel MPI-processes     *
           *              working on a common directory               *
           ************************************************************
-------------------------------------------------------------------------------
                                 ORCA SCF
-------------------------------------------------------------------------------

------------
SCF SETTINGS
------------
Hamiltonian:
 Density Functional     Method          .... DFT(GTOs)
 Exchange Functional    Exchange        .... WB97X-D3
 Correlation Functional Correlation     .... WB97X-D3
 Gradients option       PostSCFGGA      .... off
 Hybrid DFT is turned on
   Fraction HF Exchange ScalHFX         ....  0.195728
   Scaling of DF-GGA-X  ScalDFX         ....  0.000000
   Scaling of DF-GGA-C  ScalDFC         ....  1.000000
   Scaling of DF-LDA-C  ScalLDAC        ....  1.000000
   Perturbative correction              ....  0.000000
   Density functional embedding theory  .... OFF
 Long-range corrected/Screened/Range-Separated Hybrid DFT is turned on
   Amount of maximum screened exact exchange              ....  0.804272
   Range separation parameter mu (erf(mu*r12)/r12)        ....  0.250000


General Settings:
 Integral files         IntName         .... 196_charges
 Hartree-Fock type      HFTyp           .... RHF
 Total Charge           Charge          ....    0
 Multiplicity           Mult            ....    1
 Number of Electrons    NEL             ....   18
 Basis Dimension        Dim             ....   86
 Nuclear Repulsion      ENuc            ....     40.9098858732 Eh

Convergence Acceleration:
 DIIS                   CNVDIIS         .... on
   Start iteration      DIISMaxIt       ....    12
   Startup error        DIISStart       ....  0.200000
   # of expansion vecs  DIISMaxEq       ....     5
   Bias factor          DIISBfac        ....   1.050
   Max. coefficient     DIISMaxC        ....  10.000
 Newton-Raphson         CNVNR           .... off
 SOSCF                  CNVSOSCF        .... on
   Start iteration      SOSCFMaxIt      ....   150
   Startup grad/error   SOSCFStart      ....  0.003300
 Level Shifting         CNVShift        .... on
   Level shift para.    LevelShift      ....    0.2500
   Turn off err/grad.   ShiftErr        ....    0.0010
 Zerner damping         CNVZerner       .... off
 Static damping         CNVDamp         .... on
   Fraction old density DampFac         ....    0.7000
   Max. Damping (<1)    DampMax         ....    0.9800
   Min. Damping (>=0)   DampMin         ....    0.0000
   Turn off err/grad.   DampErr         ....    0.1000
 Fernandez-Rico         CNVRico         .... off

SCF Procedure:
 Maximum # iterations   MaxIter         ....  1000
 SCF integral mode      SCFMode         .... Direct
   Integral package                     .... LIBINT
 Reset frequency        DirectResetFreq ....    20
 Integral Threshold     Thresh          ....  2.500e-11 Eh
 Primitive CutOff       TCut            ....  2.500e-12 Eh

Convergence Tolerance:
 Convergence Check Mode ConvCheckMode   .... Total+1el-Energy
 Convergence forced     ConvForced      .... 0
 Energy Change          TolE            ....  1.000e-08 Eh
 1-El. energy change                    ....  1.000e-05 Eh
 Orbital Gradient       TolG            ....  1.000e-05
 Orbital Rotation angle TolX            ....  1.000e-05
 DIIS Error             TolErr          ....  5.000e-07


Diagonalization of the overlap matrix:
Smallest eigenvalue                        ... 1.572e-03
Time for diagonalization                   ...    0.150 sec
Threshold for overlap eigenvalues          ... 1.000e-08
Number of eigenvalues below threshold      ... 0
Time for construction of square roots      ...    0.774 sec
Total time needed                          ...    0.924 sec

-------------------
DFT GRID GENERATION
-------------------

General Integration Accuracy     IntAcc      ...  4.340
Radial Grid Type                 RadialGrid  ... Gauss-Chebyshev
Angular Grid (max. acc.)         AngularGrid ... Lebedev-110
Angular grid pruning method      GridPruning ... 3 (G Style)
Weight generation scheme         WeightScheme... Becke
Basis function cutoff            BFCut       ...    1.0000e-11
Integration weight cutoff        WCut        ...    1.0000e-14
Grids for H and He will be reduced by one unit

# of grid points (after initial pruning)     ...   6548 (   0.0 sec)
# of grid points (after weights+screening)   ...   6373 (   2.6 sec)
nearest neighbour list constructed           ...    0.0 sec
Grid point re-assignment to atoms done       ...    0.0 sec
Grid point division into batches done        ...    0.0 sec
Reduced shell lists constructed in    0.0 sec

Total number of grid points                  ...     6373
Total number of batches                      ...      103
Average number of points per batch           ...       61
Average number of grid points per atom       ...     1062
Average number of shells per batch           ...    31.50 (82.89%)
Average number of basis functions per batch  ...    72.07 (83.80%)
Average number of large shells per batch     ...    30.29 (96.15%)
Average number of large basis fcns per batch ...    69.14 (95.94%)
Maximum spatial batch extension              ...  18.41, 19.49, 16.66 au
Average spatial batch extension              ...   0.45,  0.47,  0.42 au

Time for grid setup =    3.414 sec

------------------------------
INITIAL GUESS: MODEL POTENTIAL
------------------------------
Loading Hartree-Fock densities                     ... done
Calculating cut-offs                               ... done
Setting up the integral package                    ... done
Initializing the effective Hamiltonian             ... done
Starting the Coulomb interaction                   ... done (   0.0 sec)
Reading the grid                                   ... done
Mapping shells                                     ... done
Starting the XC term evaluation                    ... done (   0.1 sec)
  promolecular density results
     # of electrons  =     17.997732566
     EX              =    -14.444358590
     EC              =     -0.577099341
     EX+EC           =    -15.021457931
Transforming the Hamiltonian                       ... done (   0.0 sec)
Diagonalizing the Hamiltonian                      ... done (   0.1 sec)
Back transforming the eigenvectors                 ... done (   0.0 sec)
Now organizing SCF variables                       ... done
                      ------------------
                      INITIAL GUESS DONE (   4.1 sec)
                      ------------------
--------------
SCF ITERATIONS
--------------
ITER       Energy         Delta-E        Max-DP      RMS-DP      [F,P]     Damp
               ***  Starting incremental Fock matrix formation  ***
  0   -115.6459983678   0.000000000000 0.03626971  0.00148247  0.2493220 0.7000
  1   -115.6838128228  -0.037814454965 0.02169804  0.00105237  0.1253964 0.7000
                               ***Turning on DIIS***
  2   -115.7013721948  -0.017559372087 0.03131815  0.00191773  0.0493906 0.0000
  3   -115.7299093876  -0.028537192726 0.01689962  0.00068512  0.0596846 0.0000
  4   -115.7345230401  -0.004613652571 0.00408168  0.00013190  0.0062814 0.0000
                      *** Initiating the SOSCF procedure ***
                           *** Shutting down DIIS ***
                      *** Re-Reading the Fockian *** 
                      *** Removing any level shift *** 
ITER      Energy       Delta-E        Grad      Rot      Max-DP    RMS-DP
  5   -115.73461702  -0.0000939753  0.000444  0.000444  0.000726  0.000044
               *** Restarting incremental Fock matrix formation ***
  6   -115.73462539  -0.0000083779  0.000159  0.000169  0.000404  0.000026
  7   -115.73462615  -0.0000007522  0.000051  0.000099  0.000195  0.000012
  8   -115.73462620  -0.0000000571  0.000024  0.000018  0.000034  0.000002
  9   -115.73462622  -0.0000000124  0.000010  0.000008  0.000016  0.000001
 10   -115.73462622  -0.0000000013  0.000003  0.000003  0.000004  0.000000
                  ***Gradient check signals convergence***
              ***Rediagonalizing the Fockian in SOSCF/NRSCF***

               *****************************************************
               *                     SUCCESS                       *
               *           SCF CONVERGED AFTER  11 CYCLES          *
               *****************************************************

Setting up the final grid:

General Integration Accuracy     IntAcc      ...  4.670
Radial Grid Type                 RadialGrid  ... Gauss-Chebyshev
Angular Grid (max. acc.)         AngularGrid ... Lebedev-302
Angular grid pruning method      GridPruning ... 3 (G Style)
Weight generation scheme         WeightScheme... Becke
Basis function cutoff            BFCut       ...    1.0000e-11
Integration weight cutoff        WCut        ...    1.0000e-14
Grids for H and He will be reduced by one unit

# of grid points (after initial pruning)     ...  26000 (   0.0 sec)
# of grid points (after weights+screening)   ...  25190 (   0.0 sec)
nearest neighbour list constructed           ...    0.0 sec
Grid point re-assignment to atoms done       ...    0.0 sec
Grid point division into batches done        ...    0.1 sec
Reduced shell lists constructed in    0.1 sec

Total number of grid points                  ...    25190
Total number of batches                      ...      397
Average number of points per batch           ...       63
Average number of grid points per atom       ...     4198
Average number of shells per batch           ...    31.31 (82.40%)
Average number of basis functions per batch  ...    71.67 (83.33%)
Average number of large shells per batch     ...    29.96 (95.68%)
Average number of large basis fcns per batch ...    69.06 (96.36%)
Maximum spatial batch extension              ...  17.10, 14.41, 17.78 au
Average spatial batch extension              ...   0.31,  0.27,  0.33 au

Final grid set up in    0.1 sec
Final integration                            ... done (   0.1 sec)
Change in XC energy                          ...    -0.000094853
Integrated number of electrons               ...    18.000010849
Previous integrated no of electrons          ...    17.999548027

----------------
TOTAL SCF ENERGY
----------------

Total Energy       :         -115.73472107 Eh           -3149.30187 eV

Components:
Nuclear Repulsion  :           40.90988587 Eh            1113.21459 eV
Electronic Energy  :         -156.64460694 Eh           -4262.51646 eV
One Electron Energy:         -238.17617852 Eh           -6481.10331 eV
Two Electron Energy:           81.53157158 Eh            2218.58685 eV

Virial components:
Potential Energy   :         -231.08487319 Eh           -6288.13908 eV
Kinetic Energy     :          115.35015212 Eh            3138.83721 eV
Virial Ratio       :            2.00333393


DFT components:
N(Alpha)           :        9.000005424555 electrons
N(Beta)            :        9.000005424555 electrons
N(Total)           :       18.000010849111 electrons
E(XC)              :      -10.674277297009 Eh       
DFET-embed. en.    :        0.000000000000 Eh       

---------------
SCF CONVERGENCE
---------------

  Last Energy change         ...   -2.4977e-10  Tolerance :   1.0000e-08
  Last MAX-Density change    ...    1.9243e-06  Tolerance :   1.0000e-07
  Last RMS-Density change    ...    9.0725e-08  Tolerance :   5.0000e-09
  Last Orbital Gradient      ...    9.8395e-07  Tolerance :   1.0000e-05
  Last Orbital Rotation      ...    8.0477e-07  Tolerance :   1.0000e-05

             **** THE GBW FILE WAS UPDATED (196_charges.gbw) ****
             **** DENSITY FILE WAS UPDATED (196_charges.scfp.tmp) ****
             **** ENERGY FILE WAS UPDATED (196_charges.en.tmp) ****
----------------
ORBITAL ENERGIES
----------------

  NO   OCC          E(Eh)            E(eV) 
   0   2.0000     -19.231339      -523.3113 
   1   2.0000     -10.306887      -280.4646 
   2   2.0000      -1.146577       -31.1999 
   3   2.0000      -0.798449       -21.7269 
   4   2.0000      -0.620541       -16.8858 
   5   2.0000      -0.539643       -14.6844 
   6   2.0000      -0.530116       -14.4252 
   7   2.0000      -0.439116       -11.9490 
   8   2.0000      -0.372392       -10.1333 
   9   0.0000       0.117156         3.1880 
  10   0.0000       0.157383         4.2826 
  11   0.0000       0.202108         5.4996 
  12   0.0000       0.209425         5.6987 
  13   0.0000       0.233537         6.3549 
  14   0.0000       0.301455         8.2030 
  15   0.0000       0.317049         8.6274 
  16   0.0000       0.410367        11.1666 
  17   0.0000       0.458651        12.4805 
  18   0.0000       0.493097        13.4178 
  19   0.0000       0.530816        14.4442 
  20   0.0000       0.544536        14.8176 
  21   0.0000       0.569862        15.5067 
  22   0.0000       0.602135        16.3849 
  23   0.0000       0.616097        16.7648 
  24   0.0000       0.673715        18.3327 
  25   0.0000       0.771181        20.9849 
  26   0.0000       0.830635        22.6027 
  27   0.0000       0.857641        23.3376 
  28   0.0000       0.991468        26.9792 
  29   0.0000       1.023055        27.8387 
  30   0.0000       1.111969        30.2582 
  31   0.0000       1.382651        37.6239 
  32   0.0000       1.506009        40.9806 
  33   0.0000       1.556615        42.3577 
  34   0.0000       1.583315        43.0842 
  35   0.0000       1.630884        44.3786 
  36   0.0000       1.651428        44.9376 
  37   0.0000       1.662561        45.2406 
  38   0.0000       1.698138        46.2087 
  39   0.0000       1.791465        48.7482 
  40   0.0000       1.948587        53.0238 
  41   0.0000       2.032688        55.3122 
  42   0.0000       2.063347        56.1465 
  43   0.0000       2.088328        56.8263 
  44   0.0000       2.122005        57.7427 
  45   0.0000       2.268218        61.7213 
  46   0.0000       2.337695        63.6119 
  47   0.0000       2.346986        63.8647 
  48   0.0000       2.388265        64.9880 
  49   0.0000       2.466771        67.1242 
  50   0.0000       2.517049        68.4924 
  51   0.0000       2.611639        71.0663 
  52   0.0000       2.647727        72.0483 
  53   0.0000       2.735646        74.4407 
  54   0.0000       2.828153        76.9579 
  55   0.0000       2.874860        78.2289 
  56   0.0000       2.914296        79.3020 
  57   0.0000       2.997517        81.5666 
  58   0.0000       3.105442        84.5034 
  59   0.0000       3.165207        86.1297 
  60   0.0000       3.315838        90.2285 
  61   0.0000       3.386029        92.1385 
  62   0.0000       3.435752        93.4916 
  63   0.0000       3.532329        96.1196 
  64   0.0000       3.616706        98.4156 
  65   0.0000       3.663951        99.7012 
  66   0.0000       3.698563       100.6430 
  67   0.0000       4.027085       109.5826 
  68   0.0000       4.232956       115.1846 
  69   0.0000       4.334103       117.9369 
  70   0.0000       4.426850       120.4607 
  71   0.0000       4.555587       123.9638 
  72   0.0000       5.362592       145.9235 
  73   0.0000       5.451872       148.3530 
  74   0.0000       5.559801       151.2899 
  75   0.0000       5.845891       159.0748 
  76   0.0000       5.866725       159.6417 
  77   0.0000       6.032693       164.1579 
  78   0.0000       6.394885       174.0137 
  79   0.0000       6.531040       177.7186 
  80   0.0000       6.758683       183.9131 
  81   0.0000       6.810383       185.3200 
  82   0.0000       7.035730       191.4519 
  83   0.0000       7.223986       196.5746 
  84   0.0000      22.509217       612.5069 
  85   0.0000      43.663361      1188.1405 

                    ********************************
                    * MULLIKEN POPULATION ANALYSIS *
                    ********************************

-----------------------
MULLIKEN ATOMIC CHARGES
-----------------------
   0 C :   -0.160825
   1 O :   -0.463667
   2 H :    0.312434
   3 H :    0.118463
   4 H :    0.094485
   5 H :    0.099110
Sum of atomic charges:    0.0000000

--------------------------------
MULLIKEN REDUCED ORBITAL CHARGES
--------------------------------
  0 C s       :     3.212713  s :     3.212713
      pz      :     0.888960  p :     2.842249
      px      :     1.068321
      py      :     0.884968
      dz2     :     0.030958  d :     0.097954
      dxz     :     0.017389
      dyz     :     0.009790
      dx2y2   :     0.010348
      dxy     :     0.029469
      f0      :     0.001218  f :     0.007909
      f+1     :     0.000516
      f-1     :     0.002133
      f+2     :     0.000960
      f-2     :     0.001852
      f+3     :     0.000427
      f-3     :     0.000803
  1 O s       :     3.791981  s :     3.791981
      pz      :     1.639702  p :     4.638214
      px      :     1.543701
      py      :     1.454810
      dz2     :     0.006591  d :     0.031764
      dxz     :     0.004981
      dyz     :     0.005731
      dx2y2   :     0.003761
      dxy     :     0.010700
      f0      :     0.000175  f :     0.001709
      f+1     :     0.000203
      f-1     :     0.000391
      f+2     :     0.000239
      f-2     :     0.000219
      f+3     :     0.000113
      f-3     :     0.000369
  2 H s       :     0.639299  s :     0.639299
      pz      :     0.014758  p :     0.048267
      px      :     0.016937
      py      :     0.016573
  3 H s       :     0.860808  s :     0.860808
      pz      :     0.003923  p :     0.020729
      px      :     0.009761
      py      :     0.007044
  4 H s       :     0.886169  s :     0.886169
      pz      :     0.010603  p :     0.019346
      px      :     0.005203
      py      :     0.003540
  5 H s       :     0.880803  s :     0.880803
      pz      :     0.004461  p :     0.020086
      px      :     0.008106
      py      :     0.007519


                     *******************************
                     * LOEWDIN POPULATION ANALYSIS *
                     *******************************

----------------------
LOEWDIN ATOMIC CHARGES
----------------------
   0 C :   -0.404709
   1 O :   -0.051682
   2 H :    0.166185
   3 H :    0.106657
   4 H :    0.094065
   5 H :    0.089484

-------------------------------
LOEWDIN REDUCED ORBITAL CHARGES
-------------------------------
  0 C s       :     2.847902  s :     2.847902
      pz      :     0.991381  p :     3.063024
      px      :     1.105912
      py      :     0.965731
      dz2     :     0.129187  d :     0.433045
      dxz     :     0.063938
      dyz     :     0.081647
      dx2y2   :     0.034750
      dxy     :     0.123523
      f0      :     0.008598  f :     0.060738
      f+1     :     0.005244
      f-1     :     0.015214
      f+2     :     0.008753
      f-2     :     0.011318
      f+3     :     0.004570
      f-3     :     0.007042
  1 O s       :     3.353533  s :     3.353533
      pz      :     1.620169  p :     4.617488
      px      :     1.543987
      py      :     1.453332
      dz2     :     0.016921  d :     0.075601
      dxz     :     0.010014
      dyz     :     0.015040
      dx2y2   :     0.008487
      dxy     :     0.025139
      f0      :     0.000491  f :     0.005060
      f+1     :     0.000677
      f-1     :     0.000998
      f+2     :     0.000747
      f-2     :     0.000682
      f+3     :     0.000339
      f-3     :     0.001125
  2 H s       :     0.673367  s :     0.673367
      pz      :     0.039596  p :     0.160448
      px      :     0.070441
      py      :     0.050412
  3 H s       :     0.831458  s :     0.831458
      pz      :     0.012197  p :     0.061884
      px      :     0.030068
      py      :     0.019619
  4 H s       :     0.846799  s :     0.846799
      pz      :     0.031103  p :     0.059135
      px      :     0.016227
      py      :     0.011805
  5 H s       :     0.847303  s :     0.847303
      pz      :     0.014558  p :     0.063212
      px      :     0.025604
      py      :     0.023051


                      *****************************
                      * MAYER POPULATION ANALYSIS *
                      *****************************

  NA   - Mulliken gross atomic population
  ZA   - Total nuclear charge
  QA   - Mulliken gross atomic charge
  VA   - Mayer's total valence
  BVA  - Mayer's bonded valence
  FA   - Mayer's free valence

  ATOM       NA         ZA         QA         VA         BVA        FA
  0 C      6.1608     6.0000    -0.1608     3.9426     3.9426     0.0000
  1 O      8.4637     8.0000    -0.4637     1.9004     1.9004     0.0000
  2 H      0.6876     1.0000     0.3124     0.9141     0.9141     0.0000
  3 H      0.8815     1.0000     0.1185     0.9597     0.9597     0.0000
  4 H      0.9055     1.0000     0.0945     0.9580     0.9580     0.0000
  5 H      0.9009     1.0000     0.0991     0.9540     0.9540     0.0000

  Mayer bond orders larger than 0.1
B(  0-C ,  1-O ) :   1.0069 B(  0-C ,  3-H ) :   0.9768 B(  0-C ,  4-H ) :   0.9716 
B(  0-C ,  5-H ) :   0.9779 B(  1-O ,  2-H ) :   0.9020 


------------------
HIRSHFELD ANALYSIS
------------------

Total integrated alpha density =      8.999774014
Total integrated beta density  =      8.999774014

  ATOM     CHARGE      SPIN    
   0 C    0.001910    0.000000
   1 O   -0.242097    0.000000
   2 H    0.160305    0.000000
   3 H    0.036713    0.000000
   4 H    0.026041    0.000000
   5 H    0.017580    0.000000

  TOTAL   0.000452    0.000000

-------
TIMINGS
-------

Total SCF time: 0 days 0 hours 0 min 29 sec 

Total time                  ....      29.073 sec
Sum of individual times     ....      25.488 sec  ( 87.7%)

Fock matrix formation       ....      17.553 sec  ( 60.4%)
  XC integration            ....       4.010 sec  ( 22.8% of F)
    Basis function eval.    ....       0.038 sec  (  0.9% of XC)
    Density eval.           ....       0.056 sec  (  1.4% of XC)
    XC-Functional eval.     ....       0.072 sec  (  1.8% of XC)
    XC-Potential eval.      ....       0.043 sec  (  1.1% of XC)
Diagonalization             ....       1.648 sec  (  5.7%)
Density matrix formation    ....       1.076 sec  (  3.7%)
Population analysis         ....       0.036 sec  (  0.1%)
Initial guess               ....       0.727 sec  (  2.5%)
Orbital Transformation      ....       0.000 sec  (  0.0%)
Orbital Orthonormalization  ....       0.000 sec  (  0.0%)
DIIS solution               ....       0.282 sec  (  1.0%)
SOSCF solution              ....       0.632 sec  (  2.2%)
Grid generation             ....       3.533 sec  ( 12.2%)


-------------------------------------------------------------------------------
                          DFT DISPERSION CORRECTION                            
                                                                               
                              DFTD3 V3.1  Rev 1                                
                              USING zero damping                               
-------------------------------------------------------------------------------
The omegaB97X-D3 functional is recognized. Fit by Chai et al.
Active option DFTDOPT                   ...         3   

molecular C6(AA) [au] = 208.646575 


            DFT-D V3
 parameters
 s6 scaling factor         :     1.0000 
 rs6 scaling factor        :     1.2810 
 s8 scaling factor         :     1.0000 
 rs8 scaling factor        :     1.0940 
 Damping factor alpha6     :    14.0000 
 Damping factor alpha8     :    16.0000 
 ad hoc parameters k1-k3   :    16.0000     1.3333    -4.0000 

 Edisp/kcal,au: -0.145955980836  -0.000232595636 
 E6   /kcal   :  -0.027627479 
 E8   /kcal   :  -0.118328502 
 % E8         :  81.071362184 

-------------------------   ----------------
Dispersion correction           -0.000232596
-------------------------   ----------------


-------------------------   --------------------
FINAL SINGLE POINT ENERGY      -115.734953665024
-------------------------   --------------------


                            ***************************************
                            *     ORCA property calculations      *
                            ***************************************

                                    ---------------------
                                    Active property flags
                                    ---------------------
   (+) Dipole Moment


------------------------------------------------------------------------------
                       ORCA ELECTRIC PROPERTIES CALCULATION
------------------------------------------------------------------------------

Dipole Moment Calculation                       ... on
Quadrupole Moment Calculation                   ... off
Polarizability Calculation                      ... off
GBWName                                         ... 196_charges.gbw
Electron density file                           ... 196_charges.scfp.tmp
The origin for moment calculation is the CENTER OF MASS  = (14.374021, -8.356853 15.359502)

-------------
DIPOLE MOMENT
-------------
                                X             Y             Z
Electronic contribution:      0.59017      -1.29239       1.23682
Nuclear contribution   :     -1.18981       1.29783      -1.53304
                        -----------------------------------------
Total Dipole Moment    :     -0.59964       0.00544      -0.29621
                        -----------------------------------------
Magnitude (a.u.)       :      0.66883
Magnitude (Debye)      :      1.70004



--------------------
Rotational spectrum 
--------------------
 
Rotational constants in cm-1:     4.433642     0.856658     0.819653 
Rotational constants in MHz : 132917.228715 25681.965977 24572.570574 

 Dipole components along the rotational axes: 
x,y,z [a.u.] :     0.321054     0.582963     0.066465 
x,y,z [Debye]:     0.816055     1.481774     0.168940 

 
------------------------------------------------------------------------------
                      ORCA CHELPG CHARGES GENERATION
------------------------------------------------------------------------------

GBW file                           ... 196_charges.gbw

Reading the GBW file               ... done

Grid spacing                       ...     0.300000
Point Cut-Off                      ...     2.800000
Van-der-Waals Radii                ...        COSMO
Total charge                       ...            0


Number of points X direction       ...           24
Number of points Y direction       ...           26
Number of points Z direction       ...           25
Maximum number of possible points  ...        15600
Final number of points             ...         5932


CHELPG Charges            
--------------------------------
  0   C   :       0.112488
  1   O   :      -0.599320
  2   H   :       0.401507
  3   H   :       0.072425
  4   H   :       0.002385
  5   H   :       0.010516
--------------------------------
Total charge:    -0.000000
--------------------------------

CHELPG charges calculated...

Timings for individual parts in CHELPG calculation:
Grid generation                 ...        0.002 sec (=   0.000 min)
Potential calculation           ...        0.670 sec (=   0.011 min)
Fit to the potential            ...        0.001 sec (=   0.000 min)
------------------------------------------------------------------------------


Timings for individual modules:

Sum of individual times         ...       40.200 sec (=   0.670 min)
GTO integral calculation        ...        4.938 sec (=   0.082 min)  12.3 %
SCF iterations                  ...       34.526 sec (=   0.575 min)  85.9 %
CHELPG charge generation        ...        0.737 sec (=   0.012 min)   1.8 %
                             ****ORCA TERMINATED NORMALLY****
TOTAL RUN TIME: 0 days 0 hours 0 minutes 42 seconds 137 msec
