LAMMPS data file via vdw_self_gen.py, on 2021-08-05 13:22:09.049355

5500 atoms
5 atom types
5000 bonds
4 bond types
9000 angles
7 angle types
9000 dihedrals
4 dihedral types

-40.5343593976632803  40.5343593976632803 xlo xhi
-40.5343593976632803  40.5343593976632803 ylo yhi
-40.5343593976632803  40.5343593976632803 zlo zhi

Masses

1  35.452700
2  1.007940
3  1.007940
4  12.011000
5  12.011000

Atoms

1         0    1   -0.1873450000000000   6.1594230228125442  -31.9067221282942519 -6.1465482622516348  0 0 0
2         0    5   -0.0790670000000000   5.7994444077447866  -31.4808191277273508 -4.4570756944358658  0 0 0
3         0    4    0.1662840000000000   4.4190427804281054  -31.9700851480594466 -4.0305446280997188  0 0 0
4         0    5   -0.0790670000000000   3.2510679417846768  -31.3487465180118505 -4.7896272278913568  0 0 0
5         0    1   -0.1873450000000000   3.1437786660621683  -29.5938317901572461 -4.5179939913867990  0 0 0
6         0    2    0.0846130000000000   5.9067213429435368  -30.3986843850855060 -4.3488102329911849  0 0 0
7         0    2    0.0846130000000000   6.5673675101608522  -31.9557411838960519 -3.8378799579839917  0 0 0
8         0    3    0.0140440000000000   4.2958176892463973  -31.7732533561314199 -2.9580633993643803  0 0 0
9         0    3    0.0140440000000000   4.3715094933408931  -33.0594888010385475 -4.1487345468511565  0 0 0
10        0    2    0.0846130000000000   2.3095034348902477  -31.7840539038611070 -4.4399262240584587  0 0 0
11        0    2    0.0846130000000000   3.3183185299520188  -31.5225373933008157 -5.8667906540516785  0 0 0
12        1    1   -0.1873450000000000  -12.1203985968083927 -15.3724991656878753  22.0884307429813944 0 0 0
13        1    5   -0.0790670000000000  -13.1419406519958901 -14.0814776844236533  21.4138857919235477 0 0 0
14        1    4    0.1662840000000000  -13.2901994108646822 -12.9115816112830526  22.3814503429323608 0 0 0
15        1    5   -0.0790670000000000  -13.9926437565195485 -13.2444370351978762  23.6937812913702857 0 0 0
16        1    1   -0.1873450000000000  -15.6781402431129351 -13.7502825559783215  23.4325472800170331 0 0 0
17        1    2    0.0846130000000000  -14.1060347582211758 -14.5179529112001759  21.1413838966052801 0 0 0
18        1    2    0.0846130000000000  -12.6580444662335267 -13.7402471708333902  20.4929805694931595 0 0 0
19        1    3    0.0140440000000000  -13.8385186650798175 -12.1076066563970244  21.8743868057173820 0 0 0
20        1    3    0.0140440000000000  -12.2969481029048602 -12.5066909949838188  22.6106751615470252 0 0 0
21        1    2    0.0846130000000000  -14.0213197421634241 -12.3564345383928078  24.3332781923911732 0 0 0
22        1    2    0.0846130000000000  -13.4817960641944214 -14.0367741337206837  24.2471740218524943 0 0 0
23        2    1   -0.1873450000000000  -4.1709413958997459   2.1680951920536424  -22.6516965608001364 0 0 0
24        2    5   -0.0790670000000000  -3.8856288332874493   3.6697332396089264  -21.7412156755807082 0 0 0
25        2    4    0.1662840000000000  -4.9204617079832467   4.7399684561699802  -22.0736854404937652 0 0 0
26        2    5   -0.0790670000000000  -4.9115881929281775   5.2185538372095266  -23.5218948880481591 0 0 0
27        2    1   -0.1873450000000000  -3.3779544570122351   6.0138384838464001  -23.9467609855237917 0 0 0
28        2    2    0.0846130000000000  -2.8651685803655171   4.0029392041253056  -21.9458617349544802 0 0 0
29        2    2    0.0846130000000000  -3.9463644387785419   3.4146300011844426  -20.6782510784886995 0 0 0
30        2    3    0.0140440000000000  -4.7584165698458287   5.5990600950115388  -21.4104765045779821 0 0 0
31        2    3    0.0140440000000000  -5.9212750773157907   4.3573553772916878  -21.8391466994795991 0 0 0
32        2    2    0.0846130000000000  -5.7061557846546220   5.9563779941844563  -23.6722441097364467 0 0 0
33        2    2    0.0846130000000000  -5.0780397812950797   4.4014429386803169  -24.2287404191473712 0 0 0
34        3    1   -0.1873450000000000   3.2673359922564762  -6.4306343754091957  -21.9338691850996241 0 0 0
35        3    5   -0.0790670000000000   3.4005352331339194  -4.6582818280378051  -21.8543711558422160 0 0 0
36        3    4    0.1662840000000000   4.2682606055217347  -4.1036379792003670  -22.9796451317970600 0 0 0
37        3    5   -0.0790670000000000   5.7260074213009649  -4.5515202246657207  -22.9512017585366301 0 0 0
38        3    1   -0.1873450000000000   6.5663543914514531  -3.9776970853140532  -21.4918987466835425 0 0 0
39        3    2    0.0846130000000000   3.7826394280901905  -4.3898608585588743  -20.8663469053600714 0 0 0
40        3    2    0.0846130000000000   2.3850420247284236  -4.2580095611889588  -21.9393174139940754 0 0 0
41        3    3    0.0140440000000000   4.2284218669960527  -3.0076640797969194  -22.9422653225535811 0 0 0
42        3    3    0.0140440000000000   3.8336238310340791  -4.3924978523677511  -23.9443624154282197 0 0 0
43        3    2    0.0846130000000000   6.2581549463112003  -4.1329482233069239  -23.8114014587248910 0 0 0
44        3    2    0.0846130000000000   5.8256190785417346  -5.6392427515196637  -22.9952946028112315 0 0 0
45        4    1   -0.1873450000000000  -4.2379359805702004  -24.2371340650376297 -29.9262185127816380 0 0 0
46        4    5   -0.0790670000000000  -3.9825138882163720  -22.5254611152264914 -30.3388088595209062 0 0 0
47        4    4    0.1662840000000000  -4.9491523931220813  -22.0522059787789217 -31.4197613184938476 0 0 0
48        4    5   -0.0790670000000000  -4.8002170175154193  -22.7485592726001684 -32.7685917949723446 0 0 0
49        4    1   -0.1873450000000000  -3.2103997423498329  -22.4355108331093227 -33.5031004824753751 0 0 0
50        4    2    0.0846130000000000  -2.9378284302887523  -22.3988264144119427 -30.6334973369749122 0 0 0
51        4    2    0.0846130000000000  -4.1426539951323420  -21.9490494030421921 -29.4218765310943695 0 0 0
52        4    3    0.0140440000000000  -4.8164208450889525  -20.9715835969792295 -31.5568042588821811 0 0 0
53        4    3    0.0140440000000000  -5.9784685998360505  -22.1914002679851770 -31.0673954775723331 0 0 0
54        4    2    0.0846130000000000  -5.5541971645033730  -22.3692078988472467 -33.4656811049461780 0 0 0
55        4    2    0.0846130000000000  -4.9322067627428581  -23.8310352508128176 -32.6922280578495048 0 0 0
56        5    1   -0.1873450000000000  -32.7804572272432679 -22.2690390504970495 -29.5393590397769685 0 0 0
57        5    5   -0.0790670000000000  -32.5704950462672187 -23.1429603910387840 -31.0747654679599137 0 0 0
58        5    4    0.1662840000000000  -31.1396871432198168 -23.0420074431908120 -31.5938183446477403 0 0 0
59        5    5   -0.0790670000000000  -30.6784561016143016 -21.6311331457361717 -31.9447213985549006 0 0 0
60        5    1   -0.1873450000000000  -31.6274502523339187 -20.9375045712768362 -33.2801280064812914 0 0 0
61        5    2    0.0846130000000000  -33.2988162318550565 -22.7533165138523117 -31.7902871320589142 0 0 0
62        5    2    0.0846130000000000  -32.8204154599647708 -24.1912772290659284 -30.8818100207032629 0 0 0
63        5    3    0.0140440000000000  -31.0448318345976517 -23.6818142145570931 -32.4802679648405856 0 0 0
64        5    3    0.0140440000000000  -30.4551277022185545 -23.4560043944601340 -30.8434760990852617 0 0 0
65        5    2    0.0846130000000000  -29.6345581959334687 -21.6545428905988615 -32.2734403959685494 0 0 0
66        5    2    0.0846130000000000  -30.7436685403155572 -20.9503742525571504 -31.0918898654861984 0 0 0
67        6    1   -0.1873450000000000  -13.6913606919249276 -2.2830000495075771   5.2909602611044342  0 0 0
68        6    5   -0.0790670000000000  -13.3154877283005888 -3.3593952659236250   3.9251680441501500  0 0 0
69        6    4    0.1662840000000000  -13.9631500202989081 -4.7307339915039064   4.0888210219640060  0 0 0
70        6    5   -0.0790670000000000  -13.4793187688067402 -5.5335596537304088   5.2920714474158750  0 0 0
71        6    1   -0.1873450000000000  -11.7496159051550695 -5.9313944718258425   5.1701010949272961  0 0 0
72        6    2    0.0846130000000000  -12.2285640365776942 -3.4234899261856819   3.8317115564280573  0 0 0
73        6    2    0.0846130000000000  -13.6999296050926596 -2.8746581871796320   3.0218991923904257  0 0 0
74        6    3    0.0140440000000000  -13.7853471000531265 -5.3111866842018634   3.1747072672858723  0 0 0
75        6    3    0.0140440000000000  -15.0503214000530381 -4.6078162689758004   4.1661399325357369  0 0 0
76        6    2    0.0846130000000000  -14.0221642386626595 -6.4826504193225274   5.3456675986272648  0 0 0
77        6    2    0.0846130000000000  -13.6407249631732750 -5.0041099010093646   6.2347474025371152  0 0 0
78        7    1   -0.1873450000000000   11.5487897581027887  30.2904179838882079  4.0527177420784204  0 0 0
79        7    5   -0.0790670000000000   13.2584969190526056  30.2549640961848070  4.5435741082830612  0 0 0
80        7    4    0.1662840000000000   13.7099326230619720  31.5915958042814005  5.1236086968692565  0 0 0
81        7    5   -0.0790670000000000   13.6640998402748277  32.7656745199003012  4.1510492715626750  0 0 0
82        7    1   -0.1873450000000000   14.7798947232190283  32.5369920513064059  2.7844010309194038  0 0 0
83        7    2    0.0846130000000000   13.8548786924724059  29.9569443031251801  3.6776882408170679  0 0 0
84        7    2    0.0846130000000000   13.3564466870103864  29.4712331819661308  5.3017508078425877  0 0 0
85        7    3    0.0140440000000000   14.7335493849295531  31.4788589337265030  5.5026103937535966  0 0 0
86        7    3    0.0140440000000000   13.0871706754053676  31.8347388063388834  5.9931359399740494  0 0 0
87        7    2    0.0846130000000000   13.9712409568745510  33.6827106281090423  4.6639197655816185  0 0 0
88        7    2    0.0846130000000000   12.6614841976951915  32.9298334267367352  3.7475388216844925  0 0 0
89        8    1   -0.1873450000000000  -30.2472572010860041 -30.7484371633053719 -20.6911865824562469 0 0 0
90        8    5   -0.0790670000000000  -30.8097381708827278 -30.4582697622573768 -22.3539293661078808 0 0 0
91        8    4    0.1662840000000000  -32.0904868727472419 -31.2274906293564278 -22.6618265278222353 0 0 0
92        8    5   -0.0790670000000000  -31.9589590499318419 -32.7462599734314850 -22.6120930227852703 0 0 0
93        8    1   -0.1873450000000000  -30.8326264033466124 -33.3538781761470489 -23.8478908197023181 0 0 0
94        8    2    0.0846130000000000  -29.9973441813559418 -30.7164063284112281 -23.0377618537794078 0 0 0
95        8    2    0.0846130000000000  -30.9936294236838457 -29.3828648426405614 -22.4452993650527581 0 0 0
96        8    3    0.0140440000000000  -32.4447243656936948 -30.9300140071068270 -23.6568976917125262 0 0 0
97        8    3    0.0140440000000000  -32.8718674582892376 -30.9219682987907625 -21.9553358516885986 0 0 0
98        8    2    0.0846130000000000  -32.9311596927432930 -33.2082041939990376 -22.8114933239415905 0 0 0
99        8    2    0.0846130000000000  -31.6161709158031492 -33.1001703601174668 -21.6362596917822998 0 0 0
100       9    1   -0.1873450000000000   14.9249508431148001 -24.3630369075372286 -31.9578502938202504 0 0 0
101       9    5   -0.0790670000000000   14.3804198152519032 -23.1377767809129793 -30.7884405673345825 0 0 0
102       9    4    0.1662840000000000   12.9951623011264825 -22.6004032566533333 -31.1335636712900232 0 0 0
103       9    5   -0.0790670000000000   12.9032691260799872 -21.8594092684893155 -32.4635700111563636 0 0 0
104       9    1   -0.1873450000000000   13.9051266679519134 -20.3893010733606062 -32.4727714409233030 0 0 0
105       9    2    0.0846130000000000   15.1333149990269362 -22.3466649629898129 -30.7492450830201882 0 0 0
106       9    2    0.0846130000000000   14.3546852508687639 -23.6226608567600671 -29.8071733377350547 0 0 0
107       9    3    0.0140440000000000   12.6700335617961244 -21.9316610847136850 -30.3265826468966999 0 0 0
108       9    3    0.0140440000000000   12.2803137288646909 -23.4321582931571442 -31.1478348795714695 0 0 0
109       9    2    0.0846130000000000   11.8702725897256087 -21.5428494230708054 -32.6397376956176686 0 0 0
110       9    2    0.0846130000000000   13.2084355742914692 -22.4840521891861620 -33.3071941081979901 0 0 0
111       10   1   -0.1873450000000000  -21.8158740393166468  31.0126902632642363  2.3071725648474821  0 0 0
112       10   5   -0.0790670000000000  -23.0071382779945175  31.8345572686393830  3.3419284132111917  0 0 0
113       10   4    0.1662840000000000  -22.4429657335014454  32.1369301452540412  4.7265217200807577  0 0 0
114       10   5   -0.0790670000000000  -22.0694532584438328  30.9107165666720825  5.5531546500306632  0 0 0
115       10   1   -0.1873450000000000  -23.4889234188860314  29.9036922827791436  5.9219742009822287  0 0 0
116       10   2    0.0846130000000000  -23.9046334426577864  31.2127238052677818  3.3874358349939051  0 0 0
117       10   2    0.0846130000000000  -23.2745063903133271  32.7698764727149907  2.8395814318303438  0 0 0
118       10   3    0.0140440000000000  -23.1796039029373482  32.7326467731148369  5.2802626974522040  0 0 0
119       10   3    0.0140440000000000  -21.5539324510749388  32.7707139990512957  4.6218009542134055  0 0 0
120       10   2    0.0846130000000000  -21.6443201494377249  31.2263239160247927  6.5112678341385477  0 0 0
121       10   2    0.0846130000000000  -21.3286230322675330  30.2830922427810023  5.0508945175854976  0 0 0
122       11   1   -0.1873450000000000   33.0147002612082403 -11.7408927949688433  32.0115268996138553 0 0 0
123       11   5   -0.0790670000000000   31.3548412320409575 -12.2274251089078749  31.5950538063833726 0 0 0
124       11   4    0.1662840000000000   31.0779240451860304 -13.6793798263962216  31.9718335986861177 0 0 0
125       11   5   -0.0790670000000000   31.9253091515199259 -14.7106080839608353  31.2336330347715787 0 0 0
126       11   1   -0.1873450000000000   31.6100702443041364 -14.6952666667125680  29.4828016956088916 0 0 0
127       11   2    0.0846130000000000   31.2027961592779484 -12.0401837958036015  30.5291887404789435 0 0 0
128       11   2    0.0846130000000000   30.6802892483489416 -11.5667960179707929  32.1493182163943487 0 0 0
129       11   3    0.0140440000000000   30.0164850227928923 -13.8900431826796531  31.7898684496588970 0 0 0
130       11   3    0.0140440000000000   31.2343571920940875 -13.8070217978361836  33.0499174484285021 0 0 0
131       11   2    0.0846130000000000   31.6811557572571161 -15.7153254328318077  31.5931593924251253 0 0 0
132       11   2    0.0846130000000000   32.9960354215333211 -14.5530417500302978  31.3876624531139647 0 0 0
133       12   1   -0.1873450000000000   24.8155286130919706 -4.3465072048789795   23.0535112990622721 0 0 0
134       12   5   -0.0790670000000000   23.4480445144291352 -3.6886325255909806   22.1248113082923830 0 0 0
135       12   4    0.1662840000000000   22.1072368543816289 -4.0533852613055190   22.7541036906129577 0 0 0
136       12   5   -0.0790670000000000   21.7982083508460676 -5.5464647284287016   22.7947041716165444 0 0 0
137       12   1   -0.1873450000000000   21.6636669302025133 -6.2391565654658150   21.1615789679247506 0 0 0
138       12   2    0.0846130000000000   23.5328836512521633 -4.0455489981957671   21.0954142495019212 0 0 0
139       12   2    0.0846130000000000   23.5659240215964978 -2.6002479478026017   22.1112598020146578 0 0 0
140       12   3    0.0140440000000000   21.3116119705999800 -3.5367646169794131   22.2025356371839031 0 0 0
141       12   3    0.0140440000000000   22.0726520151985000 -3.6622984617550474   23.7782538717465854 0 0 0
142       12   2    0.0846130000000000   20.8369249475612470 -5.7115977210956359   23.2916874170101984 0 0 0
143       12   2    0.0846130000000000   22.5572922276714358 -6.1113907878677658   23.3421136818649693 0 0 0
144       13   1   -0.1873450000000000   6.8355113410002488  -13.2405237334923527  31.2550747810013583 0 0 0
145       13   5   -0.0790670000000000   5.2124776766520258  -13.0044541125961306  30.5656341489798038 0 0 0
146       13   4    0.1662840000000000   4.1350223464166893  -12.9844886989457073  31.6452220497573364 0 0 0
147       13   5   -0.0790670000000000   3.9814913915463919  -14.2845582248264282  32.4279613320045570 0 0 0
148       13   1   -0.1873450000000000   3.4624506658130878  -15.6283276076224737  31.3839776746659069 0 0 0
149       13   2    0.0846130000000000   5.0406838098566062  -13.7883591384111597  29.8238625331617051 0 0 0
150       13   2    0.0846130000000000   5.2260464207383510  -12.0444799451164162  30.0393968473225073 0 0 0
151       13   3    0.0140440000000000   3.1758649382092954  -12.7326735666316591  31.1753823230222160 0 0 0
152       13   3    0.0140440000000000   4.3504662552981381  -12.1748142242769628  32.3530636680560733 0 0 0
153       13   2    0.0846130000000000   3.2132137138886332  -14.1636784547585606  33.1983278188802089 0 0 0
154       13   2    0.0846130000000000   4.9087662599467654  -14.5796267514208253  32.9260605587119244 0 0 0
155       14   1   -0.1873450000000000  -14.5429407356715590  31.2815915988599009  33.6385797124127777 0 0 0
156       14   5   -0.0790670000000000  -13.3920066290430118  32.1928716197683471  32.6334852231769474 0 0 0
157       14   4    0.1662840000000000  -13.6849231140826753  32.0290202180012216  31.1454760522270568 0 0 0
158       14   5   -0.0790670000000000  -13.5433379599770696  30.6069073970662480  30.6125763629146448 0 0 0
159       14   1   -0.1873450000000000  -11.8720849734425045  30.0124245231691731  30.7486824742483336 0 0 0
160       14   2    0.0846130000000000  -12.3815518848714756  31.8687362578295357  32.8945653436802274 0 0 0
161       14   2    0.0846130000000000  -13.4874720960400918  33.2465795780466422  32.9149920507531277 0 0 0
162       14   3    0.0140440000000000  -13.0145678288834041  32.6915880083367583  30.5835411109613560 0 0 0
163       14   3    0.0140440000000000  -14.7038083532710608  32.3787576509198090  30.9391142660854648 0 0 0
164       14   2    0.0846130000000000  -13.8052759527239530  30.5825600053054920  29.5499744970353433 0 0 0
165       14   2    0.0846130000000000  -14.1980149300918885  29.9029268782604625  31.1329766420683107 0 0 0
166       15   1   -0.1873450000000000   11.8339041689521682  5.8215332514906422   30.5101382993204382 0 0 0
167       15   5   -0.0790670000000000   13.1583765982668304  5.7406969624512509   31.6952685896090820 0 0 0
168       15   4    0.1662840000000000   14.1378024813069736  4.6158536663660552   31.3754699955170295 0 0 0
169       15   5   -0.0790670000000000   13.5481572094846996  3.2104126118792715   31.4345225651538982 0 0 0
170       15   1   -0.1873450000000000   12.9962070511910550  2.7925483880927309   33.0733519702900480 0 0 0
171       15   2    0.0846130000000000   12.7186320901368664  5.6362141203487379   32.6902326369372744 0 0 0
172       15   2    0.0846130000000000   13.6775527044884502  6.7039408142235377   31.6595241711435982 0 0 0
173       15   3    0.0140440000000000   14.9823909695650457  4.6806482755377186   32.0730480252199683 0 0 0
174       15   3    0.0140440000000000   14.5554621586942812  4.7768369197582805   30.3741341999858854 0 0 0
175       15   2    0.0846130000000000   14.3124715022281830  2.4769925374276394   31.1583963454655439 0 0 0
176       15   2    0.0846130000000000   12.7050275237841266  3.0863172717903629   30.7498769369208169 0 0 0
177       16   1   -0.1873450000000000   23.3540253484032796  23.0805993181842624 -15.6495778765883102 0 0 0
178       16   5   -0.0790670000000000   22.8172040695079481  23.6586969753526368 -14.0549238263624918 0 0 0
179       16   4    0.1662840000000000   22.9154343662282152  22.5675974555007102 -12.9934760940246399 0 0 0
180       16   5   -0.0790670000000000   22.0208515024215039  21.3550056017025938 -13.2296451141899158 0 0 0
181       16   1   -0.1873450000000000   20.2955567014267935  21.7868617323758507 -13.1862926291335114 0 0 0
182       16   2    0.0846130000000000   21.8003601260797026  24.0455498528090423 -14.1579704086298115 0 0 0
183       16   2    0.0846130000000000   23.4672026168659684  24.4970781998583895 -13.7842228445972115 0 0 0
184       16   3    0.0140440000000000   22.6734441031081673  23.0079495698784200 -12.0179383493329404 0 0 0
185       16   3    0.0140440000000000   23.9552942143327208  22.2255276321705431 -12.9248588828677544 0 0 0
186       16   2    0.0846130000000000   22.1847158067968877  20.6152771869229738 -12.4395328468385014 0 0 0
187       16   2    0.0846130000000000   22.2258852416599559  20.8698305720757062 -14.1875455855335986 0 0 0
188       17   1   -0.1873450000000000  -23.9112204148010044 -33.1502627008935065  5.5088461187962583  0 0 0
189       17   5   -0.0790670000000000  -22.8322232485133121 -31.7549993805513537  5.7418716724398280  0 0 0
190       17   4    0.1662840000000000  -22.7226368292123553 -30.9056579294560514  4.4795608715448383  0 0 0
191       17   5   -0.0790670000000000  -22.1032169888234833 -31.6121507988524115  3.2780534029768247  0 0 0
192       17   1   -0.1873450000000000  -20.4133627670515807 -32.0775641656911077  3.5826915703616109  0 0 0
193       17   2    0.0846130000000000  -21.8607257360098330 -32.1282261890449874  6.0752478635830993  0 0 0
194       17   2    0.0846130000000000  -23.2562116790868920 -31.1561604121340814  6.5544514601189690  0 0 0
195       17   3    0.0140440000000000  -22.1332996433408269 -30.0098315561945057  4.7126272863670700  0 0 0
196       17   3    0.0140440000000000  -23.7212002504029549 -30.5498061098655107  4.1980130678698080  0 0 0
197       17   2    0.0846130000000000  -22.0982011405474665 -30.9384451320934311  2.4152541512717152  0 0 0
198       17   2    0.0846130000000000  -22.6576753990414339 -32.5108593607866538  2.9953773540362008  0 0 0
199       18   1   -0.1873450000000000  -30.1725515383689604 -20.7152201347248806 -12.8069909663910870 0 0 0
200       18   5   -0.0790670000000000  -30.8894898142353824 -21.6024854816044183 -14.1722950495258253 0 0 0
201       18   4    0.1662840000000000  -32.1229620530718947 -22.3939909080217845 -13.7493481995889457 0 0 0
202       18   5   -0.0790670000000000  -31.8628045279586303 -23.4987945559532037 -12.7304466970655845 0 0 0
203       18   1   -0.1873450000000000  -30.7935824559787221 -24.7622777719167821 -13.3826703011074333 0 0 0
204       18   2    0.0846130000000000  -30.1164170920101917 -22.2414548382845148 -14.6062559689357929 0 0 0
205       18   2    0.0846130000000000  -31.1683869047418760 -20.8581306551193748 -14.9251645706883025 0 0 0
206       18   3    0.0140440000000000  -32.5797484211518764 -22.8322783815101893 -14.6456703893842501 0 0 0
207       18   3    0.0140440000000000  -32.8673150949377941 -21.7042331267006325 -13.3331735468625752 0 0 0
208       18   2    0.0846130000000000  -32.8064248301350787 -23.9854592540435405 -12.4638660716385719 0 0 0
209       18   2    0.0846130000000000  -31.4142810029731834 -23.1156489889518149 -11.8101026969103007 0 0 0
210       19   1   -0.1873450000000000  -32.0906652533849268 -30.5267206818178707 -11.4460343235485400 0 0 0
211       19   5   -0.0790670000000000  -31.7811263416059830 -30.2977648239002875 -13.1830030635723503 0 0 0
212       19   4    0.1662840000000000  -31.9882266025110447 -31.5874051713133248 -13.9708837005710347 0 0 0
213       19   5   -0.0790670000000000  -31.0392852084474740 -32.7249993852323584 -13.6078094033664243 0 0 0
214       19   1   -0.1873450000000000  -29.3461209136826469 -32.3152504122777628 -13.9688104504510431 0 0 0
215       19   2    0.0846130000000000  -30.7699277332538372 -29.8998675525584048 -13.2987635409614793 0 0 0
216       19   2    0.0846130000000000  -32.4824066969818546 -29.5337533860641308 -13.5339341062565293 0 0 0
217       19   3    0.0140440000000000  -31.8867682803389165 -31.3624117341946125 -15.0401017912875741 0 0 0
218       19   3    0.0140440000000000  -33.0189223505567639 -31.9342384844909795 -13.8280498207291007 0 0 0
219       19   2    0.0846130000000000  -31.2852713578063764 -33.6139588922168713 -14.1973590977649629 0 0 0
220       19   2    0.0846130000000000  -31.1052429969937698 -32.9975932114969979 -12.5512351595896341 0 0 0
221       20   1   -0.1873450000000000   32.9167897100676896 -6.3702547992646519  -31.1166982948979687 0 0 0
222       20   5   -0.0790670000000000   32.2191486198228461 -4.8588794978960168  -30.4887356095297761 0 0 0
223       20   4    0.1662840000000000   30.9442327242307584 -4.4712188952665635  -31.2311151339211790 0 0 0
224       20   5   -0.0790670000000000   31.1285122289240483 -4.1652919714861874  -32.7139782738151723 0 0 0
225       20   1   -0.1873450000000000   32.1757837815141059 -2.7506278535837128  -32.9727620340375651 0 0 0
226       20   2    0.0846130000000000   32.9845955758849243 -4.0810737565280411  -30.5466539861498987 0 0 0
227       20   2    0.0846130000000000   31.9939091094749770 -5.0270675202210722  -29.4306051058466878 0 0 0
228       20   3    0.0140440000000000   30.5051429733344364 -3.5960802635108955  -30.7356600610168620 0 0 0
229       20   3    0.0140440000000000   30.2098900843600120 -5.2797203296639736  -31.1306417183078530 0 0 0
230       20   2    0.0846130000000000   30.1594084711356913 -3.9320991850702858  -33.1665112161564437 0 0 0
231       20   2    0.0846130000000000   31.5565504568141115 -5.0096807468748352  -33.2606023018841981 0 0 0
232       21   1   -0.1873450000000000  -23.6145370492326272 -2.7346046342360015  -23.6388514281122006 0 0 0
233       21   5   -0.0790670000000000  -23.0730860745289341 -4.4285760847818487  -23.6897149054608356 0 0 0
234       21   4    0.1662840000000000  -22.8746755955539065 -5.0028972024051459  -22.2905697458777290 0 0 0
235       21   5   -0.0790670000000000  -21.7855630039950370 -4.3269545880431330  -21.4639085969192358 0 0 0
236       21   1   -0.1873450000000000  -20.1775549436441608 -4.5258574606668818  -22.1985983484529363 0 0 0
237       21   2    0.0846130000000000  -22.1610727778114374 -4.4762991583885396  -24.2898812216232898 0 0 0
238       21   2    0.0846130000000000  -23.8483066620711845 -4.9955384707630257  -24.2153068614810643 0 0 0
239       21   3    0.0140440000000000  -22.6446196948519898 -6.0719157508607200  -22.3823128056161416 0 0 0
240       21   3    0.0140440000000000  -23.8205576417045322 -4.9401235482289740  -21.7388495155876988 0 0 0
241       21   2    0.0846130000000000  -21.7405513691435068 -4.7818474546208964  -20.4692360550419465 0 0 0
242       21   2    0.0846130000000000  -21.9694492842938160 -3.2573804663710417  -21.3327446126580575 0 0 0
243       22   1   -0.1873450000000000  -5.4182543932027922   6.6338559346576442  -13.9705107851094450 0 0 0
244       22   5   -0.0790670000000000  -5.5675906620948066   4.8708340869976130  -14.1569193956047670 0 0 0
245       22   4    0.1662840000000000  -4.8005773797828795   4.1189457212920288  -13.0737882160269283 0 0 0
246       22   5   -0.0790670000000000  -3.2902175466066383   4.3312456289623498  -13.0870258038364664 0 0 0
247       22   1   -0.1873450000000000  -2.5491260358473253   3.7206711206215375  -14.5846918040998332 0 0 0
248       22   2    0.0846130000000000  -5.2312863543474677   4.6053809639479848  -15.1622449171418356 0 0 0
249       22   2    0.0846130000000000  -6.6338333678018735   4.6320208779656467  -14.0879632180836953 0 0 0
250       22   3    0.0140440000000000  -5.0136015652523476   3.0473814124286536  -13.1763249985745858 0 0 0
251       22   3    0.0140440000000000  -5.1854721471509295   4.4142659874868571  -12.0900857468690432 0 0 0
252       22   2    0.0846130000000000  -2.8325400214979624   3.7825846170228608  -12.2576709883998500 0 0 0
253       22   2    0.0846130000000000  -3.0194953457811966   5.3848084679830679  -12.9787585843522368 0 0 0
254       23   1   -0.1873450000000000  -23.6769465414465010 -33.1470260326810475 -14.7834505129618314 0 0 0
255       23   5   -0.0790670000000000  -22.2074368222069261 -32.7340371140359565 -13.8695156877490273 0 0 0
256       23   4    0.1662840000000000  -22.4598365735380909 -31.6133718684217015 -12.8659109773673386 0 0 0
257       23   5   -0.0790670000000000  -22.8607080623686088 -30.2757178716308957 -13.4794394155936317 0 0 0
258       23   1   -0.1873450000000000  -21.5684564467756417 -29.6016805210982490 -14.4996260249863962 0 0 0
259       23   2    0.0846130000000000  -21.4219569522292268 -32.4794312959783156 -14.5853666523156882 0 0 0
260       23   2    0.0846130000000000  -21.8955871058802600 -33.6404390765125569 -13.3405114840364831 0 0 0
261       23   3    0.0140440000000000  -21.5533269453709408 -31.4748718129319762 -12.2632492214299038 0 0 0
262       23   3    0.0140440000000000  -23.2459500825980356 -31.9262863773981280 -12.1679577910106094 0 0 0
263       23   2    0.0846130000000000  -23.0528954973385467 -29.5474755295693861 -12.6850502704208061 0 0 0
264       23   2    0.0846130000000000  -23.7668730670783646 -30.3536262353053807 -14.0859064202269799 0 0 0
265       24   1   -0.1873450000000000  -14.1068468797885913 -15.0885155477439721 -11.8554423736445322 0 0 0
266       24   5   -0.0790670000000000  -12.8000516266134134 -14.2012202193014243 -12.6741539791582341 0 0 0
267       24   4    0.1662840000000000  -13.3069905718974439 -12.9185907868319578 -13.3258389387954654 0 0 0
268       24   5   -0.0790670000000000  -14.3261314380299716 -13.1211437108468800 -14.4424219039850890 0 0 0
269       24   1   -0.1873450000000000  -13.6322845538814139 -14.0097664295787308 -15.8186295449357424 0 0 0
270       24   2    0.0846130000000000  -12.3316092480838719 -14.8749934551722625 -13.3958441597909825 0 0 0
271       24   2    0.0846130000000000  -12.0532189859241523 -13.9579202523267014 -11.9114572218744481 0 0 0