LAMMPS data file via vdw_self_gen.py, on 2021-08-05 13:21:27.373467

9000 atoms
9 atom types
8500 bonds
11 bond types
15000 angles
18 angle types
17000 dihedrals
16 dihedral types

-51.9563160656360949  51.9563160656360949 xlo xhi
-51.9563160656360949  51.9563160656360949 ylo yhi
-51.9563160656360949  51.9563160656360949 zlo zhi

Masses

1  1.007940
2  1.007940
3  1.007940
4  12.011000
5  12.011000
6  12.011000
7  12.011000
8  12.011000
9  12.011000

Atoms

1         0    9    0.0300360000000000  -26.8122628199326662  26.3584912461507841 -5.1386226502044137  0 0 0
2         0    4   -0.2600820000000000  -27.8160206877088534  27.4326340034169611 -4.8423656697127866  0 0 0
3         0    1    0.0285690000000000  -26.5463897153521273  26.3238967832341366 -6.2169840144957238  0 0 0
4         0    1    0.0285690000000000  -27.2325107662176613  25.3743216103346363 -4.8449056903931726  0 0 0
5         0    1    0.0285690000000000  -25.8898578850501124  26.5480759935955568 -4.5515183628409028  0 0 0
6         0    8   -0.2800920000000000  -28.3048922957166909  28.2315210660526539 -5.8012781395645181  0 0 0
7         0    7    0.1076650000000000  -29.3113076096888889  29.2997668520777523 -5.4694420527055696  0 0 0
8         0    6   -0.0058890000000000  -29.7222002537690742  30.0825694535294375 -6.7210843397833395  0 0 0
9         0    2    0.0140440000000000  -28.8654208077763137  29.9979437573603853 -4.7273501928188448  0 0 0
10        0    2    0.0140440000000000  -30.2102016514267824  28.8222515943814983 -5.0211944508208584  0 0 0
11        0    5   -0.1079060000000000  -30.7428339071549743  31.1655175708089551 -6.3833834357915125  0 0 0
12        0    2    0.0140440000000000  -30.1691187557991789  29.3878492307036900 -7.4657487356289511  0 0 0
13        0    2    0.0140440000000000  -28.8259274223741073  30.5622063942906621 -7.1722328583007613  0 0 0
14        0    1    0.0285690000000000  -31.6590562457114082  30.7109414002972052 -5.9497781769061362  0 0 0
15        0    1    0.0285690000000000  -31.0216772605472997  31.7152672720264874 -7.3069577490875020  0 0 0
16        0    1    0.0285690000000000  -30.3138186580378814  31.8871105544743543 -5.6558044419015960  0 0 0
17        0    3    0.1443390000000000  -28.1477032733018540  27.5551998888147622 -3.8148311471049103  0 0 0
18        0    3    0.1443390000000000  -27.9719606407950216  28.1075959848109775 -6.8291500232107065  0 0 0
19        1    9    0.0300360000000000   38.2150616149889260 -30.3829318244856168  19.2604490713259722 0 0 0
20        1    4   -0.2600820000000000   38.8009245820886335 -29.2718455035968077  18.4411002506672119 0 0 0
21        1    1    0.0285690000000000   38.8642590186166217 -31.2847556448470172  19.2626951238265782 0 0 0
22        1    1    0.0285690000000000   37.2239879289000584 -30.6600550645277217  18.8451858783136537 0 0 0
23        1    1    0.0285690000000000   38.0852102405556678 -30.0364371454911456  20.3066539951273803 0 0 0
24        1    8   -0.2800920000000000   39.9737473215204773 -29.4009997315968903  17.8050694966456078 0 0 0
25        1    7    0.1076650000000000   40.5331354327646309 -28.2658575211387308  16.9910221177204868 0 0 0
26        1    6   -0.0058890000000000   41.8773794605505714 -28.6452362123173110  16.3607040273554247 0 0 0
27        1    2    0.0140440000000000   40.6716484125813693 -27.3818126797759405  17.6515107494032186 0 0 0
28        1    2    0.0140440000000000   39.8089950041554630 -28.0064599359287350  16.1877221957480302 0 0 0
29        1    5   -0.1079060000000000   42.4436483850380881 -27.4934000409681687  15.5354013439528469 0 0 0
30        1    2    0.0140440000000000   41.7430743180313542 -29.5288946323150476  15.6988828102884614 0 0 0
31        1    2    0.0140440000000000   42.6047397867138500 -28.9049381131037393  17.1609498943560439 0 0 0
32        1    1    0.0285690000000000   41.7450868435457636 -27.2271548803065784  14.7136704414232256 0 0 0
33        1    1    0.0285690000000000   43.4155438876972184 -27.7959382005854181  15.0917149053654480 0 0 0
34        1    1    0.0285690000000000   42.6080766330584026 -26.6022257376892597  16.1779691791487288 0 0 0
35        1    3    0.1443390000000000   38.2466430718447512 -28.3398659115160534  18.3700441014135656 0 0 0
36        1    3    0.1443390000000000   40.5272629762534606 -30.3343518761707074  17.8771508117347224 0 0 0
37        2    9    0.0300360000000000   43.6486092162422779 -29.4212995293856494 -6.0887397857840622  0 0 0
38        2    4   -0.2600820000000000   42.3649010856419821 -28.6492335573822601 -6.1600720288803954  0 0 0
39        2    1    0.0285690000000000   43.4939882517108387 -30.4498297456583664 -5.6976305067566111  0 0 0
40        2    1    0.0285690000000000   44.3579176455771176 -28.8903708672618542 -5.4205600429678213  0 0 0
41        2    1    0.0285690000000000   44.0905820601936398 -29.4904307231775888 -7.1042916396322262  0 0 0
42        2    8   -0.2800920000000000   41.1939348941092263 -29.1823737637587186 -5.7841347848726334  0 0 0
43        2    7    0.1076650000000000   39.9240777876272048 -28.3795866115994926 -5.8685844713444117  0 0 0
44        2    6   -0.0058890000000000   38.7194548587970218 -29.1949803907170136 -5.3866740264347390  0 0 0
45        2    2    0.0140440000000000   39.7618503671963381 -28.0704798296966302 -6.9245681933505807  0 0 0
46        2    2    0.0140440000000000   40.0296767219715051 -27.4694586215311780 -5.2381297632490895  0 0 0
47        2    5   -0.1079060000000000   37.4323194459088739 -28.3798772776352735 -5.4727026474495144  0 0 0
48        2    2    0.0140440000000000   38.8775744628299194 -29.5057442836951651 -4.3305862499968422  0 0 0
49        2    2    0.0140440000000000   38.6100244175596075 -30.1060423818267040 -6.0150708722939736  0 0 0
50        2    1    0.0285690000000000   37.5064368358391533 -27.4726762346110007 -4.8358280373058919  0 0 0
51        2    1    0.0285690000000000   36.5781525830477108 -28.9943540074235493 -5.1180405817607317  0 0 0
52        2    1    0.0285690000000000   37.2384630851739686 -28.0738812680461933 -6.5228968504035114  0 0 0
53        2    3    0.1443390000000000   42.4006150425800925 -27.6279783343166017 -6.5297005067347662  0 0 0
54        2    3    0.1443390000000000   41.1598461568988085 -30.2045632286376495 -5.4144211420544002  0 0 0
55        3    9    0.0300360000000000   30.1249639282259096 -6.2291817329381045   37.3940874331934268 0 0 0
56        3    4   -0.2600820000000000   29.7324744959687131 -6.5851912894111875   38.7970450091258741 0 0 0
57        3    1    0.0285690000000000   29.8597852094537117 -5.1800224894987901   37.1417114327175781 0 0 0
58        3    1    0.0285690000000000   29.6049233048315301 -6.9069404817580047   36.6858016933132092 0 0 0
59        3    1    0.0285690000000000   31.2212542664927568 -6.3560123280296272   37.2777853310133978 0 0 0
60        3    8   -0.2800920000000000   29.1340315283694480 -5.7050652258771670   39.6118905402660459 0 0 0
61        3    7    0.1076650000000000   28.7533353808836196 -6.0952566754898614   41.0143730207407913 0 0 0
62        3    6   -0.0058890000000000   28.0857944232672345 -4.9299190248572664   41.7523420732915724 0 0 0
63        3    2    0.0140440000000000   29.6692682751276884 -6.4042038013886620   41.5644502574453796 0 0 0
64        3    2    0.0140440000000000   28.0503558782989515 -6.9560327045332411   40.9714582334277893 0 0 0
65        3    5   -0.1079060000000000   27.7001256561604947 -5.3267718661665855   43.1744106384891495 0 0 0
66        3    2    0.0140440000000000   27.1688870970474667 -4.6181598956954222   41.2055472320496676 0 0 0
67        3    2    0.0140440000000000   28.7859108106063957 -4.0669856832982223   41.7978905222762194 0 0 0
68        3    1    0.0285690000000000   26.9829135168285674 -6.1749697666867815   43.1575744349964978 0 0 0
69        3    1    0.0285690000000000   27.2197230150052114 -4.4651125436284946   43.6840422467653937 0 0 0
70        3    1    0.0285690000000000   28.6024123040363953 -5.6229593549592973   43.7508423230342842 0 0 0
71        3    3    0.1443390000000000   29.9459817346496209 -7.5906080267237588   39.1497697918710088 0 0 0
72        3    3    0.1443390000000000   28.9210198311071736 -4.6992392403317274   39.2574027048880296 0 0 0
73        4    9    0.0300360000000000  -40.6127900749478030 -42.3416752049587402  26.1954076813243688 0 0 0
74        4    4   -0.2600820000000000  -40.6896520075477639 -41.0750960003018477  26.9947512121343109 0 0 0
75        4    1    0.0285690000000000  -40.3026158426174703 -43.2081330167790512  26.8181366131509265 0 0 0
76        4    1    0.0285690000000000  -39.8764878464230890 -42.2123088709480001  25.3752910793742785 0 0 0
77        4    1    0.0285690000000000  -41.6088963168162991 -42.5582408935704848  25.7568460071817853 0 0 0
78        4    8   -0.2800920000000000  -40.4073211453548495 -41.0440539411352034  28.3047339553855792 0 0 0
79        4    7    0.1076650000000000  -40.4944459867042283 -39.7556599441707377  29.0771238845701632 0 0 0
80        4    6   -0.0058890000000000  -40.1279370664900341 -39.9662591142839432  30.5500598280351383 0 0 0
81        4    2    0.0140440000000000  -41.5325182283723322 -39.3625277228860213  29.0077017168864657 0 0 0
82        4    2    0.0140440000000000  -39.7973220501276614 -39.0160697947661959  28.6254803745362416 0 0 0
83        4    5   -0.1079060000000000  -40.2165777920529095 -38.6590718542833969  31.3323103433842576 0 0 0
84        4    2    0.0140440000000000  -39.0900698222300846 -40.3590408479979175  30.6238940399758093 0 0 0
85        4    2    0.0140440000000000  -40.8232554103655332 -40.7050582556341212  31.0056910368109122 0 0 0
86        4    1    0.0285690000000000  -39.5147355363856576 -37.9082990315511950  30.9105592250613626 0 0 0
87        4    1    0.0285690000000000  -39.9463421973330668 -38.8413869442721662  32.3937724450199269 0 0 0
88        4    1    0.0285690000000000  -41.2505796647135767 -38.2548288449550498  31.2929475799726475 0 0 0
89        4    3    0.1443390000000000  -40.9844967567409526 -40.1629063807499804  26.4830485632697368 0 0 0
90        4    3    0.1443390000000000  -40.1123811736819817 -41.9578082556612486  28.8154050702869924 0 0 0
91        5    9    0.0300360000000000   4.6032229470503125   39.2920288168849510  8.6497422112538054  0 0 0
92        5    4   -0.2600820000000000   4.6351297157809199   39.5329426605732124  7.1698695151652156  0 0 0
93        5    1    0.0285690000000000   5.4853256246214208   39.7329163869177648  9.1618569771143932  0 0 0
94        5    1    0.0285690000000000   4.5906557643655352   38.1991783278347938  8.8420641689242636  0 0 0
95        5    1    0.0285690000000000   3.6833190427247215   39.7449377895218703  9.0741417328269449  0 0 0
96        5    8   -0.2800920000000000   5.6332400224038315   40.2071176810892510  6.5816578438041864  0 0 0
97        5    7    0.1076650000000000   5.6342451611777928   40.4310715779262964  5.0937130619364117  0 0 0
98        5    6   -0.0058890000000000   6.8701033412342261   41.2226288983180638  4.6529039650227855  0 0 0
99        5    2    0.0140440000000000   4.7165107077405821   40.9928981804747252  4.8125001508828982  0 0 0
100       5    2    0.0140440000000000   5.6252850779638699   39.4446246726312708  4.5800989537358348  0 0 0
101       5    5   -0.1079060000000000   6.8700832032126353   41.4490768113408024  3.1438536272334456  0 0 0
102       5    2    0.0140440000000000   7.7902860518594501   40.6638029364681657  4.9319643909683988  0 0 0
103       5    2    0.0140440000000000   6.8825636278548048   42.2102841387696799  5.1640530981197621  0 0 0
104       5    1    0.0285690000000000   6.8793191528836717   40.4763292475921475  2.6073899626160491  0 0 0
105       5    1    0.0285690000000000   7.7748371712909545   42.0236723621996617  2.8536328973057823  0 0 0
106       5    1    0.0285690000000000   5.9702020379114753   42.0251813980349951  2.8398156297296153  0 0 0
107       5    3    0.1443390000000000   3.8176886700525814   39.1433000800939439  6.5691768106681359  0 0 0
108       5    3    0.1443390000000000   6.4506148111434287   40.5964329522337195  7.1841971339642683  0 0 0
109       6    9    0.0300360000000000  -28.2533321606343684  2.5703274750085838  -5.2582469689888711  0 0 0
110       6    4   -0.2600820000000000  -28.6229021258715299  3.9810953524994588  -4.9086289556736391  0 0 0
111       6    1    0.0285690000000000  -28.0390022381547119  2.4531546072786310  -6.3422588323915754  0 0 0
112       6    1    0.0285690000000000  -29.0910976214951482  1.8950021840573608  -4.9870410603320536  0 0 0
113       6    1    0.0285690000000000  -27.3505167679372505  2.2758852120462278  -4.6840581454379784  0 0 0
114       6    8   -0.2800920000000000  -28.6744326746723601  4.9512005614303645  -5.8321924883802021  0 0 0
115       6    7    0.1076650000000000  -29.0490538818055022  6.3567388179548807  -5.4471506819330004  0 0 0
116       6    6   -0.0058890000000000  -29.0404899118202131  7.2863911052894155  -6.6653027150026656  0 0 0
117       6    2    0.0140440000000000  -28.3222861370106109  6.7303289313683896  -4.6926936374397901  0 0 0
118       6    2    0.0140440000000000  -30.0656625487046654  6.3487738575235184  -4.9961511143158699  0 0 0
119       6    5   -0.1079060000000000  -29.4205861677109475  8.7114007001514082  -6.2736573773448319  0 0 0
120       6    2    0.0140440000000000  -29.7665238236968221  6.9164241929929808  -7.4222020745683768  0 0 0
121       6    2    0.0140440000000000  -28.0251819546656336  7.2975755869414005  -7.1190826490111725  0 0 0
122       6    1    0.0285690000000000  -30.4415327534086551  8.7323821601786360  -5.8362282556721725  0 0 0
123       6    1    0.0285690000000000  -29.4061472068823164  9.3612980100121526  -7.1738756091897358  0 0 0
124       6    1    0.0285690000000000  -28.6975271117038488  9.1141339708890374  -5.5326356336914522  0 0 0
125       6    3    0.1443390000000000  -28.8532870189761042  4.2087739860960927  -3.8713497406920787  0 0 0
126       6    3    0.1443390000000000  -28.4435985512101972  4.7217454195536810  -6.8698761912067479  0 0 0
127       7    9    0.0300360000000000   2.8610702790368885   27.3152232462072533 -28.7394508666343818 0 0 0
128       7    4   -0.2600820000000000   4.3277463549913779   27.5234289100785148 -28.5058006829095198 0 0 0
129       7    1    0.0285690000000000   2.4024747244870119   28.1661366754576683 -29.2875247392723601 0 0 0
130       7    1    0.0285690000000000   2.3472851717464494   27.2043011180204495 -27.7621131533003158 0 0 0
131       7    1    0.0285690000000000   2.7132520155775208   26.3895144034599198 -29.3333175049019772 0 0 0
132       7    8   -0.2800920000000000   4.9647209172079947   28.6245136650398635 -28.9284173913826628 0 0 0
133       7    7    0.1076650000000000   6.4376837024511913   28.8017394397789630 -28.6772049510921327 0 0 0
134       7    6   -0.0058890000000000   6.9417628992955489   30.1310528320786268 -29.2490888212629123 0 0 0
135       7    2    0.0140440000000000   6.9889914470867538   27.9619462307792155 -29.1544611679429480 0 0 0
136       7    2    0.0140440000000000   6.6223833168472881   28.7780145894765305 -27.5807194673213409 0 0 0
137       7    5   -0.1079060000000000   8.4355396278191073   30.3097130478458148 -28.9937005045303451 0 0 0
138       7    2    0.0140440000000000   6.3930989421382538   30.9737191540271191 -28.7739270279016530 0 0 0
139       7    2    0.0140440000000000   6.7593237161845536   30.1586001060264586 -30.3458333955206712 0 0 0
140       7    1    0.0285690000000000   8.6437295316437464   30.3074680865948025 -27.9024771941605287 0 0 0
141       7    1    0.0285690000000000   8.7724032363147995   31.2790361195458004 -29.4178508951247331 0 0 0
142       7    1    0.0285690000000000   9.0105339577125996   29.4910983774672069 -29.4767877144948152 0 0 0
143       7    3    0.1443390000000000   4.8775666103720319   26.7498239732937506 -27.9765597004115705 0 0 0
144       7    3    0.1443390000000000   4.4130656803591020   29.3978306811829455 -29.4579254781960316 0 0 0
145       8    9    0.0300360000000000  -37.3671293601310808  41.5575514067212026  6.3363769840271855  0 0 0
146       8    4   -0.2600820000000000  -38.8093663840410628  41.6056617848205477  5.9280652440754587  0 0 0
147       8    1    0.0285690000000000  -37.0612990875485195  40.5405340417088382  6.6633204657413749  0 0 0
148       8    1    0.0285690000000000  -37.2007887833815829  42.2649928998581288  7.1750218476105942  0 0 0
149       8    1    0.0285690000000000  -36.7335398818724457  41.8595891456323770  5.4768409103726974  0 0 0
150       8    8   -0.2800920000000000  -39.5958481772275448  40.5210577698096799  5.9706050185048429  0 0 0
151       8    7    0.1076650000000000  -41.0392284982646984  40.6042591394138412  5.5536316224246232  0 0 0
152       8    6   -0.0058890000000000  -41.7341893808919409  39.2450399020321328  5.6869490216996601  0 0 0
153       8    2    0.0140440000000000  -41.0904470937145305  40.9427096673522684  4.4954283076885835  0 0 0
154       8    2    0.0140440000000000  -41.5583948399002452  41.3487920773752293  6.1963557049074192  0 0 0
155       8    5   -0.1079060000000000  -43.1978197733671365  39.3306340500515219  5.2638990296801031  0 0 0
156       8    2    0.0140440000000000  -41.6855613486117704  38.9031423839359149  6.7441333951635283  0 0 0
157       8    2    0.0140440000000000  -41.2181975833628158  38.4975369200701252  5.0451676525087450  0 0 0
158       8    1    0.0285690000000000  -43.7430941998091356  40.0563556628047337  5.9043054082017594  0 0 0
159       8    1    0.0285690000000000  -43.6750795029740004  38.3337379512723473  5.3706191338519762  0 0 0
160       8    1    0.0285690000000000  -43.2750315660150591  39.6501335266165142  4.2027298000325475  0 0 0
161       8    3    0.1443390000000000  -39.2151004889098473  42.5552793697771676  5.5897322609250031  0 0 0
162       8    3    0.1443390000000000  -39.1883089688819126  39.5714172196527159  6.3094503238560966  0 0 0
163       9    9    0.0300360000000000  -29.4039919920965644 -43.4048167815751640  7.0528237857816647  0 0 0
164       9    4   -0.2600820000000000  -28.6536417549482039 -42.3221639505729499  6.3359429813697385  0 0 0
165       9    1    0.0285690000000000  -30.4049269781133944 -43.0620681653049004  7.3925310957005497  0 0 0
166       9    1    0.0285690000000000  -28.8201652405019004 -43.7290296818343762  7.9391082662550208  0 0 0
167       9    1    0.0285690000000000  -29.5376367769977790 -44.2701018529068122  6.3709986605484534  0 0 0
168       9    8   -0.2800920000000000  -29.1732578187979499 -41.1003084036615434  6.1521026118337234  0 0 0
169       9    7    0.1076650000000000  -28.3930019384724162 -40.0367167693278816  5.4281484498228396  0 0 0
170       9    6   -0.0058890000000000  -29.1872899801667423 -38.7291854001502713  5.3404596932007742  0 0 0
171       9    2    0.0140440000000000  -28.1591373152047382 -40.3959783958360177  4.4018907914335870  0 0 0
172       9    2    0.0140440000000000  -27.4405149532666641 -39.8540901399820484  5.9725502219245135  0 0 0
173       9    5   -0.1079060000000000  -28.3950576561059691 -37.6513544990843130  4.6061844906230096  0 0 0
174       9    2    0.0140440000000000  -29.4228483087638786 -38.3662123049245878  6.3649889528467813  0 0 0
175       9    2    0.0140440000000000  -30.1406117754033112 -38.9074433587561046  4.7961314614135580  0 0 0
176       9    1    0.0285690000000000  -27.4454152942968506 -37.4378604132087034  5.1416432182143481  0 0 0
177       9    1    0.0285690000000000  -28.9935900019873856 -36.7173380165136933  4.5578098782720220  0 0 0
178       9    1    0.0285690000000000  -28.1642660896769179 -37.9799103865735717  3.5703717700690638  0 0 0
179       9    3    0.1443390000000000  -27.6598702940509931 -42.5497073114679694  5.9597711703327825  0 0 0
180       9    3    0.1443390000000000  -30.1679364875092411 -40.8741390872243642  6.5291746316297621  0 0 0
181       10   9    0.0300360000000000   27.6143493950894801  37.3598024473850927 -40.2509294431097260 0 0 0
182       10   4   -0.2600820000000000   28.6515787511456317  38.4189440724628923 -40.4777663879906271 0 0 0
183       10   1    0.0285690000000000   26.6376912774429755  37.7929693532806681 -39.9455544777441034 0 0 0
184       10   1    0.0285690000000000   27.9626672928780629  36.6719450884214595 -39.4528099303174926 0 0 0
185       10   1    0.0285690000000000   27.4695050187229981  36.7832770781901175 -41.1880010998732757 0 0 0
186       10   8   -0.2800920000000000   28.3823067900824597  39.7222358898948400 -40.3176034634414364 0 0 0
187       10   7    0.1076650000000000   29.4467015630084923  40.7593136608740920 -40.5535473050827235 0 0 0
188       10   6   -0.0058890000000000   28.9075038984344843  42.1728049548959660 -40.3095609676736188 0 0 0
189       10   2    0.0140440000000000   29.8046658884424218  40.6769902105672188 -41.6033333551644517 0 0 0
190       10   2    0.0140440000000000   30.2986043039744111  40.5654212165978478 -39.8653433584307493 0 0 0
191       10   5   -0.1079060000000000   29.9877481313947030  43.2236250527261348 -40.5490627398014993 0 0 0
192       10   2    0.0140440000000000   28.5488267337678074  42.2594565275920928 -39.2603995909560268 0 0 0
193       10   2    0.0140440000000000   28.0554941921325565  42.3709232420748876 -40.9963798474756942 0 0 0
194       10   1    0.0285690000000000   30.8436078800807500  43.0617253350868907 -39.8595636745320832 0 0 0
195       10   1    0.0285690000000000   29.5697598420967900  44.2357890230046777 -40.3652755009088366 0 0 0
196       10   1    0.0285690000000000   30.3495350743964387  43.1733728170008746 -41.5982084070365445 0 0 0
197       10   3    0.1443390000000000   29.6469235806842910  38.1053531645818140 -40.7807719024701214 0 0 0
198       10   3    0.1443390000000000   27.3856910425861528  40.0344757842677623 -40.0143134668962972 0 0 0
199       11   9    0.0300360000000000   15.5691267841097218 -19.2271555132214615 -38.3630296853316608 0 0 0
200       11   4   -0.2600820000000000   15.8590475660412604 -18.4242061968935680 -39.5960337624590508 0 0 0
201       11   1    0.0285690000000000   16.4251471589079934 -19.2247874880667808 -37.6545298427155117 0 0 0
202       11   1    0.0285690000000000   15.3509716739387034 -20.2759649063714491 -38.6526416078186728 0 0 0
203       11   1    0.0285690000000000   14.6822386163586067 -18.8013719229748801 -37.8496074450851054 0 0 0
204       11   8   -0.2800920000000000   17.0294455205955515 -17.7958748353509399 -39.7751913491729354 0 0 0
205       11   7    0.1076650000000000   17.2876675287181563 -16.9983256714459685 -41.0247403709306369 0 0 0
206       11   6   -0.0058890000000000   18.6871567999436259 -16.3744150854655501 -41.0050819623893901 0 0 0
207       11   2    0.0140440000000000   16.5253250869759754 -16.1922638199604911 -41.1026162516535436 0 0 0
208       11   2    0.0140440000000000   17.1951006662460699 -17.6692687673962006 -41.9069104056568236 0 0 0
209       11   5   -0.1079060000000000   18.9479166702815647 -15.5659439273038842 -42.2727137133889030 0 0 0
210       11   2    0.0140440000000000   19.4526940381995779 -17.1774497942722029 -40.9277166523644240 0 0 0
211       11   2    0.0140440000000000   18.7837001898690694 -15.7021371672788632 -40.1243928324574526 0 0 0
212       11   1    0.0285690000000000   18.8787155853207835 -16.2193019112930941 -43.1685099757152244 0 0 0
213       11   1    0.0285690000000000   19.9668453922593692 -15.1266089478778056 -42.2310376137468708 0 0 0
214       11   1    0.0285690000000000   18.2086959211419561 -14.7417192279543467 -42.3639718057623256 0 0 0
215       11   3    0.1443390000000000   15.0875715305149392 -18.3588326640473625 -40.3585388160893856 0 0 0
216       11   3    0.1443390000000000   17.8005296643936965 -17.8622685466416762 -39.0111608261674050 0 0 0
217       12   9    0.0300360000000000  -16.3051145833023163  4.4637705665620517   43.2659550034517935 0 0 0
218       12   4   -0.2600820000000000  -17.1268327229383672  5.3258340342959256   42.3545239335448542 0 0 0
219       12   1    0.0285690000000000  -15.5500380594415404  3.8698308846000562   42.7075254072579469 0 0 0
220       12   1    0.0285690000000000  -16.9741538223279456  3.7655116012691217   43.8102791485455469 0 0 0
221       12   1    0.0285690000000000  -15.7780754293853924  5.1070049128454711   44.0007638157287460 0 0 0
222       12   8   -0.2800920000000000  -16.9340949595779051  5.3423134174523286   41.0281342105352067 0 0 0
223       12   7    0.1076650000000000  -17.7766974880203144  6.2193461978679183   40.1421485936999360 0 0 0
224       12   6   -0.0058890000000000  -17.3751652764064701  6.0701940406674577   38.6708408048131460 0 0 0
225       12   2    0.0140440000000000  -17.6470884998036297  7.2788855169518669   40.4544694242389227 0 0 0
226       12   2    0.0140440000000000  -18.8450795652035623  5.9352081986525889   40.2637321730004700 0 0 0
227       12   5   -0.1079060000000000  -18.2303203489120946  6.9599706649334241   37.7733337348812270 0 0 0
228       12   2    0.0140440000000000  -17.5037980259533477  5.0118050897080275   38.3543540876653282 0 0 0
229       12   2    0.0140440000000000  -16.3072231685146676  6.3539489777121680   38.5448473173054111 0 0 0
230       12   1    0.0285690000000000  -19.3023603659959662  6.6830538726422741   37.8636868251327314 0 0 0
231       12   1    0.0285690000000000  -17.9179655761361261  6.8316128857239260   36.7155404477308096 0 0 0
232       12   1    0.0285690000000000  -18.1039640642269717  8.0272669778577921   38.0544642742017061 0 0 0
233       12   3    0.1443390000000000  -17.8980273706473803  5.9505975402663225   42.7970081772785207 0 0 0
234       12   3    0.1443390000000000  -16.1618970670225650  4.7164767512635057   40.5868175398929836 0 0 0
235       13   9    0.0300360000000000   8.9710897592114662   16.9217528151876486 -28.1509664494438638 0 0 0
236       13   4   -0.2600820000000000   7.6855365659775865   16.7213094200473904 -28.8967922677894187 0 0 0
237       13   1    0.0285690000000000   8.8522294471714584   17.6254092219091163 -27.2992103786691409 0 0 0
238       13   1    0.0285690000000000   9.7360848217628941   17.3292544723789881 -28.8439259104213725 0 0 0
239       13   1    0.0285690000000000   9.3219994967575630   15.9450081899881031 -27.7581599094790619 0 0 0
240       13   8   -0.2800920000000000   6.5525885607611727   17.3414715472891814 -28.5382439918054054 0 0 0
241       13   7    0.1076650000000000   5.2796560589541768   17.1178777276728304 -29.3088182463537699 0 0 0
242       13   6   -0.0058890000000000   4.1227114160199436   17.9291202092257222 -28.7158715186372930 0 0 0
243       13   2    0.0140440000000000   5.0248828519943833   16.0356717993907374 -29.2790306397613129 0 0 0
244       13   2    0.0140440000000000   5.4396946326626390   17.4221393727803466 -30.3665373671234775 0 0 0
245       13   5   -0.1079060000000000   2.8324199307621933   17.7016431608952232 -29.4981206191508107 0 0 0
246       13   2    0.0140440000000000   4.3734030930124899   19.0122855070107448 -28.7442267414532182 0 0 0
247       13   2    0.0140440000000000   3.9590380233038229   17.6274187105454239 -27.6580063120959068 0 0 0
248       13   1    0.0285690000000000   2.9616663889450399   18.0155335377380723 -30.5558940227551226 0 0 0
249       13   1    0.0285690000000000   2.0132264607758241   18.3004453529783682 -29.0472039357290051 0 0 0
250       13   1    0.0285690000000000   2.5466524244078252   16.6285389502178482 -29.4680208560538190 0 0 0
251       13   3    0.1443390000000000   7.6878475708065466   16.0502237820525586 -29.7514861631307568 0 0 0
252       13   3    0.1443390000000000   6.5519046279851532   18.0127926165082926 -27.6826453265081476 0 0 0
253       14   9    0.0300360000000000  -28.3061498325241274 -17.0980474019624609  25.6189180256558160 0 0 0
254       14   4   -0.2600820000000000  -28.4605011871977354 -16.6177688979049485  27.0312171924227940 0 0 0
255       14   1    0.0285690000000000  -28.4611571241268031 -18.1950589796321687  25.5335549504497692 0 0 0
256       14   1    0.0285690000000000  -27.2847590324250575 -16.8548717561734271  25.2596210737232099 0 0 0
257       14   1    0.0285690000000000  -29.0487138807962459 -16.5834344689594317  24.9745292858413102 0 0 0
258       14   8   -0.2800920000000000  -28.7518010350466398 -17.4538538253339262  28.0376144825469815 0 0 0
259       14   7    0.1076650000000000  -28.8997111265077677 -16.9385600699439252  29.4435771358916725 0 0 0
260       14   6   -0.0058890000000000  -29.2318207426504273 -18.0735581123760092  30.4181045799079506 0 0 0
261       14   2    0.0140440000000000  -29.7144395356065480 -16.1818323422794457  29.4669678453959598 0 0 0
262       14   2    0.0140440000000000  -27.9476303128825556 -16.4536986586548686  29.7524602341174500 0 0 0
263       14   5   -0.1079060000000000  -29.3815177432699670 -17.5498515170934830  31.8435286535657198 0 0 0
264       14   2    0.0140440000000000  -28.4190505336389982 -18.8324388582735480  30.3980546734367607 0 0 0
265       14   2    0.0140440000000000  -30.1838126341675164 -18.5608702878689833  30.1129327412628811 0 0 0
266       14   1    0.0285690000000000  -28.4355617319133813 -17.0759087524561473  32.1821462393852826 0 0 0
267       14   1    0.0285690000000000  -29.6214117170772155 -18.3920373214201369  32.5262744439018050 0 0 0
268       14   1    0.0285690000000000  -30.2030296045196032 -16.8039138267120265  31.8966034526189191 0 0 0
269       14   3    0.1443390000000000  -28.3293677207320478 -15.5574058980589331  27.2294525362196360 0 0 0
270       14   3    0.1443390000000000  -28.8827251612782732 -18.5147854187126590  27.8376031100170032 0 0 0