
                                 *****************
                                 * O   R   C   A *
                                 *****************

           --- An Ab Initio, DFT and Semiempirical electronic structure package ---

                  #######################################################
                  #                        -***-                        #
                  #          Department of theory and spectroscopy      #
                  #               Directorship: Frank Neese             #
                  #        Max Planck Institute fuer Kohlenforschung    #
                  #                Kaiser Wilhelm Platz 1               #
                  #                 D-45470 Muelheim/Ruhr               #
                  #                      Germany                        #
                  #                                                     #
                  #                  All rights reserved                #
                  #                        -***-                        #
                  #######################################################


                         Program Version 4.1.2  - RELEASE  -


 With contributions from (in alphabetic order):
   Daniel Aravena         : Magnetic Properties
   Michael Atanasov       : Ab Initio Ligand Field Theory
   Alexander A. Auer      : GIAO ZORA
   Ute Becker             : Parallelization
   Giovanni Bistoni       : ED, Open-shell LED
   Martin Brehm           : Molecular dynamics
   Dmytro Bykov           : SCF Hessian
   Vijay G. Chilkuri      : MRCI spin determinant printing
   Dipayan Datta          : RHF DLPNO-CCSD density
   Achintya Kumar Dutta   : EOM-CC, STEOM-CC
   Dmitry Ganyushin       : Spin-Orbit,Spin-Spin,Magnetic field MRCI
   Miquel Garcia          : C-PCM Hessian
   Yang Guo               : DLPNO-NEVPT2, CIM, IAO-localization
   Andreas Hansen         : Spin unrestricted coupled pair/coupled cluster methods
   Benjamin Helmich-Paris : CASSCF linear response (MC-RPA)
   Lee Huntington         : MR-EOM, pCC
   Robert Izsak           : Overlap fitted RIJCOSX, COSX-SCS-MP3, EOM
   Christian Kollmar      : KDIIS, OOCD, Brueckner-CCSD(T), CCSD density
   Simone Kossmann        : Meta GGA functionals, TD-DFT gradient, OOMP2, MP2 Hessian
   Martin Krupicka        : AUTO-CI
   Lucas Lang             : DCDCAS
   Dagmar Lenk            : GEPOL surface, SMD
   Dimitrios Liakos       : Extrapolation schemes; parallel MDCI
   Dimitrios Manganas     : ROCIS; embedding schemes
   Dimitrios Pantazis     : SARC Basis sets
   Taras Petrenko         : DFT Hessian,TD-DFT gradient, ASA, ECA, R-Raman, ABS, FL, XAS/XES, NRVS
   Peter Pinski           : DLPNO-MP2, DLPNO-MP2 Gradient
   Christoph Reimann      : Effective Core Potentials
   Marius Retegan         : Local ZFS, SOC
   Christoph Riplinger    : Optimizer, TS searches, QM/MM, DLPNO-CCSD(T), (RO)-DLPNO pert. Triples
   Tobias Risthaus        : Range-separated hybrids, TD-DFT gradient, RPA, STAB
   Michael Roemelt        : Restricted open shell CIS
   Masaaki Saitow         : Open-shell DLPNO
   Barbara Sandhoefer     : DKH picture change effects
   Avijit Sen             : IP-ROCIS
   Kantharuban Sivalingam : CASSCF convergence, NEVPT2, FIC-MRCI
   Bernardo de Souza      : ESD, SOC TD-DFT
   Georgi Stoychev        : AutoAux, RI-MP2 NMR
   Willem Van den Heuvel  : Paramagnetic NMR
   Boris Wezisla          : Elementary symmetry handling
   Frank Wennmohs         : Technical directorship


 We gratefully acknowledge several colleagues who have allowed us to
 interface, adapt or use parts of their codes:
   Stefan Grimme, W. Hujo, H. Kruse,             : VdW corrections, initial TS optimization,
                  C. Bannwarth                     DFT functionals, gCP, sTDA/sTD-DF
   Ed Valeev                                     : LibInt (2-el integral package), F12 methods
   Garnet Chan, S. Sharma, J. Yang, R. Olivares  : DMRG
   Ulf Ekstrom                                   : XCFun DFT Library
   Mihaly Kallay                                 : mrcc  (arbitrary order and MRCC methods)
   Andreas Klamt, Michael Diedenhofen            : otool_cosmo (COSMO solvation model)
   Jiri Pittner, Ondrej Demel                    : Mk-CCSD
   Frank Weinhold                                : gennbo (NPA and NBO analysis)
   Christopher J. Cramer and Donald G. Truhlar   : smd solvation model
   Lars Goerigk                                  : TD-DFT with DH, B97 family of functionals
   V. Asgeirsson, H. Jonsson                     : NEB implementation
   FAccTs GmbH                                   : IRC, NEB, NEB-TS, Multilevel


 Your calculation uses the libint2 library for the computation of 2-el integrals
 For citations please refer to: http://libint.valeyev.net

 This ORCA versions uses:
   CBLAS   interface :  Fast vector & matrix operations
   LAPACKE interface :  Fast linear algebra routines
   SCALAPACK package :  Parallel linear algebra routines


Your calculation utilizes the atom-pairwise dispersion correction
with the zero-damping scheme (D30)
Cite in your paper:
S.Grimme, J.Antony, S.Ehrlich and H.Krieg, J.Chem.Phys., 132, (2010), 154104 
   

XCFun DFT library Copyright 2009-2010 Ulf Ekstrom and contributors.
See http://admol.org/xcfun for more information. This is free soft-
ware; see the source code for copying conditions. There is ABSOLUTELY
NO WARRANTY; not even for MERCHANTABILITY or FITNESS FOR A PARTICULAR
PURPOSE. For details see the documentation. Scientific users of this 
library should cite U. Ekstrom, L. Visscher, R. Bast, A. J. Thorvald-
sen and K. Ruud; J.Chem.Theor.Comp. 2010, DOI: 10.1021/ct100117s
XCFun Version 0.99 
----- Orbital basis set information -----
Your calculation utilizes the basis: def2-TZVP
   F. Weigend and R. Ahlrichs, Phys. Chem. Chem. Phys. 7, 3297 (2005).

================================================================================
                                        WARNINGS
                       Please study these warnings very carefully!
================================================================================


INFO   : the flag for use of LIBINT has been found!

================================================================================
                                       INPUT FILE
================================================================================
NAME = 185.in
|  1> #Run DFT-D3 single point of the dimer
|  2> ! wB97X-D3 def2-TZVP TIGHTSCF  CHELPG PAL8
|  3> 
|  4> %base "185_charges"
|  5> 
|  6> %scf
|  7> MaxIter 1000
|  8> end
|  9> %output
| 10>   Print[ P_Mayer ] 1
| 11>   Print[ P_NatPop ] 1
| 12>   Print[ P_Hirshfeld ] 1
| 13>   Print[ P_Mulliken ] 1
| 14>   Print [ P_Loewdin ] 1
| 15> end
| 16> 
| 17> * xyz 0 1
| 18>   C                      9.154724             -11.721413           -6.804512           
| 19>   O                      9.141616             -12.929495           -6.090259           
| 20>   H                      8.803279             -12.746357           -5.189906           
| 21>   H                      10.221706            -11.446662           -7.018588           
| 22>   H                      8.790033             -11.772553           -7.824847           
| 23>   H                      8.734817             -10.981306           -6.165708           
| 24> *
| 25> 
| 26>                          ****END OF INPUT****
================================================================================

                       ****************************
                       * Single Point Calculation *
                       ****************************

---------------------------------
CARTESIAN COORDINATES (ANGSTROEM)
---------------------------------
  C      9.154724  -11.721413   -6.804512
  O      9.141616  -12.929495   -6.090259
  H      8.803279  -12.746357   -5.189906
  H     10.221706  -11.446662   -7.018588
  H      8.790033  -11.772553   -7.824847
  H      8.734817  -10.981306   -6.165708

----------------------------
CARTESIAN COORDINATES (A.U.)
----------------------------
  NO LB      ZA    FRAG     MASS         X           Y           Z
   0 C     6.0000    0    12.011   17.299921  -22.150260  -12.858664
   1 O     8.0000    0    15.999   17.275151  -24.433205  -11.508922
   2 H     1.0000    0     1.008   16.635786  -24.087124   -9.807501
   3 H     1.0000    0     1.008   19.316225  -21.631056  -13.263209
   4 H     1.0000    0     1.008   16.610755  -22.246901  -14.786818
   5 H     1.0000    0     1.008   16.506412  -20.751661  -11.651500

--------------------------------
INTERNAL COORDINATES (ANGSTROEM)
--------------------------------
 C      0   0   0     0.000000000000     0.00000000     0.00000000
 O      1   0   0     1.403492531650     0.00000000     0.00000000
 H      2   1   0     0.979105192113   108.07139270     0.00000000
 H      1   2   3     1.122393529071   108.46055207   113.52097359
 H      1   2   3     1.084757271147   115.78322312   223.33150718
 H      1   2   3     1.064025756509   106.82853189   356.60012917

---------------------------
INTERNAL COORDINATES (A.U.)
---------------------------
 C      0   0   0     0.000000000000     0.00000000     0.00000000
 O      1   0   0     2.652216515822     0.00000000     0.00000000
 H      2   1   0     1.850240669393   108.07139270     0.00000000
 H      1   2   3     2.121016384430   108.46055207   113.52097359
 H      1   2   3     2.049894164247   115.78322312   223.33150718
 H      1   2   3     2.010717279240   106.82853189   356.60012917

---------------------
BASIS SET INFORMATION
---------------------
There are 3 groups of distinct atoms

 Group   1 Type C   : 11s6p2d1f contracted to 5s3p2d1f pattern {62111/411/11/1}
 Group   2 Type O   : 11s6p2d1f contracted to 5s3p2d1f pattern {62111/411/11/1}
 Group   3 Type H   : 5s1p contracted to 3s1p pattern {311/1}

Atom   0C    basis set group =>   1
Atom   1O    basis set group =>   2
Atom   2H    basis set group =>   3
Atom   3H    basis set group =>   3
Atom   4H    basis set group =>   3
Atom   5H    basis set group =>   3


           ************************************************************
           *        Program running with 8 parallel MPI-processes     *
           *              working on a common directory               *
           ************************************************************
------------------------------------------------------------------------------
                           ORCA GTO INTEGRAL CALCULATION
------------------------------------------------------------------------------

                         BASIS SET STATISTICS AND STARTUP INFO

 # of primitive gaussian shells          ...   64
 # of primitive gaussian functions       ...  124
 # of contracted shells                  ...   38
 # of contracted basis functions         ...   86
 Highest angular momentum                ...    3
 Maximum contraction depth               ...    6
 Integral package used                   ... LIBINT
 Integral threshhold            Thresh   ...  2.500e-11
 Primitive cut-off              TCut     ...  2.500e-12


------------------------------ INTEGRAL EVALUATION ----------------------------


 * One electron integrals 
 Pre-screening matrix                    ... done
 Shell pair data                         ... done (   0.000 sec)



           ************************************************************
           *        Program running with 8 parallel MPI-processes     *
           *              working on a common directory               *
           ************************************************************
-------------------------------------------------------------------------------
                                 ORCA SCF
-------------------------------------------------------------------------------

------------
SCF SETTINGS
------------
Hamiltonian:
 Density Functional     Method          .... DFT(GTOs)
 Exchange Functional    Exchange        .... WB97X-D3
 Correlation Functional Correlation     .... WB97X-D3
 Gradients option       PostSCFGGA      .... off
 Hybrid DFT is turned on
   Fraction HF Exchange ScalHFX         ....  0.195728
   Scaling of DF-GGA-X  ScalDFX         ....  0.000000
   Scaling of DF-GGA-C  ScalDFC         ....  1.000000
   Scaling of DF-LDA-C  ScalLDAC        ....  1.000000
   Perturbative correction              ....  0.000000
   Density functional embedding theory  .... OFF
 Long-range corrected/Screened/Range-Separated Hybrid DFT is turned on
   Amount of maximum screened exact exchange              ....  0.804272
   Range separation parameter mu (erf(mu*r12)/r12)        ....  0.250000


General Settings:
 Integral files         IntName         .... 185_charges
 Hartree-Fock type      HFTyp           .... RHF
 Total Charge           Charge          ....    0
 Multiplicity           Mult            ....    1
 Number of Electrons    NEL             ....   18
 Basis Dimension        Dim             ....   86
 Nuclear Repulsion      ENuc            ....     40.5328594585 Eh

Convergence Acceleration:
 DIIS                   CNVDIIS         .... on
   Start iteration      DIISMaxIt       ....    12
   Startup error        DIISStart       ....  0.200000
   # of expansion vecs  DIISMaxEq       ....     5
   Bias factor          DIISBfac        ....   1.050
   Max. coefficient     DIISMaxC        ....  10.000
 Newton-Raphson         CNVNR           .... off
 SOSCF                  CNVSOSCF        .... on
   Start iteration      SOSCFMaxIt      ....   150
   Startup grad/error   SOSCFStart      ....  0.003300
 Level Shifting         CNVShift        .... on
   Level shift para.    LevelShift      ....    0.2500
   Turn off err/grad.   ShiftErr        ....    0.0010
 Zerner damping         CNVZerner       .... off
 Static damping         CNVDamp         .... on
   Fraction old density DampFac         ....    0.7000
   Max. Damping (<1)    DampMax         ....    0.9800
   Min. Damping (>=0)   DampMin         ....    0.0000
   Turn off err/grad.   DampErr         ....    0.1000
 Fernandez-Rico         CNVRico         .... off

SCF Procedure:
 Maximum # iterations   MaxIter         ....  1000
 SCF integral mode      SCFMode         .... Direct
   Integral package                     .... LIBINT
 Reset frequency        DirectResetFreq ....    20
 Integral Threshold     Thresh          ....  2.500e-11 Eh
 Primitive CutOff       TCut            ....  2.500e-12 Eh

Convergence Tolerance:
 Convergence Check Mode ConvCheckMode   .... Total+1el-Energy
 Convergence forced     ConvForced      .... 0
 Energy Change          TolE            ....  1.000e-08 Eh
 1-El. energy change                    ....  1.000e-05 Eh
 Orbital Gradient       TolG            ....  1.000e-05
 Orbital Rotation angle TolX            ....  1.000e-05
 DIIS Error             TolErr          ....  5.000e-07


Diagonalization of the overlap matrix:
Smallest eigenvalue                        ... 1.744e-03
Time for diagonalization                   ...    0.029 sec
Threshold for overlap eigenvalues          ... 1.000e-08
Number of eigenvalues below threshold      ... 0
Time for construction of square roots      ...    0.013 sec
Total time needed                          ...    0.042 sec

-------------------
DFT GRID GENERATION
-------------------

General Integration Accuracy     IntAcc      ...  4.340
Radial Grid Type                 RadialGrid  ... Gauss-Chebyshev
Angular Grid (max. acc.)         AngularGrid ... Lebedev-110
Angular grid pruning method      GridPruning ... 3 (G Style)
Weight generation scheme         WeightScheme... Becke
Basis function cutoff            BFCut       ...    1.0000e-11
Integration weight cutoff        WCut        ...    1.0000e-14
Grids for H and He will be reduced by one unit

# of grid points (after initial pruning)     ...   6548 (   0.0 sec)
# of grid points (after weights+screening)   ...   6390 (   0.0 sec)
nearest neighbour list constructed           ...    0.0 sec
Grid point re-assignment to atoms done       ...    0.0 sec
Grid point division into batches done        ...    0.0 sec
Reduced shell lists constructed in    0.0 sec

Total number of grid points                  ...     6390
Total number of batches                      ...      102
Average number of points per batch           ...       62
Average number of grid points per atom       ...     1065
Average number of shells per batch           ...    31.79 (83.65%)
Average number of basis functions per batch  ...    73.07 (84.97%)
Average number of large shells per batch     ...    30.07 (94.61%)
Average number of large basis fcns per batch ...    68.93 (94.33%)
Maximum spatial batch extension              ...  16.81, 14.15, 14.56 au
Average spatial batch extension              ...   0.46,  0.41,  0.41 au

Time for grid setup =    0.070 sec

------------------------------
INITIAL GUESS: MODEL POTENTIAL
------------------------------
Loading Hartree-Fock densities                     ... done
Calculating cut-offs                               ... done
Setting up the integral package                    ... done
Initializing the effective Hamiltonian             ... done
Starting the Coulomb interaction                   ... done (   0.0 sec)
Reading the grid                                   ... done
Mapping shells                                     ... done
Starting the XC term evaluation                    ... done (   0.2 sec)
  promolecular density results
     # of electrons  =     17.997266208
     EX              =    -14.431571995
     EC              =     -0.575841992
     EX+EC           =    -15.007413987
Transforming the Hamiltonian                       ... done (   0.0 sec)
Diagonalizing the Hamiltonian                      ... done (   0.0 sec)
Back transforming the eigenvectors                 ... done (   0.0 sec)
Now organizing SCF variables                       ... done
                      ------------------
                      INITIAL GUESS DONE (   0.8 sec)
                      ------------------
--------------
SCF ITERATIONS
--------------
ITER       Energy         Delta-E        Max-DP      RMS-DP      [F,P]     Damp
               ***  Starting incremental Fock matrix formation  ***
  0   -115.6402465908   0.000000000000 0.03739160  0.00153011  0.2429976 0.7000
  1   -115.6779871874  -0.037740596661 0.02161426  0.00109075  0.1196792 0.7000
                               ***Turning on DIIS***
  2   -115.6953319740  -0.017344786544 0.03313122  0.00195579  0.0499704 0.0000
  3   -115.7234924970  -0.028160523010 0.01822480  0.00072809  0.0617926 0.0000
  4   -115.7281344460  -0.004641949061 0.00412678  0.00014250  0.0064009 0.0000
                      *** Initiating the SOSCF procedure ***
                           *** Shutting down DIIS ***
                      *** Re-Reading the Fockian *** 
                      *** Removing any level shift *** 
ITER      Energy       Delta-E        Grad      Rot      Max-DP    RMS-DP
  5   -115.72823063  -0.0000961877  0.000428  0.000428  0.000754  0.000050
               *** Restarting incremental Fock matrix formation ***
  6   -115.72823950  -0.0000088616  0.000136  0.000187  0.000418  0.000030
  7   -115.72824033  -0.0000008380  0.000047  0.000107  0.000196  0.000014
  8   -115.72824040  -0.0000000675  0.000024  0.000019  0.000038  0.000002
  9   -115.72824041  -0.0000000109  0.000012  0.000010  0.000017  0.000001
 10   -115.72824041  -0.0000000020  0.000003  0.000002  0.000005  0.000000
                  ***Gradient check signals convergence***
              ***Rediagonalizing the Fockian in SOSCF/NRSCF***

               *****************************************************
               *                     SUCCESS                       *
               *           SCF CONVERGED AFTER  11 CYCLES          *
               *****************************************************

Setting up the final grid:

General Integration Accuracy     IntAcc      ...  4.670
Radial Grid Type                 RadialGrid  ... Gauss-Chebyshev
Angular Grid (max. acc.)         AngularGrid ... Lebedev-302
Angular grid pruning method      GridPruning ... 3 (G Style)
Weight generation scheme         WeightScheme... Becke
Basis function cutoff            BFCut       ...    1.0000e-11
Integration weight cutoff        WCut        ...    1.0000e-14
Grids for H and He will be reduced by one unit

# of grid points (after initial pruning)     ...  26000 (   0.0 sec)
# of grid points (after weights+screening)   ...  25185 (   0.0 sec)
nearest neighbour list constructed           ...    0.0 sec
Grid point re-assignment to atoms done       ...    0.0 sec
Grid point division into batches done        ...    0.2 sec
Reduced shell lists constructed in    0.2 sec

Total number of grid points                  ...    25185
Total number of batches                      ...      396
Average number of points per batch           ...       63
Average number of grid points per atom       ...     4198
Average number of shells per batch           ...    31.45 (82.77%)
Average number of basis functions per batch  ...    71.92 (83.63%)
Average number of large shells per batch     ...    29.82 (94.83%)
Average number of large basis fcns per batch ...    68.76 (95.61%)
Maximum spatial batch extension              ...  16.05, 15.14, 15.76 au
Average spatial batch extension              ...   0.32,  0.31,  0.31 au

Final grid set up in    1.9 sec
Final integration                            ... done (   0.3 sec)
Change in XC energy                          ...     0.000064558
Integrated number of electrons               ...    18.000000114
Previous integrated no of electrons          ...    17.999261291

----------------
TOTAL SCF ENERGY
----------------

Total Energy       :         -115.72817586 Eh           -3149.12376 eV

Components:
Nuclear Repulsion  :           40.53285946 Eh            1102.95518 eV
Electronic Energy  :         -156.26103531 Eh           -4252.07894 eV
One Electron Energy:         -237.47926058 Eh           -6462.13921 eV
Two Electron Energy:           81.21822526 Eh            2210.06027 eV

Virial components:
Potential Energy   :         -230.98393015 Eh           -6285.39228 eV
Kinetic Energy     :          115.25575430 Eh            3136.26852 eV
Virial Ratio       :            2.00409890


DFT components:
N(Alpha)           :        9.000000056977 electrons
N(Beta)            :        9.000000056977 electrons
N(Total)           :       18.000000113954 electrons
E(XC)              :      -10.654641476198 Eh       
DFET-embed. en.    :        0.000000000000 Eh       

---------------
SCF CONVERGENCE
---------------

  Last Energy change         ...   -1.9249e-10  Tolerance :   1.0000e-08
  Last MAX-Density change    ...    2.1819e-06  Tolerance :   1.0000e-07
  Last RMS-Density change    ...    1.0099e-07  Tolerance :   5.0000e-09
  Last Orbital Gradient      ...    1.2421e-06  Tolerance :   1.0000e-05
  Last Orbital Rotation      ...    8.6077e-07  Tolerance :   1.0000e-05

             **** THE GBW FILE WAS UPDATED (185_charges.gbw) ****
             **** DENSITY FILE WAS UPDATED (185_charges.scfp.tmp) ****
             **** ENERGY FILE WAS UPDATED (185_charges.en.tmp) ****
----------------
ORBITAL ENERGIES
----------------

  NO   OCC          E(Eh)            E(eV) 
   0   2.0000     -19.229790      -523.2692 
   1   2.0000     -10.310969      -280.5757 
   2   2.0000      -1.135923       -30.9100 
   3   2.0000      -0.793687       -21.5973 
   4   2.0000      -0.613386       -16.6911 
   5   2.0000      -0.548055       -14.9133 
   6   2.0000      -0.525210       -14.2917 
   7   2.0000      -0.434496       -11.8232 
   8   2.0000      -0.364966        -9.9312 
   9   0.0000       0.109567         2.9815 
  10   0.0000       0.155068         4.2196 
  11   0.0000       0.199712         5.4344 
  12   0.0000       0.209290         5.6951 
  13   0.0000       0.233756         6.3608 
  14   0.0000       0.296623         8.0715 
  15   0.0000       0.319212         8.6862 
  16   0.0000       0.407442        11.0870 
  17   0.0000       0.436812        11.8863 
  18   0.0000       0.477582        12.9957 
  19   0.0000       0.518584        14.1114 
  20   0.0000       0.557566        15.1721 
  21   0.0000       0.579671        15.7737 
  22   0.0000       0.601324        16.3629 
  23   0.0000       0.617505        16.8032 
  24   0.0000       0.701002        19.0752 
  25   0.0000       0.749068        20.3832 
  26   0.0000       0.796697        21.6792 
  27   0.0000       0.868641        23.6369 
  28   0.0000       0.978318        26.6214 
  29   0.0000       1.053053        28.6550 
  30   0.0000       1.122541        30.5459 
  31   0.0000       1.366921        37.1958 
  32   0.0000       1.445738        39.3405 
  33   0.0000       1.538033        41.8520 
  34   0.0000       1.599910        43.5358 
  35   0.0000       1.636750        44.5382 
  36   0.0000       1.655464        45.0475 
  37   0.0000       1.698059        46.2065 
  38   0.0000       1.729757        47.0691 
  39   0.0000       1.772464        48.2312 
  40   0.0000       1.941258        52.8243 
  41   0.0000       2.007411        54.6244 
  42   0.0000       2.054210        55.8979 
  43   0.0000       2.061929        56.1079 
  44   0.0000       2.159288        58.7572 
  45   0.0000       2.242191        61.0131 
  46   0.0000       2.319766        63.1241 
  47   0.0000       2.362044        64.2745 
  48   0.0000       2.403684        65.4076 
  49   0.0000       2.455568        66.8194 
  50   0.0000       2.531677        68.8904 
  51   0.0000       2.562300        69.7237 
  52   0.0000       2.589892        70.4745 
  53   0.0000       2.716531        73.9206 
  54   0.0000       2.821481        76.7764 
  55   0.0000       2.870693        78.1155 
  56   0.0000       2.910259        79.1922 
  57   0.0000       2.996724        81.5450 
  58   0.0000       3.098207        84.3065 
  59   0.0000       3.147843        85.6572 
  60   0.0000       3.308696        90.0342 
  61   0.0000       3.390695        92.2655 
  62   0.0000       3.478249        94.6480 
  63   0.0000       3.531158        96.0877 
  64   0.0000       3.601118        97.9914 
  65   0.0000       3.662442        99.6601 
  66   0.0000       3.679321       100.1194 
  67   0.0000       3.980737       108.3214 
  68   0.0000       4.168960       113.4432 
  69   0.0000       4.272818       116.2693 
  70   0.0000       4.527155       123.1902 
  71   0.0000       4.557346       124.0117 
  72   0.0000       5.356347       145.7536 
  73   0.0000       5.420547       147.5006 
  74   0.0000       5.549485       151.0092 
  75   0.0000       5.819739       158.3632 
  76   0.0000       5.840935       158.9399 
  77   0.0000       5.978898       162.6941 
  78   0.0000       6.280783       170.9088 
  79   0.0000       6.521601       177.4618 
  80   0.0000       6.790330       184.7743 
  81   0.0000       6.817630       185.5172 
  82   0.0000       7.029485       191.2820 
  83   0.0000       7.186684       195.5596 
  84   0.0000      22.430000       610.3513 
  85   0.0000      43.680014      1188.5936 

                    ********************************
                    * MULLIKEN POPULATION ANALYSIS *
                    ********************************

-----------------------
MULLIKEN ATOMIC CHARGES
-----------------------
   0 C :   -0.157981
   1 O :   -0.473640
   2 H :    0.319721
   3 H :    0.094595
   4 H :    0.113845
   5 H :    0.103460
Sum of atomic charges:   -0.0000000

--------------------------------
MULLIKEN REDUCED ORBITAL CHARGES
--------------------------------
  0 C s       :     3.219978  s :     3.219978
      pz      :     0.989432  p :     2.826937
      px      :     1.080352
      py      :     0.757153
      dz2     :     0.029387  d :     0.102957
      dxz     :     0.017265
      dyz     :     0.013793
      dx2y2   :     0.014490
      dxy     :     0.028022
      f0      :     0.000676  f :     0.008109
      f+1     :     0.000239
      f-1     :     0.001854
      f+2     :     0.001245
      f-2     :     0.001426
      f+3     :     0.001845
      f-3     :     0.000825
  1 O s       :     3.794500  s :     3.794500
      pz      :     1.314030  p :     4.647057
      px      :     1.834523
      py      :     1.498504
      dz2     :     0.007367  d :     0.030409
      dxz     :     0.004151
      dyz     :     0.007476
      dx2y2   :     0.006880
      dxy     :     0.004535
      f0      :     0.000263  f :     0.001673
      f+1     :     0.000389
      f-1     :     0.000251
      f+2     :     0.000273
      f-2     :     0.000151
      f+3     :     0.000150
      f-3     :     0.000197
  2 H s       :     0.634693  s :     0.634693
      pz      :     0.017738  p :     0.045585
      px      :     0.017074
      py      :     0.010774
  3 H s       :     0.885721  s :     0.885721
      pz      :     0.004365  p :     0.019684
      px      :     0.011866
      py      :     0.003453
  4 H s       :     0.865643  s :     0.865643
      pz      :     0.012147  p :     0.020512
      px      :     0.005836
      py      :     0.002529
  5 H s       :     0.876310  s :     0.876310
      pz      :     0.006586  p :     0.020230
      px      :     0.005707
      py      :     0.007936


                     *******************************
                     * LOEWDIN POPULATION ANALYSIS *
                     *******************************

----------------------
LOEWDIN ATOMIC CHARGES
----------------------
   0 C :   -0.393864
   1 O :   -0.082036
   2 H :    0.182397
   3 H :    0.101634
   4 H :    0.100206
   5 H :    0.091663

-------------------------------
LOEWDIN REDUCED ORBITAL CHARGES
-------------------------------
  0 C s       :     2.859495  s :     2.859495
      pz      :     1.039098  p :     3.056029
      px      :     1.117332
      py      :     0.899600
      dz2     :     0.095812  d :     0.419080
      dxz     :     0.054669
      dyz     :     0.089684
      dx2y2   :     0.083446
      dxy     :     0.095468
      f0      :     0.005954  f :     0.059260
      f+1     :     0.002218
      f-1     :     0.013125
      f+2     :     0.009104
      f-2     :     0.010305
      f+3     :     0.011218
      f-3     :     0.007335
  1 O s       :     3.371645  s :     3.371645
      pz      :     1.329869  p :     4.633663
      px      :     1.747791
      py      :     1.556002
      dz2     :     0.020711  d :     0.072015
      dxz     :     0.009561
      dyz     :     0.016603
      dx2y2   :     0.013644
      dxy     :     0.011497
      f0      :     0.000492  f :     0.004713
      f+1     :     0.000621
      f-1     :     0.001183
      f+2     :     0.000686
      f-2     :     0.000618
      f+3     :     0.000593
      f-3     :     0.000519
  2 H s       :     0.668326  s :     0.668326
      pz      :     0.067364  p :     0.149277
      px      :     0.048628
      py      :     0.033285
  3 H s       :     0.842919  s :     0.842919
      pz      :     0.011928  p :     0.055447
      px      :     0.033635
      py      :     0.009884
  4 H s       :     0.837737  s :     0.837737
      pz      :     0.035147  p :     0.062057
      px      :     0.018136
      py      :     0.008775
  5 H s       :     0.843240  s :     0.843240
      pz      :     0.021398  p :     0.065096
      px      :     0.019211
      py      :     0.024488


                      *****************************
                      * MAYER POPULATION ANALYSIS *
                      *****************************

  NA   - Mulliken gross atomic population
  ZA   - Total nuclear charge
  QA   - Mulliken gross atomic charge
  VA   - Mayer's total valence
  BVA  - Mayer's bonded valence
  FA   - Mayer's free valence

  ATOM       NA         ZA         QA         VA         BVA        FA
  0 C      6.1580     6.0000    -0.1580     3.9704     3.9704    -0.0000
  1 O      8.4736     8.0000    -0.4736     1.8854     1.8854    -0.0000
  2 H      0.6803     1.0000     0.3197     0.9078     0.9078    -0.0000
  3 H      0.9054     1.0000     0.0946     0.9513     0.9513    -0.0000
  4 H      0.8862     1.0000     0.1138     0.9511     0.9511     0.0000
  5 H      0.8965     1.0000     0.1035     0.9684     0.9684    -0.0000

  Mayer bond orders larger than 0.1
B(  0-C ,  1-O ) :   1.0162 B(  0-C ,  3-H ) :   0.9791 B(  0-C ,  4-H ) :   0.9719 
B(  0-C ,  5-H ) :   0.9919 B(  1-O ,  2-H ) :   0.8963 


------------------
HIRSHFELD ANALYSIS
------------------

Total integrated alpha density =      8.999630646
Total integrated beta density  =      8.999630646

  ATOM     CHARGE      SPIN    
   0 C    0.004499    0.000000
   1 O   -0.255664    0.000000
   2 H    0.165713    0.000000
   3 H    0.018720    0.000000
   4 H    0.035993    0.000000
   5 H    0.031478    0.000000

  TOTAL   0.000739    0.000000

-------
TIMINGS
-------

Total SCF time: 0 days 0 hours 0 min 29 sec 

Total time                  ....      29.667 sec
Sum of individual times     ....      25.689 sec  ( 86.6%)

Fock matrix formation       ....      18.228 sec  ( 61.4%)
  XC integration            ....       4.270 sec  ( 23.4% of F)
    Basis function eval.    ....       0.040 sec  (  0.9% of XC)
    Density eval.           ....       0.054 sec  (  1.3% of XC)
    XC-Functional eval.     ....       0.075 sec  (  1.8% of XC)
    XC-Potential eval.      ....       0.054 sec  (  1.3% of XC)
Diagonalization             ....       1.585 sec  (  5.3%)
Density matrix formation    ....       1.874 sec  (  6.3%)
Population analysis         ....       0.482 sec  (  1.6%)
Initial guess               ....       0.690 sec  (  2.3%)
Orbital Transformation      ....       0.000 sec  (  0.0%)
Orbital Orthonormalization  ....       0.000 sec  (  0.0%)
DIIS solution               ....       0.285 sec  (  1.0%)
SOSCF solution              ....       0.574 sec  (  1.9%)
Grid generation             ....       1.970 sec  (  6.6%)


-------------------------------------------------------------------------------
                          DFT DISPERSION CORRECTION                            
                                                                               
                              DFTD3 V3.1  Rev 1                                
                              USING zero damping                               
-------------------------------------------------------------------------------
The omegaB97X-D3 functional is recognized. Fit by Chai et al.
Active option DFTDOPT                   ...         3   

molecular C6(AA) [au] = 208.730167 


            DFT-D V3
 parameters
 s6 scaling factor         :     1.0000 
 rs6 scaling factor        :     1.2810 
 s8 scaling factor         :     1.0000 
 rs8 scaling factor        :     1.0940 
 Damping factor alpha6     :    14.0000 
 Damping factor alpha8     :    16.0000 
 ad hoc parameters k1-k3   :    16.0000     1.3333    -4.0000 

 Edisp/kcal,au: -0.149032327874  -0.000237498107 
 E6   /kcal   :  -0.031909570 
 E8   /kcal   :  -0.117122758 
 % E8         :  78.588826909 

-------------------------   ----------------
Dispersion correction           -0.000237498
-------------------------   ----------------


-------------------------   --------------------
FINAL SINGLE POINT ENERGY      -115.728413353854
-------------------------   --------------------


                            ***************************************
                            *     ORCA property calculations      *
                            ***************************************

                                    ---------------------
                                    Active property flags
                                    ---------------------
   (+) Dipole Moment


------------------------------------------------------------------------------
                       ORCA ELECTRIC PROPERTIES CALCULATION
------------------------------------------------------------------------------

Dipole Moment Calculation                       ... on
Quadrupole Moment Calculation                   ... off
Polarizability Calculation                      ... off
GBWName                                         ... 185_charges.gbw
Electron density file                           ... 185_charges.scfp.tmp
The origin for moment calculation is the CENTER OF MASS  = (17.283447, -23.293805 -12.124142)

-------------
DIPOLE MOMENT
-------------
                                X             Y             Z
Electronic contribution:     -0.18450      -1.61153       0.79871
Nuclear contribution   :     -0.03214       2.20455      -0.49783
                        -----------------------------------------
Total Dipole Moment    :     -0.21664       0.59302       0.30088
                        -----------------------------------------
Magnitude (a.u.)       :      0.69938
Magnitude (Debye)      :      1.77768



--------------------
Rotational spectrum 
--------------------
 
Rotational constants in cm-1:     4.312362     0.849250     0.805308 
Rotational constants in MHz : 129281.350297 25459.887389 24142.520705 

 Dipole components along the rotational axes: 
x,y,z [a.u.] :     0.309245     0.627199     0.011094 
x,y,z [Debye]:     0.786038     1.594212     0.028200 

 
------------------------------------------------------------------------------
                      ORCA CHELPG CHARGES GENERATION
------------------------------------------------------------------------------

GBW file                           ... 185_charges.gbw

Reading the GBW file               ... done

Grid spacing                       ...     0.300000
Point Cut-Off                      ...     2.800000
Van-der-Waals Radii                ...        COSMO
Total charge                       ...            0


Number of points X direction       ...           23
Number of points Y direction       ...           25
Number of points Z direction       ...           27
Maximum number of possible points  ...        15525
Final number of points             ...         5909


CHELPG Charges            
--------------------------------
  0   C   :       0.007945
  1   O   :      -0.580248
  2   H   :       0.402199
  3   H   :       0.053192
  4   H   :       0.083757
  5   H   :       0.033155
--------------------------------
Total charge:    -0.000000
--------------------------------

CHELPG charges calculated...

Timings for individual parts in CHELPG calculation:
Grid generation                 ...        0.001 sec (=   0.000 min)
Potential calculation           ...        0.614 sec (=   0.010 min)
Fit to the potential            ...        0.001 sec (=   0.000 min)
------------------------------------------------------------------------------


Timings for individual modules:

Sum of individual times         ...       39.264 sec (=   0.654 min)
GTO integral calculation        ...        5.453 sec (=   0.091 min)  13.9 %
SCF iterations                  ...       33.127 sec (=   0.552 min)  84.4 %
CHELPG charge generation        ...        0.685 sec (=   0.011 min)   1.7 %
                             ****ORCA TERMINATED NORMALLY****
TOTAL RUN TIME: 0 days 0 hours 0 minutes 41 seconds 424 msec
