LAMMPS data file via vdw_self_gen.py, on 2021-08-05 13:21:43.374802

8000 atoms
5 atom types
7500 bonds
4 bond types
13500 angles
6 angle types
16500 dihedrals
3 dihedral types

-43.4043773302676428  43.4043773302676357 xlo xhi
-43.4043773302676428  43.4043773302676357 ylo yhi
-43.4043773302676428  43.4043773302676357 zlo zhi

Masses

1  1.007940
2  1.007940
3  12.011000
4  12.011000
5  14.006740

Atoms

1         0    4   -0.2107550625000000  -33.4817865113829498  33.6976714293877535 -15.8787796922005242 0 0 0
2         0    3    0.7014959374999999  -33.8761518563970441  33.7946795025160469 -14.4003230222233984 0 0 0
3         0    4   -0.2107550625000000  -33.7436329958003896  32.4234780076486828 -13.7292282901179608 0 0 0
4         0    4   -0.2107550625000000  -32.9880034938941478  34.8179773690816106 -13.6847753076957179 0 0 0
5         0    5   -1.0289210625000000  -35.2718131583431145  34.2332130357357229 -14.2962748862859357 0 0 0
6         0    1    0.0285689375000000  -32.4410600787597971  33.3712542728669135 -15.9864348233756832 0 0 0
7         0    1    0.0285689375000000  -33.5784733967762037  34.6659234786285850 -16.3837042223373288 0 0 0
8         0    1    0.0285689375000000  -34.1111900314982961  32.9778776157150944 -16.4150243690645326 0 0 0
9         0    1    0.0285689375000000  -32.7099739480833520  32.0619125178375342 -13.7759076372678013 0 0 0
10        0    1    0.0285689375000000  -34.3778715071967085  31.6744595442222518 -14.2178195473136793 0 0 0
11        0    1    0.0285689375000000  -34.0316046557553662  32.4653890806991470 -12.6721906458883247 0 0 0
12        0    1    0.0285689375000000  -31.9335304603050822  34.5223854425349899 -13.7302518488344312 0 0 0
13        0    1    0.0285689375000000  -33.2591449923352371  34.9133412973340498 -12.6268076450937912 0 0 0
14        0    1    0.0285689375000000  -33.0724445171834418  35.8113786201521478 -14.1411312069205906 0 0 0
15        0    2    0.3512849375000000  -35.8785244820044369  33.5793915867483506 -14.7900698515145983 0 0 0
16        0    2    0.3512849375000000  -35.3881562465040034  35.1330295311106866 -14.7612894319598329 0 0 0
17        1    4   -0.2107550625000000   22.8480610056248636  33.1731697705761732  14.1132581171837899 0 0 0
18        1    3    0.7014959374999999   24.1615576279684845  33.8025100907555469  14.5922425648315386 0 0 0
19        1    4   -0.2107550625000000   25.3310883129312394  32.8503421291307731  14.3207705088370538 0 0 0
20        1    4   -0.2107550625000000   24.3955067973331126  35.1387268156458390  13.8796787293914612 0 0 0
21        1    5   -1.0289210625000000   24.0852507442476202  34.0496193541210062  16.0358915580275259 0 0 0
22        1    1    0.0285689375000000   22.8772461928502295  32.9773238224072642  13.0352776515294053 0 0 0
23        1    1    0.0285689375000000   21.9938650596368248  33.8325933370496514  14.3064394093344323 0 0 0
24        1    1    0.0285689375000000   22.6534366234776847  32.2193591083267776  14.6174176646022609 0 0 0
25        1    1    0.0285689375000000   25.4303024758981380  32.6462896971030148  13.2484465155167808 0 0 0
26        1    1    0.0285689375000000   25.1919023428487208  31.8886237645167299  14.8284452249656802 0 0 0
27        1    1    0.0285689375000000   26.2813625984966350  33.2746343112015026  14.6656874883072490 0 0 0
28        1    1    0.0285689375000000   24.4689236452513939  34.9977146931757517  12.7952057563957133 0 0 0
29        1    1    0.0285689375000000   25.3248391636387957  35.6140727239801578  14.2147834689379131 0 0 0
30        1    1    0.0285689375000000   23.5754185295846561  35.8421582473146145  14.0664312202496635 0 0 0
31        1    2    0.3512849375000000   23.9025113944660497  33.1757252611584406  16.5281618388962173 0 0 0
32        1    2    0.3512849375000000   23.2954148659022877  34.6604992057563237  16.2418747110873412 0 0 0
33        2    4   -0.2107550625000000   13.2507867169336091  24.6993073998778243 -4.3272374675719263  0 0 0
34        2    3    0.7014959374999999   14.5771913798097739  24.0593081789317935 -4.7536414826665760  0 0 0
35        2    4   -0.2107550625000000   14.3106310053551180  22.8051241973260588 -5.5927428081655801  0 0 0
36        2    4   -0.2107550625000000   15.4109181158157416  25.0622765601116448 -5.5579478455173952  0 0 0
37        2    5   -1.0289210625000000   15.3363676046916009  23.6708809912327673 -3.5604173111336661  0 0 0
38        2    1    0.0285689375000000   12.6616254471084062  24.9999813172469558 -5.2011559354233929  0 0 0
39        2    1    0.0285689375000000   13.4158610471559072  25.5942746388656808 -3.7160146993113656  0 0 0
40        2    1    0.0285689375000000   12.6402143641435067  24.0030368363190014 -3.7405356837585155  0 0 0
41        2    1    0.0285689375000000   13.7519630783716735  23.0530350238670465 -6.5025724412528891  0 0 0
42        2    1    0.0285689375000000   13.7227169525821360  22.0665741174887913 -5.0351502951021301  0 0 0
43        2    1    0.0285689375000000   15.2459091644993840  22.3228240648545153 -5.9004019434852584  0 0 0
44        2    1    0.0285689375000000   14.8825500093283818  25.3723818504686029 -6.4668031334150884  0 0 0
45        2    1    0.0285689375000000   16.3707216790138652  24.6303661714981494 -5.8647671773397558  0 0 0
46        2    1    0.0285689375000000   15.6235871295535311  25.9662133998724656 -4.9749323061713149  0 0 0
47        2    2    0.3512849375000000   14.7875694319378841  23.0232571193359199 -2.9957771857161437  0 0 0
48        2    2    0.3512849375000000   15.5013993017934979  24.4878455128595114 -2.9732397600004101  0 0 0
49        3    4   -0.2107550625000000  -4.7328768924679139  -23.5314427337648624 -25.4264083733925190 0 0 0
50        3    3    0.7014959374999999  -4.8403058976866022  -24.0528645335476803 -23.9885811820551957 0 0 0
51        3    4   -0.2107550625000000  -6.0471651289461956  -24.9878517114983971 -23.8566239905449926 0 0 0
52        3    4   -0.2107550625000000  -3.5565479803266111  -24.7938486980360722 -23.6001707716733620 0 0 0
53        3    5   -1.0289210625000000  -5.0226643040025092  -22.9219620293387827 -23.0727137889682048 0 0 0
54        3    1    0.0285689375000000  -4.5957043982568102  -24.3572808875151132 -26.1338151485525252 0 0 0
55        3    1    0.0285689375000000  -3.8812898457390674  -22.8510574009381919 -25.5433889979333912 0 0 0
56        3    1    0.0285689375000000  -5.6371051525865292  -22.9878171624563841 -25.7241545247066767 0 0 0
57        3    1    0.0285689375000000  -5.9462188804576055  -25.8549465382266987 -24.5194331698546186 0 0 0
58        3    1    0.0285689375000000  -6.9810162358414765  -24.4775614422337462 -24.1203179717889071 0 0 0
59        3    1    0.0285689375000000  -6.1514339149488384  -25.3651473335898103 -22.8325200748625079 0 0 0
60        3    1    0.0285689375000000  -3.3869816069469945  -25.6555817990596857 -24.2559294079253895 0 0 0
61        3    1    0.0285689375000000  -3.6052326262101051  -25.1667493498653769 -22.5703734735508270 0 0 0
62        3    1    0.0285689375000000  -2.6780575541099676  -24.1422807985092724 -23.6773127327057402 0 0 0
63        3    2    0.3512849375000000  -5.8583888721386010  -22.3980702962173552 -23.3306216858631359 0 0 0
64        3    2    0.3512849375000000  -4.2423481853655964  -22.2722246653594063 -23.1643220857788599 0 0 0
65        4    4   -0.2107550625000000  -34.8520051380175886 -34.0370818538569537 -25.0070903634194224 0 0 0
66        4    3    0.7014959374999999  -33.6787698757357603 -33.8459972559486033 -24.0387028312915554 0 0 0
67        4    4   -0.2107550625000000  -32.5080863581222275 -33.1672796653904598 -24.7577059336874647 0 0 0
68        4    4   -0.2107550625000000  -34.1192099139487937 -33.0013052470931214 -22.8385101166766908 0 0 0
69        4    5   -1.0289210625000000  -33.2320744492225515 -35.1548528369592006 -23.5504729591108557 0 0 0
70        4    1    0.0285689375000000  -35.2068437775185643 -33.0727317409714772 -25.3883615196781527 0 0 0
71        4    1    0.0285689375000000  -35.6994125595817167 -34.5310264992100286 -24.5174695764780850 0 0 0
72        4    1    0.0285689375000000  -34.5635994358937992 -34.6480459930198705 -25.8704299550283103 0 0 0
73        4    1    0.0285689375000000  -32.7971393936984654 -32.1781529252058718 -25.1311175380545215 0 0 0
74        4    1    0.0285689375000000  -32.1676091094328100 -33.7578754236904715 -25.6163563036885016 0 0 0
75        4    1    0.0285689375000000  -31.6516012345417721 -33.0299966638040061 -24.0871841914144795 0 0 0
76        4    1    0.0285689375000000  -34.4526661981322064 -32.0076186520375146 -23.1590564296259949 0 0 0
77        4    1    0.0285689375000000  -33.2987179565010294 -32.8603750252785005 -22.1251804688680416 0 0 0
78        4    1    0.0285689375000000  -34.9511638342154853 -33.4712185020565656 -22.3006706925336324 0 0 0
79        4    2    0.3512849375000000  -32.9595122825637858 -35.7437748664212123 -24.3367905117704773 0 0 0
80        4    2    0.3512849375000000  -34.0049508150930180 -35.6360291812757310 -23.0915879888306748 0 0 0
81        5    4   -0.2107550625000000  -4.7462419771945807  -35.1948831016887098 -4.8756625433743377  0 0 0
82        5    3    0.7014959374999999  -4.7251162667553785  -33.6620395427648305 -4.8489596442053040  0 0 0
83        5    4   -0.2107550625000000  -5.7429958570138115  -33.1041721732870187 -5.8493735911328830  0 0 0
84        5    4   -0.2107550625000000  -5.0432083126003713  -33.1558133513492308 -3.4381063340433280  0 0 0
85        5    5   -1.0289210625000000  -3.3899331925776557  -33.1866877086978462 -5.2262326705118021  0 0 0
86        5    1    0.0285689375000000  -5.7344622015031810  -35.5783646822183215 -4.5970733107001793  0 0 0
87        5    1    0.0285689375000000  -4.0176763862894020  -35.6179999369160001 -4.1742543246484498  0 0 0
88        5    1    0.0285689375000000  -4.5109909945254367  -35.5815717717361082 -5.8741309336652749  0 0 0
89        5    1    0.0285689375000000  -6.7592320030021815  -33.4283981770686225 -5.5973791748087862  0 0 0
90        5    1    0.0285689375000000  -5.5311562801354448  -33.4448000367678091 -6.8697192270761667  0 0 0
91        5    1    0.0285689375000000  -5.7381528619013009  -32.0078421736373357 -5.8564357130857507  0 0 0
92        5    1    0.0285689375000000  -6.0401544617020910  -33.4814820648698728 -3.1196815450820017  0 0 0
93        5    1    0.0285689375000000  -5.0226987741310216  -32.0606866477243386 -3.3913684699560154  0 0 0
94        5    1    0.0285689375000000  -4.3220788900862468  -33.5341131436588569 -2.7038729502184484  0 0 0
95        5    2    0.3512849375000000  -3.1466151587649875  -33.5354591911562707 -6.1528228563789318  0 0 0
96        5    2    0.3512849375000000  -2.6926238578483064  -33.5690486286784306 -4.5882641871437642  0 0 0
97        6    4   -0.2107550625000000   14.5698076588169787 -34.2939561697786104  22.7816397933609700 0 0 0
98        6    3    0.7014959374999999   14.5681489917049092 -33.7181111475802808  24.2026142744241710 0 0 0
99        6    4   -0.2107550625000000   13.8099716050484194 -32.3867444901611066  24.2300514986864961 0 0 0
100       6    4   -0.2107550625000000   13.9202457100245471 -34.7118914827647842  25.1724475344685885 0 0 0
101       6    5   -1.0289210625000000   15.9496826977214692 -33.4783523644237491  24.6326008894942596 0 0 0
102       6    1    0.0285689375000000   13.5477618099667563 -34.4833123323470332  22.4340540896195790 0 0 0
103       6    1    0.0285689375000000   15.1161988223070090 -35.2431912106992513  22.7345367218221028 0 0 0
104       6    1    0.0285689375000000   15.0384741610997228 -33.6040215682256544  22.0701960260693966 0 0 0
105       6    1    0.0285689375000000   12.7663809463095852 -32.5229919477308798  23.9239228343983754 0 0 0
106       6    1    0.0285689375000000   14.2605880823597992 -31.6541019009782154  23.5502072581498361 0 0 0
107       6    1    0.0285689375000000   13.8049962558505932 -31.9493088569117454  25.2353564817459137 0 0 0
108       6    1    0.0285689375000000   12.8797038611729882 -34.9122069007124551  24.8922646022242482 0 0 0
109       6    1    0.0285689375000000   13.9177827559554501 -34.3263657596331413  26.1987376575629618 0 0 0
110       6    1    0.0285689375000000   14.4511861995967958 -35.6712169577329803  25.1782671916596179 0 0 0
111       6    2    0.3512849375000000   16.4087982570719433 -32.8394461242395366  23.9841980019960914 0 0 0
112       6    2    0.3512849375000000   16.4802846130870719 -34.3481431183001575  24.5955925244740961 0 0 0
113       7    4   -0.2107550625000000  -14.1058966944315234  22.7230898065189706  33.8361360221753031 0 0 0
114       7    3    0.7014959374999999  -14.4858927665488419  24.2082754797225981  33.8605331098316711 0 0 0
115       7    4   -0.2107550625000000  -13.4478708745164965  25.0298425955415667  33.0887423653507042 0 0 0
116       7    4   -0.2107550625000000  -15.8754155109526476  24.4061675476598658  33.2456999279587180 0 0 0
117       7    5   -1.0289210625000000  -14.5174187771224013  24.6802184804212210  35.2487996760389279 0 0 0
118       7    1    0.0285689375000000  -14.0747186787335323  22.3431118489806337  32.8085690034256032 0 0 0
119       7    1    0.0285689375000000  -14.8295097598714989  22.1151033568163413  34.3916049900776954 0 0 0
120       7    1    0.0285689375000000  -13.1181666245814892  22.5547980497259424  34.2809702300657975 0 0 0
121       7    1    0.0285689375000000  -13.3990450433145512  24.7150081196568152  32.0400027013721598 0 0 0
122       7    1    0.0285689375000000  -12.4449334490194410  24.9125464849767830  33.5157865170302571 0 0 0
123       7    1    0.0285689375000000  -13.6926248400178761  26.0984565655474583  33.1018753688000587 0 0 0
124       7    1    0.0285689375000000  -15.8934662161516904  24.0741307620401059  32.2012949172291059 0 0 0
125       7    1    0.0285689375000000  -16.1743321357588066  25.4608134514310294  33.2623863048328161 0 0 0
126       7    1    0.0285689375000000  -16.6388974340081788  23.8349520751350852  33.7870364923211426 0 0 0
127       7    2    0.3512849375000000  -13.6083681986321459  24.5324611400795689  35.6860746458481799 0 0 0
128       7    2    0.3512849375000000  -15.1834554244329993  24.1277116159027187  35.7878500598614337 0 0 0
129       8    4   -0.2107550625000000  -25.2631998734178786  33.3281053898669342 -24.8639956001108011 0 0 0
130       8    3    0.7014959374999999  -24.1016862141378851  33.7950325501961544 -23.9787646907696868 0 0 0
131       8    4   -0.2107550625000000  -23.0131949091323378  32.7176974938092826 -23.9272013064043847 0 0 0
132       8    4   -0.2107550625000000  -23.5197213022477030  35.1044936133998036 -24.5215198239395313 0 0 0
133       8    5   -1.0289210625000000  -24.5915469780358720  34.0303126133873093 -22.6165283427162223 0 0 0
134       8    1    0.0285689375000000  -24.9249014451442577  33.1443823263658359 -25.8901775061417894 0 0 0
135       8    1    0.0285689375000000  -26.0604576292810322  34.0792594310527548 -24.9082318174700781 0 0 0
136       8    1    0.0285689375000000  -25.7033636680613498  32.3966460564841441 -24.4892295091431791 0 0 0
137       8    1    0.0285689375000000  -22.6112839674838533  32.5176537779850889 -24.9271061511483722 0 0 0
138       8    1    0.0285689375000000  -23.4028534122689962  31.7719291153984607 -23.5326167275984410 0 0 0
139       8    1    0.0285689375000000  -22.1756671045664788  33.0247206139919598 -23.2897871737148208 0 0 0
140       8    1    0.0285689375000000  -23.1317874583291392  34.9702039816202870 -25.5378021217973128 0 0 0
141       8    1    0.0285689375000000  -22.6935682236460785  35.4647736327359624 -23.8973588154776238 0 0 0
142       8    1    0.0285689375000000  -24.2780843109249922  35.8954981761985152 -24.5593928684637959 0 0 0
143       8    2    0.3512849375000000  -25.0083452639066124  33.1770094007010385 -22.2456275457172303 0 0 0
144       8    2    0.3512849375000000  -25.3370256195724046  34.7256441590260465 -22.6313473795435911 0 0 0
145       9    4   -0.2107550625000000  -34.0818296261852751  13.8935285868877596  6.1018174099520497  0 0 0
146       9    3    0.7014959374999999  -33.6693296381806348  14.5704200719633690  4.7894034531806664  0 0 0
147       9    4   -0.2107550625000000  -33.0591219477823586  13.5390269444071869  3.8344177368431591  0 0 0
148       9    4   -0.2107550625000000  -34.8847534817833278  15.2368312833697424  4.1362606303509732  0 0 0
149       9    5   -1.0289210625000000  -32.6643309725086226  15.6015885138571591  5.0681102355520142  0 0 0
150       9    1    0.0285689375000000  -34.8339271572743954  13.1166284046986910  5.9228629309797096  0 0 0
151       9    1    0.0285689375000000  -34.5124883424019302  14.6144896381500313  6.8064856996525425  0 0 0
152       9    1    0.0285689375000000  -33.2254557892894340  13.4176064982969478  6.5936835460822554  0 0 0
153       9    1    0.0285689375000000  -33.7830095973939066  12.7527512263318528  3.5912783576694012  0 0 0
154       9    1    0.0285689375000000  -32.1804389469739149  13.0539806504831688  4.2756147918433660  0 0 0
155       9    1    0.0285689375000000  -32.7455309316232643  14.0024654916816775  2.8916037659112366  0 0 0
156       9    1    0.0285689375000000  -35.6589383917016676  14.4973298631555636  3.9014597441602463  0 0 0
157       9    1    0.0285689375000000  -34.6118884401128568  15.7381697999737682  3.2002521224284015  0 0 0
158       9    1    0.0285689375000000  -35.3344990635808216  15.9872301862162605  4.7972201125133589  0 0 0
159       9    2    0.3512849375000000  -31.8566011946426428  15.1832129052257248  5.5284894717810618  0 0 0
160       9    2    0.3512849375000000  -33.0412188107845282  16.2847523633951212  5.7243774671308785  0 0 0
161       10   4   -0.2107550625000000  -5.8634523515384629  -14.7848331040547336 -5.7645551274431135  0 0 0
162       10   3    0.7014959374999999  -4.8285135034884270  -14.4502023751533475 -4.6839568798636524  0 0 0
163       10   4   -0.2107550625000000  -3.7483689950198924  -15.5360481894270901 -4.6354838373612397  0 0 0
164       10   4   -0.2107550625000000  -4.1905526944569891  -13.0867913589875080 -4.9704372045590484  0 0 0
165       10   5   -1.0289210625000000  -5.4909372451292668  -14.3909929229721971 -3.3767854406932041  0 0 0
166       10   1    0.0285689375000000  -5.3948616157071543  -14.8355501500723292 -6.7540498461942251  0 0 0
167       10   1    0.0285689375000000  -6.6535073761650541  -14.0262642353520572 -5.8114112401437632  0 0 0
168       10   1    0.0285689375000000  -6.3417764805564287  -15.7529140366415330 -5.5752521576801453  0 0 0
169       10   1    0.0285689375000000  -3.2199598992655210  -15.6070476330844414 -5.5931385237301878  0 0 0
170       10   1    0.0285689375000000  -4.1790568437954452  -16.5214345748924210 -4.4221057392427330  0 0 0
171       10   1    0.0285689375000000  -3.0017931528807611  -15.3240429571175323 -3.8610865945280661  0 0 0
172       10   1    0.0285689375000000  -3.6743473441404402  -13.0903151563828519 -5.9373269090013343  0 0 0
173       10   1    0.0285689375000000  -3.4539163140998381  -12.8201358405981889 -4.2035152764941186  0 0 0
174       10   1    0.0285689375000000  -4.9431249179967915  -12.2899538816973095 -5.0008036653693875  0 0 0
175       10   2    0.3512849375000000  -5.9461249709110859  -15.2813307980211128 -3.1779961360238032  0 0 0
176       10   2    0.3512849375000000  -6.2330437708798758  -13.6921552136394702 -3.3954328977034072  0 0 0
177       11   4   -0.2107550625000000   5.5424030520069678  -6.0571455546593800   4.9922116009286324  0 0 0
178       11   3    0.7014959374999999   4.8679316431320965  -4.6902437540799014   4.8265719233663429  0 0 0
179       11   4   -0.2107550625000000   4.2398604280490231  -4.5786708743462325   3.4333020397142247  0 0 0
180       11   4   -0.2107550625000000   3.7948929859072660  -4.4988774291022100   5.9035684596029547  0 0 0
181       11   5   -1.0289210625000000   5.8715937801120548  -3.6309153678218715   4.9731796617731696  0 0 0
182       11   1    0.0285689375000000   4.8138672698689211  -6.8692176375584530   4.8872171190713241  0 0 0
183       11   1    0.0285689375000000   6.0087220881065377  -6.1569527969561113   5.9793256960343033  0 0 0
184       11   1    0.0285689375000000   6.3224146134534198  -6.2131775706629542   4.2378600563608959  0 0 0
185       11   1    0.0285689375000000   3.4741684205704364  -5.3488130823935167   3.2851253854549212  0 0 0
186       11   1    0.0285689375000000   4.9902085829389424  -4.7027569806284406   2.6436256191589260  0 0 0
187       11   1    0.0285689375000000   3.7604240843476431  -3.6036063830770599   3.2870049908573011  0 0 0
188       11   1    0.0285689375000000   3.0169595824054838  -5.2668341202446598   5.8234546552638804  0 0 0
189       11   1    0.0285689375000000   3.3055930495769181  -3.5220538040803713   5.8124161474748393  0 0 0
190       11   1    0.0285689375000000   4.2215648377126795  -4.5649472190542548   6.9114488853145710  0 0 0
191       11   2    0.3512849375000000   6.6107345772887198  -3.7553977531316161   4.2821010824519554  0 0 0
192       11   2    0.3512849375000000   6.3219984805542015  -3.7037271482343992   5.8849241532030749  0 0 0
193       12   4   -0.2107550625000000  -25.1372050747308471 -32.7481578900231796  4.8530512477713552  0 0 0
194       12   3    0.7014959374999999  -24.1234134142316741 -33.8973033961398755  4.8034549628888996  0 0 0
195       12   4   -0.2107550625000000  -23.1278822301503197 -33.6718846605572679  3.6605520875010140  0 0 0
196       12   4   -0.2107550625000000  -23.3772462280898310 -33.9988115056238556  6.1379530720423547  0 0 0
197       12   5   -1.0289210625000000  -24.8300478761696581 -35.1602945152931667  4.5656960214345306  0 0 0
198       12   1    0.0285689375000000  -24.6354652540112298 -31.7899344612579533  5.0300097394288290  0 0 0
199       12   1    0.0285689375000000  -25.8675237718028903 -32.8924847127674482  5.6577956387077171  0 0 0
200       12   1    0.0285689375000000  -25.6917258433323781 -32.6620379377036940  3.9112973787577703  0 0 0
201       12   1    0.0285689375000000  -22.5692414408177520 -32.7399557345386540  3.8047343927388244  0 0 0
202       12   1    0.0285689375000000  -23.6371242086455027 -33.6051612146694296  2.6919297908305451  0 0 0
203       12   1    0.0285689375000000  -22.3985020052509505 -34.4880298862804651  3.5979082182479925  0 0 0
204       12   1    0.0285689375000000  -22.8254967542495955 -33.0758818640106895  6.3503900654046932  0 0 0
205       12   1    0.0285689375000000  -22.6535027703545673 -34.8222487004655576  6.1305937489330073  0 0 0
206       12   1    0.0285689375000000  -24.0680646617465683 -34.1699648371905340  6.9720474717440162  0 0 0
207       12   2    0.3512849375000000  -25.3562201554662359 -35.1045949029577926  3.6942289418580705  0 0 0
208       12   2    0.3512849375000000  -25.5180256911068639 -35.3166161127400073  5.3016946977416959  0 0 0
209       13   4   -0.2107550625000000  -4.2024974494465841   34.6696734739951822  32.8335060023121059 0 0 0
210       13   3    0.7014959374999999  -4.9486896175592276   33.6979485328272119  33.7553067419296582 0 0 0
211       13   4   -0.2107550625000000  -4.1663164114392366   32.3864197563385190  33.8814311336529457 0 0 0
212       13   4   -0.2107550625000000  -5.1433538550397824   34.3287806370516506  35.1380978542188132 0 0 0
213       13   5   -1.0289210625000000  -6.2677837147733921   33.4026085522248835  33.1862960191374299 0 0 0
214       13   1    0.0285689375000000  -3.2111379177880650   34.9083595183692594  33.2353574003573087 0 0 0
215       13   1    0.0285689375000000  -4.7488527206909614   35.6132099893591700  32.7192959871721598 0 0 0
216       13   1    0.0285689375000000  -4.0600930960078232   34.2438882299379372  31.8333869069715547 0 0 0
217       13   1    0.0285689375000000  -3.1742987638335611   32.5611744298403494  34.3135438304441607 0 0 0
218       13   1    0.0285689375000000  -4.0217877033102400   31.9097081447700894  32.9047704676985902 0 0 0
219       13   1    0.0285689375000000  -4.6868313301440052   31.6701293141423896  34.5279642094690686 0 0 0
220       13   1    0.0285689375000000  -4.1782535429874859   34.5570626566971271  35.6048148868876027 0 0 0
221       13   1    0.0285689375000000  -5.6856900986056074   33.6558726045605781  35.8126152704683136 0 0 0
222       13   1    0.0285689375000000  -5.7098023132389475   35.2655239728624892  35.0757672372014326 0 0 0
223       13   2    0.3512849375000000  -6.1620463351861954   33.0063284078338484  32.2529170827887199 0 0 0
224       13   2    0.3512849375000000  -6.7959026059803112   34.2666741114088964  33.0682913015097171 0 0 0
225       14   4   -0.2107550625000000   32.5313518982605530  4.8145246239320976   15.2187501920494856 0 0 0
226       14   3    0.7014959374999999   33.8508929972631094  4.9259818737349494   14.4459906653469581 0 0 0
227       14   4   -0.2107550625000000   34.8812480731371792  3.9477852737868386   15.0201184881098619 0 0 0
228       14   4   -0.2107550625000000   33.6173656088009096  4.6313452439680116   12.9605248176959247 0 0 0
229       14   5   -1.0289210625000000   34.3773655777101155  6.2887543293184143   14.5751649679015092 0 0 0
230       14   1    0.0285689375000000   32.1144612160010183  3.8040186593687566   15.1391942398704114 0 0 0
231       14   1    0.0285689375000000   31.7803160234447297  5.5133530676261167   14.8322361731267165 0 0 0
232       14   1    0.0285689375000000   32.6713369037105892  5.0314797534109461   16.2841820053730650 0 0 0
233       14   1    0.0285689375000000   34.5304551857161073  2.9129429203534634   14.9340647521347964 0 0 0
234       14   1    0.0285689375000000   35.0732906050102500  4.1441980273520569   16.0815092081977653 0 0 0
235       14   1    0.0285689375000000   35.8383875108475038  4.0173834379501994   14.4899741788650509 0 0 0
236       14   1    0.0285689375000000   33.2317347961240444  3.6153446183437303   12.8177393616954376 0 0 0
237       14   1    0.0285689375000000   34.5462581090213376  4.7162447742720959   12.3844533300414916 0 0 0
238       14   1    0.0285689375000000   32.8896463936151093  5.3252339683236798   12.5232832130178959 0 0 0
239       14   2    0.3512849375000000   34.5146966489165052  6.5156448166526939   15.5595812765527395 0 0 0
240       14   2    0.3512849375000000   33.6945547846405091  6.9591020876372589   14.2232455581148880 0 0 0
241       15   4   -0.2107550625000000   5.0730432963564436  -34.1342319337043136  6.1891015154650884  0 0 0
242       15   3    0.7014959374999999   4.9044142791842784  -33.6920933617377898  4.7307303506558842  0 0 0
243       15   4   -0.2107550625000000   4.6624600715945306  -34.9120335933508272  3.8355616960876437  0 0 0
244       15   4   -0.2107550625000000   3.7333154026483975  -32.7113018303970904  4.6101900556223772  0 0 0
245       15   5   -1.0289210625000000   6.1270196393611158  -33.0178259064056405  4.2817229163669364  0 0 0
246       15   1    0.0285689375000000   4.1720269205596257  -34.6422131542919374  6.5515568437143861  0 0 0
247       15   1    0.0285689375000000   5.2578526266010002  -33.2782256333775095  6.8485769820712221  0 0 0
248       15   1    0.0285689375000000   5.9128840648280558  -34.8296644896266585  6.3024651894366617  0 0 0
249       15   1    0.0285689375000000   3.7493740321386575  -35.4411738694782485  4.1316090648153478  0 0 0
250       15   1    0.0285689375000000   5.4923823036694657  -35.6258144236509793  3.8968363197404994  0 0 0
251       15   1    0.0285689375000000   4.5499050677001804  -34.6214852979504357  2.7844071615693973  0 0 0
252       15   1    0.0285689375000000   2.7946421299742754  -33.1798106029767084  4.9275984653774039  0 0 0
253       15   1    0.0285689375000000   3.6000763895158983  -32.3716318834559758  3.5763722483543363  0 0 0
254       15   1    0.0285689375000000   3.8872133388308647  -31.8236752145850339  5.2352272184701576  0 0 0
255       15   2    0.3512849375000000   6.9248253512204876  -33.6450345662234298  4.3793442678947914  0 0 0
256       15   2    0.3512849375000000   6.3219025618480176  -32.2171465710069853  4.8820371803891591  0 0 0
257       16   4   -0.2107550625000000   22.7916532723379532 -24.6095600364843854  24.3912131089492838 0 0 0
258       16   3    0.7014959374999999   24.2047384432466899 -24.0473298140023353  24.1966464281285027 0 0 0
259       16   4   -0.2107550625000000   25.1693283150068545 -25.1718885966014660  23.8054216191288255 0 0 0
260       16   4   -0.2107550625000000   24.1952364417288521 -22.9628381768826948  23.1141760265540626 0 0 0
261       16   5   -1.0289210625000000   24.6684134714325651 -23.4496507737529889  25.4531468766693756 0 0 0
262       16   1    0.0285689375000000   22.4192838137144399 -25.0633717629753221  23.4656618148095255 0 0 0
263       16   1    0.0285689375000000   22.0843678966843449 -23.8241099776104832  24.6821164746938528 0 0 0
264       16   1    0.0285689375000000   22.7710952682231671 -25.3814127347753917  25.1694361228776273 0 0 0
265       16   1    0.0285689375000000   24.8639674749186099 -25.6407428314970431  22.8629302103822525 0 0 0
266       16   1    0.0285689375000000   25.2014296697735034 -25.9572414933749549  24.5697506680676021 0 0 0
267       16   1    0.0285689375000000   26.1902792367031232 -24.7953744209512053  23.6715967809187688 0 0 0
268       16   1    0.0285689375000000   23.8630198797237192 -23.3708341510939093  22.1526524842749595 0 0 0
269       16   1    0.0285689375000000   25.1944015320328880 -22.5370248874875578  22.9649790728578722 0 0 0
270       16   1    0.0285689375000000   23.5184364069230369 -22.1407444533071782  23.3755964950422417 0 0 0
271       16   2    0.3512849375000000   24.6565746325511661 -24.1489238396633432  26.1949633002448223 0 0 0