LAMMPS data file via vdw_self_gen.py, on 2021-08-05 13:21:52.366069

6000 atoms
8 atom types
5500 bonds
7 bond types
9000 angles
10 angle types
8000 dihedrals
8 dihedral types

-40.5268117202357985  40.5268117202357985 xlo xhi
-40.5268117202357985  40.5268117202357985 ylo yhi
-40.5268117202357985  40.5268117202357985 zlo zhi

Masses

1  1.007940
2  1.007940
3  1.007940
4  12.011000
5  12.011000
6  12.011000
7  14.006740
8  15.999400

Atoms

1         0    6    0.1147190000000000  -21.5824780419929354  14.7615583480605892  4.5744803405695480  0 0 0
2         0    7   -0.3100870000000000  -22.8847014898091601  14.3761435670838686  4.0925025935082520  0 0 0
3         0    4    0.1554950000000000  -23.4726992824379828  13.1499177679792911  4.1696297487389291  0 0 0
4         0    5    0.0365500000000000  -22.7302412445850059  12.0152257351105280  4.8238896132970916  0 0 0
5         0    8   -0.3821910000000000  -24.6001746865275166  12.9911100105177244  3.7032866269464391  0 0 0
6         0    2    0.0061770000000000  -21.4258352799132510  15.8189787115926972  4.3491287020672420  0 0 0
7         0    2    0.0061770000000000  -20.8188048252124602  14.1594111125460298  4.0756456139973709  0 0 0
8         0    2    0.0061770000000000  -21.5342022225027989  14.6019082185550442  5.6546695517272125  0 0 0
9         0    3    0.2812760000000000  -23.4619018936052264  15.0729398773232610  3.6357781351151992  0 0 0
10        0    1    0.0285690000000000  -21.7436759836880427  12.2982514158902294  5.1919303466548232  0 0 0
11        0    1    0.0285690000000000  -22.6047136896212173  11.2102435401402651  4.0942501187344202  0 0 0
12        0    1    0.0285690000000000  -23.3193161616763511  11.6515585761436959  5.6705575689578787  0 0 0
13        1    6    0.1147190000000000   13.5239356198585980 -24.0702591396397239 -31.6763941870429875 0 0 0
14        1    7   -0.3100870000000000   12.5921405294654694 -22.9803180119154646 -31.5334982188898394 0 0 0
15        1    4    0.1554950000000000   12.8740287324216638 -21.6532890720612983 -31.4116255540971956 0 0 0
16        1    5    0.0365500000000000   14.3097547560119178 -21.2000146750123015 -31.4193082597134250 0 0 0
17        1    8   -0.3821910000000000   11.9504665171533464 -20.8483791340267182 -31.2973914782623481 0 0 0
18        1    2    0.0061770000000000   12.9608242122682817 -25.0036129509268861 -31.7486046204815047 0 0 0
19        1    2    0.0061770000000000   14.1818265283959555 -24.1010799967344838 -30.8041305875893379 0 0 0
20        1    2    0.0061770000000000   14.1162530663957835 -23.9238833933245338 -32.5832357575051788 0 0 0
21        1    3    0.2812760000000000   11.5997371782449452 -23.1856459729181417 -31.5174155600065049 0 0 0
22        1    1    0.0285690000000000   15.0218364484421034 -22.0186230500797713 -31.5274217323945152 0 0 0
23        1    1    0.0285690000000000   14.5209931262771015 -20.6855656607637748 -30.4775822613644216 0 0 0
24        1    1    0.0285690000000000   14.4554501660080561 -20.5080737441688505 -32.2536345048535082 0 0 0
25        2    6    0.1147190000000000  -5.2936576203160008  -31.9534246477047041  30.2436363114961182 0 0 0
26        2    7   -0.3100870000000000  -4.8855586151744674  -32.4752752635382151  31.5233863444543836 0 0 0
27        2    4    0.1554950000000000  -4.1642540524402047  -31.8423302557615031  32.4900403971067675 0 0 0
28        2    5    0.0365500000000000  -3.7056635886488500  -30.4267000644763250  32.2608857204328672 0 0 0
29        2    8   -0.3821910000000000  -3.9001445438527425  -32.4385565157347528  33.5334276752983271 0 0 0
30        2    2    0.0061770000000000  -5.8587179072837587  -32.7253385811514121  29.7160816768441833 0 0 0
31        2    2    0.0061770000000000  -4.4077329597503638  -31.6816029976194606  29.6640980072861247 0 0 0
32        2    2    0.0061770000000000  -5.9226457931607133  -31.0725589628413701  30.3955473846662940 0 0 0
33        2    3    0.2812760000000000  -5.1474757090361205  -33.4228273323016083  31.7700179481171787 0 0 0
34        2    1    0.0285690000000000  -4.0105294133917990  -30.0236742774308603  31.2947099728174578 0 0 0
35        2    1    0.0285690000000000  -2.6136462484811438  -30.3980363429767273  32.3138367652085847 0 0 0
36        2    1    0.0285690000000000  -4.1257225087782423  -29.7899174806638207  33.0445745184724942 0 0 0
37        3    6    0.1147190000000000  -22.0471230692729883 -21.1924202322023945  32.2106525721240970 0 0 0
38        3    7   -0.3100870000000000  -23.0867932716618292 -21.6797439954247082  31.3398859959605396 0 0 0
39        3    4    0.1554950000000000  -23.2581881606465863 -22.9486255591819805  30.8752537954117550 0 0 0
40        3    5    0.0365500000000000  -22.2817643224035429 -24.0209046854232149  31.2797780608619895 0 0 0
41        3    8   -0.3821910000000000  -24.2078759809472039 -23.1962059525744770  30.1331664752935140 0 0 0
42        3    2    0.0061770000000000  -22.2084484486950373 -20.1259331368431802  32.3839659832802695 0 0 0
43        3    2    0.0061770000000000  -21.0748472680406316 -21.3476861147187691  31.7361144474550834 0 0 0
44        3    2    0.0061770000000000  -22.0873062671720533 -21.7322534762816808  33.1601749940254606 0 0 0
45        3    3    0.2812760000000000  -23.7933830948666127 -21.0308733530120797  31.0128074944376486 0 0 0
46        3    1    0.0285690000000000  -21.4916184783457993 -23.6607892799229091  31.9392134035906281 0 0 0
47        3    1    0.0285690000000000  -21.8152019530946788 -24.4294595395463752  30.3789285839695964 0 0 0
48        3    1    0.0285690000000000  -22.8261944864249919 -24.8138494764402004  31.8003009157901850 0 0 0
49        4    6    0.1147190000000000  -14.7779044888162758  13.4422743004105971  12.5985239414694323 0 0 0
50        4    7   -0.3100870000000000  -14.1860345606500982  12.7658456403134792  13.7249196383858383 0 0 0
51        4    4    0.1554950000000000  -13.0082334965712718  13.0540230583271484  14.3454501709156776 0 0 0
52        4    5    0.0365500000000000  -12.1735960610874425  14.2038394292021142  13.8473251039325991 0 0 0
53        4    8   -0.3821910000000000  -12.6471164649495016  12.3696548038415859  15.3020750606321521 0 0 0
54        4    2    0.0061770000000000  -15.7240216951288208  12.9531545313490248  12.3554555878474694 0 0 0
55        4    2    0.0061770000000000  -14.0998690204225028  13.3831040326822635  11.7433158131655748 0 0 0
56        4    2    0.0061770000000000  -14.9578066145483497  14.4886553966588547  12.8580413340876696 0 0 0
57        4    3    0.2812760000000000  -14.6745096787375431  11.9765069770119119  14.1318829888570523 0 0 0
58        4    1    0.0285690000000000  -12.6143556105734742  14.7217083761321526  12.9950274418787508 0 0 0
59        4    1    0.0285690000000000  -11.1938819845408002  13.8224101011020579  13.5459958999355514 0 0 0
60        4    1    0.0285690000000000  -12.0499172049170866  14.9260702339120392  14.6592338998354634 0 0 0
61        5    6    0.1147190000000000   14.8228861967233989  32.1927503526095080 -14.0243662263007920 0 0 0
62        5    7   -0.3100870000000000   14.1468305548625786  31.8851907203001765 -12.7894618365677566 0 0 0
63        5    4    0.1554950000000000   12.9474967121889613  31.2597118543903427 -12.6291676235783612 0 0 0
64        5    5    0.0365500000000000   12.1820717267285019  30.8086535705034024 -13.8446909404957363 0 0 0
65        5    8   -0.3821910000000000   12.5107510639763788  31.0743468988446665 -11.4939188975614961 0 0 0
66        5    2    0.0061770000000000   15.7632928950338655  32.6974077180998250 -13.7910974407139371 0 0 0
67        5    2    0.0061770000000000   14.1911856358479262  32.8478121329592483 -14.6297277918255908 0 0 0
68        5    2    0.0061770000000000   15.0246411743842057  31.2659198046955602 -14.5674201047904059 0 0 0
69        5    3    0.2812760000000000   14.5844012753612819  32.1501489096240576 -11.9144694609024242 0 0 0
70        5    1    0.0285690000000000   12.6867568778619138  31.0371910986573312 -14.7838033021707123 0 0 0
71        5    1    0.0285690000000000   11.2076799162930243  31.3052928917301827 -13.8507964845068390 0 0 0
72        5    1    0.0285690000000000   12.0392528516811765  29.7258167697864586 -13.7883267715291300 0 0 0
73        6    6    0.1147190000000000  -24.0593737285205904  31.4233416774791792  31.3002808373801180 0 0 0
74        6    7   -0.3100870000000000  -23.1058102581751861  31.9751434154810781  32.2291858702338203 0 0 0
75        6    4    0.1554950000000000  -21.7468858479484801  31.9036888317076262  32.1697013987494671 0 0 0
76        6    5    0.0365500000000000  -21.0955317948605021  31.1763953006030938  31.0235740345619782 0 0 0
77        6    8   -0.3821910000000000  -21.0755891787273697  32.4347068735865278  33.0536002724854470 0 0 0
78        6    2    0.0061770000000000  -25.0661425065757655  31.6649943545207258  31.6488188587091095 0 0 0
79        6    2    0.0061770000000000  -23.9338438039925094  30.3385819041348839  31.2538843732691909 0 0 0
80        6    2    0.0061770000000000  -23.8952916299003526  31.8587554392800918  30.3112816607137532 0 0 0
81        6    3    0.2812760000000000  -23.4486643329970654  32.4840775388528229  33.0358579079578689 0 0 0
82        6    1    0.0285690000000000  -21.8100250245678744  30.7558105094529779  30.3154240578229022 0 0 0
83        6    1    0.0285690000000000  -20.4903263823752475  30.3585264490020634  31.4247526027574402 0 0 0
84        6    1    0.0285690000000000  -20.4512603129309980  31.8762204280996961  30.4838808475596643 0 0 0
85        7    6    0.1147190000000000  -22.6982285333346852  31.5425937356552062 -15.0611906108975067 0 0 0
86        7    7   -0.3100870000000000  -22.2810543479010441  30.6524836822561326 -14.0074815419673282 0 0 0
87        7    4    0.1554950000000000  -22.2169713807502873  30.9137777073888280 -12.6722143333715636 0 0 0
88        7    5    0.0365500000000000  -22.6148452773839708  32.2749882288802468 -12.1666174619823284 0 0 0
89        7    8   -0.3821910000000000  -21.8350708054253104  30.0328719395981771 -11.9027641551666274 0 0 0
90        7    2    0.0061770000000000  -22.6288894096540041  31.0123692600145660 -16.0138249754145470 0 0 0
91        7    2    0.0061770000000000  -22.0440268140421409  32.4180444860830121 -15.0760315593193184 0 0 0
92        7    2    0.0061770000000000  -23.7310215265690552  31.8537900992070213 -14.8847737553022874 0 0 0
93        7    3    0.2812760000000000  -21.9936224173731922  29.7110697379686073 -14.2491534389972312 0 0 0
94        7    1    0.0285690000000000  -22.9323320209492643  32.9550503671394992 -12.9575575274528845 0 0 0
95        7    1    0.0285690000000000  -21.7593083519949104  32.7232939328544958 -11.6535815388931372 0 0 0
96        7    1    0.0285690000000000  -23.4433739161940977  32.1599095451549815 -11.4620559821784074 0 0 0
97        8    6    0.1147190000000000  -31.5508779102198744 -15.0682809757331562 -22.4094446881454203 0 0 0
98        8    7   -0.3100870000000000  -30.6714699772746222 -14.0025069364440409 -22.8185906214630450 0 0 0
99        8    4    0.1554950000000000  -30.9204163425544465 -12.6634596359599154 -22.8013352779382181 0 0 0
100       8    5    0.0365500000000000  -32.2534082009839409 -12.1668901327999617 -22.3080023764486164 0 0 0
101       8    8   -0.3821910000000000  -30.0516347189315383 -11.8832838311181526 -23.1892022678904937 0 0 0
102       8    2    0.0061770000000000  -31.0358793938986715 -16.0207594726897824 -22.5544253148587579 0 0 0
103       8    2    0.0061770000000000  -32.4590272682298746 -15.0419483878687128 -23.0170510558394881 0 0 0
104       8    2    0.0061770000000000  -31.8063348081071275 -14.9421540401145965 -21.3542379690930453 0 0 0
105       8    3    0.2812760000000000  -29.7489681279949636 -14.2374540801685967 -23.1665458092836580 0 0 0
106       8    1    0.0285690000000000  -32.9251962050086533 -12.9670035534344024 -21.9959319946928957 0 0 0
107       8    1    0.0285690000000000  -32.7393526943283604 -11.6068624850020523 -23.1119639902027636 0 0 0
108       8    1    0.0285690000000000  -32.0876770746687114 -11.5066433496097993 -21.4520134357155463 0 0 0
109       9    6    0.1147190000000000   24.0357906397564491  13.1499417132814891  22.4752206978285969 0 0 0
110       9    7   -0.3100870000000000   22.8694760911566135  13.1253719436446463  21.6292066847978539 0 0 0
111       9    4    0.1554950000000000   21.6040077508185036  13.5199840076246822  21.9425609749605108 0 0 0
112       9    5    0.0365500000000000   21.3179242089060494  14.0562716834640327  23.3200142967067130 0 0 0
113       9    8   -0.3821910000000000   20.7169926907058048  13.4312298944554023  21.0944904658465688 0 0 0
114       9    2    0.0061770000000000   24.8860096772370234  12.7629622248791232  21.9087998251893232 0 0 0
115       9    2    0.0061770000000000   23.8596031839337641  12.5233821532841141  23.3532840542480642 0 0 0
116       9    2    0.0061770000000000   24.2355525296517165  14.1783194426867762  22.7869287078454761 0 0 0
117       9    3    0.2812760000000000   22.9617413319342738  12.7799043715649248  20.6808281121879602 0 0 0
118       9    1    0.0285690000000000   22.1953350955837330  14.0787050705325338  23.9669419669173216 0 0 0
119       9    1    0.0285690000000000   20.5607912009336999  13.4244522470259007  23.7929636610975983 0 0 0
120       9    1    0.0285690000000000   20.9355204009543101  15.0767221284996040  23.2275053539459826 0 0 0
121       10   6    0.1147190000000000   14.0701202431589341 -5.6091818108829310  -5.4542746994197397  0 0 0
122       10   7   -0.3100870000000000   13.9765689938396029 -4.1744111198617597  -5.3577643992572535  0 0 0
123       10   4    0.1554950000000000   13.4018977074253183 -3.4415802530469422  -4.3637666397957897  0 0 0
124       10   5    0.0365500000000000   12.7698935469549557 -4.1502284072817517  -3.1953427216702899  0 0 0
125       10   8   -0.3821910000000000   13.4093639377751188 -2.2134521989027833  -4.4382135062740105  0 0 0
126       10   2    0.0061770000000000   14.5929254696188035 -5.8633965451687491  -6.3792112946294992  0 0 0
127       10   2    0.0061770000000000   13.0647103898864358 -6.0376631508407552  -5.4672719279903896  0 0 0
128       10   2    0.0061770000000000   14.6268483703391290 -5.9943945804834176  -4.5961998978766934  0 0 0
129       10   3    0.2812760000000000   14.3741126251595599 -3.6085229978783939  -6.0987180615027938  0 0 0
130       10   1    0.0285690000000000   12.8364738621710046 -5.2366181611779883  -3.2600952942447865  0 0 0
131       10   1    0.0285690000000000   11.7125049203316696 -3.8749852255294814  -3.1474075937722210  0 0 0
132       10   1    0.0285690000000000   13.2718268142826776 -3.8313145092594580  -2.2774829238809220  0 0 0
133       11   6    0.1147190000000000  -22.1647678136547555  30.4175115056367886  3.4524453185336554  0 0 0
134       11   7   -0.3100870000000000  -22.9160598472887038  30.5889649779656310  4.6701468407157440  0 0 0
135       11   4    0.1554950000000000  -23.0529500891738479  31.7227996111880728  5.4124404475735535  0 0 0
136       11   5    0.0365500000000000  -22.3641557316414392  32.9849319461392270  4.9658867331088059  0 0 0
137       11   8   -0.3821910000000000  -23.7370336862876528  31.6956311057879070  6.4347848623253228  0 0 0
138       11   2    0.0061770000000000  -22.2687851644486052  29.3817256357539094  3.1211053668453879  0 0 0
139       11   2    0.0061770000000000  -21.1119560578720247  30.6419296986464538  3.6417546982060922  0 0 0
140       11   2    0.0061770000000000  -22.5564811862347625  31.0923725324768121  2.6871018148084285  0 0 0
141       11   3    0.2812760000000000  -23.4158962634215158  29.7938328700573898  5.0512126133599189  0 0 0
142       11   1    0.0285690000000000  -21.7934235327962078  32.8642307316460389  4.0447111225864880  0 0 0
143       11   1    0.0285690000000000  -21.6774822662674502  33.3081270285319562  5.7533838975281020  0 0 0
144       11   1    0.0285690000000000  -23.1197531624849724  33.7581850783706088  4.8007752447229075  0 0 0
145       12   6    0.1147190000000000  -3.2790538655496846  -31.4760406812167304 -12.5375603433871969 0 0 0
146       12   7   -0.3100870000000000  -4.7178523745251013  -31.4000886374671637 -12.5106689373174245 0 0 0
147       12   4    0.1554950000000000  -5.5762222147095954  -31.4726526970521796 -13.5657781199701990 0 0 0
148       12   5    0.0365500000000000  -5.0245380440477643  -31.6535460637229455 -14.9549318492369370 0 0 0
149       12   8   -0.3821910000000000  -6.7872707898687334  -31.3890841599584967 -13.3650936758470387 0 0 0
150       12   2    0.0061770000000000  -2.9054657899780842  -31.3824065116778463 -11.5152478993734011 0 0 0
151       12   2    0.0061770000000000  -2.8848161141015733  -30.6626072953993223 -13.1519843678774215 0 0 0
152       12   2    0.0061770000000000  -2.9749233331772347  -32.4387072658068334 -12.9563742838099820 0 0 0
153       12   3    0.2812760000000000  -5.1835053463611542  -31.2782723611269766 -11.6186987922795630 0 0 0
154       12   1    0.0285690000000000  -3.9361738688039170  -31.7123536192897220 -14.9844889948035949 0 0 0
155       12   1    0.0285690000000000  -5.3377290005532672  -30.8056804109184519 -15.5706936155537257 0 0 0
156       12   1    0.0285690000000000  -5.4281982186382951  -32.5788030185640949 -15.3757260014867274 0 0 0
157       13   6    0.1147190000000000  -12.8723153002348329  30.2370420074841277  30.8962620112140414 0 0 0
158       13   7   -0.3100870000000000  -12.4836304002637402  31.5121713174815667  31.4436214008475297 0 0 0
159       13   4    0.1554950000000000  -13.2938172465616020  32.4874151355043992  31.9414330942559808 0 0 0
160       13   5    0.0365500000000000  -14.7842625427622121  32.2746098936935297  31.9520475132835422 0 0 0
161       13   8   -0.3821910000000000  -12.7934396731018225  33.5250639367338295  32.3736412005955216 0 0 0
162       13   2    0.0061770000000000  -11.9718832933922350  29.6998534774074265  30.5894903937077380 0 0 0
163       13   2    0.0061770000000000  -13.5211469960168387  30.3967554270713585  30.0313208491386092 0 0 0
164       13   2    0.0061770000000000  -13.4046383192068550  29.6626695816329473  31.6587290402679713 0 0 0
165       13   3    0.2812760000000000  -11.4985472818960623  31.7479797152337895  31.4795140805544058 0 0 0
166       13   1    0.0285690000000000  -15.0872626470408235  31.3117507728525588  31.5397832999196908 0 0 0
167       13   1    0.0285690000000000  -15.2562201290534176  33.0636317100599300  31.3597402422324123 0 0 0
168       13   1    0.0285690000000000  -15.1400830514127680  32.3312997470453070  32.9846595961833202 0 0 0
169       14   6    0.1147190000000000   3.1241214372636170   5.2262826347949805   4.3645674879085403  0 0 0
170       14   7   -0.3100870000000000   4.3972438778626612   5.1315475021319621   3.6961233870425954  0 0 0
171       14   4    0.1554950000000000   5.4755263142833694   4.3826102115249768   4.0590553843160606  0 0 0
172       14   5    0.0365500000000000   5.3976710246064972   3.5275883210172418   5.2958666223074973  0 0 0
173       14   8   -0.3821910000000000   6.4941561171866473   4.4180039801752420   3.3698259568552604  0 0 0
174       14   2    0.0061770000000000   2.4872848578981062   5.9163129520040370   3.8062168152892681  0 0 0
175       14   2    0.0061770000000000   3.2752253554928390   5.6010188889470189   5.3801237420963002  0 0 0
176       14   2    0.0061770000000000   2.6586163834901697   4.2379738235928066   4.3988922473615846  0 0 0
177       14   3    0.2812760000000000   4.5464477024916352   5.6718819911705198   2.8516948858232638  0 0 0
178       14   1    0.0285690000000000   4.4372525193602561   3.5930127221569252   5.8079061460906747  0 0 0
179       14   1    0.0285690000000000   6.1786126073087893   3.8452561566603554   5.9925334608352472  0 0 0
180       14   1    0.0285690000000000   5.5635907630698274   2.4842597761383280   5.0129428243881415  0 0 0
181       15   6    0.1147190000000000  -31.4005642583540201 -3.1320083338863829  -12.7676249595431148 0 0 0
182       15   7   -0.3100870000000000  -30.6127042734486139 -4.0257451268355968  -13.5782692707016714 0 0 0
183       15   4    0.1554950000000000  -30.9943011892327327 -5.2168830616840474  -14.1176151028252139 0 0 0
184       15   5    0.0365500000000000  -32.3926633850800272 -5.7211203516963209  -13.8785464047775218 0 0 0
185       15   8   -0.3821910000000000  -30.1895745019540698 -5.8598030294379075  -14.7906421986726748 0 0 0
186       15   2    0.0061770000000000  -30.7867524943231885 -2.2677493701335312  -12.5035232688817466 0 0 0
187       15   2    0.0061770000000000  -31.7187700778025032 -3.6515533135567901  -11.8601932925464233 0 0 0
188       15   2    0.0061770000000000  -32.2759176179396903 -2.8052546811072814  -13.3347369385715773 0 0 0
189       15   3    0.2812760000000000  -29.6554607378162025 -3.7724709119659710  -13.7946476905409305 0 0 0
190       15   1    0.0285690000000000  -32.9961022784278626 -5.0505750530946960  -13.2660931119311165 0 0 0
191       15   1    0.0285690000000000  -32.3356225936848247 -6.6884720699874309  -13.3714918766089657 0 0 0
192       15   1    0.0285690000000000  -32.8918093141370562 -5.8441136569284700  -14.8438627653422177 0 0 0
193       16   6    0.1147190000000000   14.1654278681084485  23.6021043846636971 -3.5916224651718194  0 0 0
194       16   7   -0.3100870000000000   14.5333786939490768  22.4823934695680769 -4.4207742404692905  0 0 0
195       16   4    0.1554950000000000   13.7084183374176085  21.6692438319811451 -5.1373967280063013  0 0 0
196       16   5    0.0365500000000000   12.2228294953616210  21.9117643833177382 -5.1052176612368640  0 0 0
197       16   8   -0.3821910000000000   14.1917426255189376  20.7508714499136389 -5.7983705537263379  0 0 0
198       16   2    0.0061770000000000   15.0735518853157622  24.0322584446082352 -3.1629776294576031  0 0 0
199       16   2    0.0061770000000000   13.5047993079121493  23.2586657457074395 -2.7914762495181820  0 0 0
200       16   2    0.0061770000000000   13.6526780326788550  24.3508571602466155 -4.2007893863221586  0 0 0
201       16   3    0.2812760000000000   15.5137329779137474  22.2396726800908802 -4.5060662756641756  0 0 0
202       16   1    0.0285690000000000   11.9354988717334489  22.7577238670471971 -4.4801879051342883  0 0 0
203       16   1    0.0285690000000000   11.7288712605069385  21.0166387345314689 -4.7167815295444129  0 0 0
204       16   1    0.0285690000000000   11.8763175245266002  22.1065506498958158 -6.1240883360629716  0 0 0
205       17   6    0.1147190000000000   3.6739834099259250  -23.4034471199047474 -5.4862472125417368  0 0 0
206       17   7   -0.3100870000000000   4.5885746340211879  -22.2899452244950673 -5.5026615912080272  0 0 0
207       17   4    0.1554950000000000   5.1891373772171923  -21.6888314689300827 -4.4380929663859980  0 0 0
208       17   5    0.0365500000000000   4.9091845409697665  -22.1971480675718595 -3.0488246111636235  0 0 0
209       17   8   -0.3821910000000000   5.9497924669632418  -20.7410538595733485 -4.6304936824591083  0 0 0
210       17   2    0.0061770000000000   3.3836619652462483  -23.6317945825496913 -6.5143663866469126  0 0 0
211       17   2    0.0061770000000000   2.7894782229249966  -23.1370973826620840 -4.9020190453508556  0 0 0
212       17   2    0.0061770000000000   4.1669504336051713  -24.2705205399427228 -5.0392632661538892  0 0 0
213       17   3    0.2812760000000000   4.8392533089229124  -21.8774431146847732 -6.3938881877319256  0 0 0
214       17   1    0.0285690000000000   4.2180752473431884  -23.0402179722408853 -3.0271540896113938  0 0 0
215       17   1    0.0285690000000000   4.4760789276754060  -21.3850530227196387 -2.4580213789793590  0 0 0
216       17   1    0.0285690000000000   5.8515784254991647  -22.5161924462970582 -2.5947165420815499  0 0 0
217       18   6    0.1147190000000000  -4.5162260040471409  -12.9888996007159534  21.0407992116722511 0 0 0
218       18   7   -0.3100870000000000  -4.8713027058247889  -12.5599315842686590  22.3699116925481185 0 0 0
219       18   4    0.1554950000000000  -4.7434638476977442  -13.2574049617507015  23.5328853924470387 0 0 0
220       18   5    0.0365500000000000  -4.1700372149404963  -14.6491304420366006  23.4995987259321417 0 0 0
221       18   8   -0.3821910000000000  -5.0988397268794072  -12.7378758816748423  24.5900959284101361 0 0 0
222       18   2    0.0061770000000000  -4.7505111428620719  -12.1841698479800939  20.3401005318589263 0 0 0
223       18   2    0.0061770000000000  -5.0898591250303582  -13.8829317017003930  20.7833777583696921 0 0 0
224       18   2    0.0061770000000000  -3.4466377240029100  -13.2110819250970390  21.0055376685321420 0 0 0
225       18   3    0.2812760000000000  -5.2663463724647643  -11.6349482613244675  22.4949276464210755 0 0 0
226       18   1    0.0285690000000000  -3.8981947381138733  -14.9817319255870061  22.4974278561036236 0 0 0
227       18   1    0.0285690000000000  -4.9123825473230225  -15.3448632353285515  23.9008549796255174 0 0 0
228       18   1    0.0285690000000000  -3.2719478111278217  -14.6742775134788985  24.1232274096512889 0 0 0
229       19   6    0.1147190000000000   13.7088209304592290 -14.1603208373023364 -21.1080122778474966 0 0 0
230       19   7   -0.3100870000000000   13.0261799532853129 -13.0537345823662623 -21.7293826720324894 0 0 0
231       19   4    0.1554950000000000   13.0291950366315117 -12.7059208045665919 -23.0463246593064746 0 0 0
232       19   5    0.0365500000000000   13.8190389680614469 -13.5323346591042810 -24.0261269979500796 0 0 0
233       19   8   -0.3821910000000000   12.3864473531095562 -11.7225470369704059 -23.4120404593901341 0 0 0
234       19   2    0.0061770000000000   13.4918945206641805 -14.1474378180003715 -20.0373885803481926 0 0 0
235       19   2    0.0061770000000000   14.7850616149119087 -14.0585822804810991 -21.2691625644893740 0 0 0
236       19   2    0.0061770000000000   13.3545989139195900 -15.0967416678278674 -21.5464985851097062 0 0 0
237       19   3    0.2812760000000000   12.4669684237087761 -12.4380037978422369 -21.1502102441855691 0 0 0
238       19   1    0.0285690000000000   14.3386973002495726 -14.3723074625191760 -23.5643159557360704 0 0 0
239       19   1    0.0285690000000000   14.5642608084413663 -12.8916012368831367 -24.5059523657345828 0 0 0
240       19   1    0.0285690000000000   13.1360830575007874 -13.9277146970794270 -24.7833294394418076 0 0 0
241       20   6    0.1147190000000000   12.4016136894734643 -23.6056893882903900 -22.3488314671141168 0 0 0
242       20   7   -0.3100870000000000   13.8145464898670980 -23.4201111739364229 -22.1347879247471191 0 0 0
243       20   4    0.1554950000000000   14.5555718713133242 -22.3043137793262325 -22.3821687462220282 0 0 0
244       20   5    0.0365500000000000   13.8826090976225416 -21.0816605608662151 -22.9470281361730031 0 0 0
245       20   8   -0.3821910000000000   15.7618003181956468 -22.3151977342316599 -22.1397000444119492 0 0 0
246       20   2    0.0061770000000000   12.1326931693312527 -24.6197191588641715 -22.0440634908821735 0 0 0
247       20   2    0.0061770000000000   12.1742269468212534 -23.4648080009040463 -23.4085775988145919 0 0 0
248       20   2    0.0061770000000000   11.8460986828509469 -22.8793449916528786 -21.7501208981490635 0 0 0
249       20   3    0.2812760000000000   14.3558739493860053 -24.1888524681673225 -21.7562591423342049 0 0 0
250       20   1    0.0285690000000000   12.8128518288290820 -21.2132495423299510 -23.1118682320869020 0 0 0
251       20   1    0.0285690000000000   14.3482319921907173 -20.8353231496143607 -23.9054854869047269 0 0 0
252       20   1    0.0285690000000000   14.0211288450618827 -20.2504748533882726 -22.2498536337320871 0 0 0
253       21   6    0.1147190000000000  -3.6113421117910280  -12.4795026969993543  32.2882010945966513 0 0 0
254       21   7   -0.3100870000000000  -4.7797094621562239  -12.5214817782126833  31.4457116279318676 0 0 0
255       21   4    0.1554950000000000  -5.3665866748817717  -13.6171079997732996  30.8884881248271306 0 0 0
256       21   5    0.0365500000000000  -4.7768137067289755  -14.9791274900644513  31.1412660350631469 0 0 0
257       21   8   -0.3821910000000000  -6.3682978682527711  -13.4744778452556186  30.1883967579345658 0 0 0
258       21   2    0.0061770000000000  -3.4137795747089799  -11.4398382031232515  32.5593558939549510 0 0 0
259       21   2    0.0061770000000000  -2.7569435435788265  -12.8889849898268292  31.7432777071395691 0 0 0
260       21   2    0.0061770000000000  -3.7937721620064950  -13.0693072829164763  33.1901308466890725 0 0 0
261       21   3    0.2812760000000000  -5.2486563474200345  -11.6522638985855700  31.2180457948828334 0 0 0
262       21   1    0.0285690000000000  -3.8922448589404244  -14.9566535169467443  31.7783699555143926 0 0 0
263       21   1    0.0285690000000000  -4.4960666654284891  -15.4240719974261591  30.1824476072731613 0 0 0
264       21   1    0.0285690000000000  -5.5315359844203789  -15.6044291818127725  31.6265512763934282 0 0 0
265       22   6    0.1147190000000000   11.9771619131907094 -31.3560105837092422 -31.2561549745749545 0 0 0
266       22   7   -0.3100870000000000   12.8800376448413463 -32.0426370801050879 -32.1449701846965539 0 0 0
267       22   4    0.1554950000000000   14.2414896376905880 -32.0005964780648284 -32.1458485621426249 0 0 0
268       22   5    0.0365500000000000   14.9544590958491455 -31.1559271282654677 -31.1235794395322252 0 0 0
269       22   8   -0.3821910000000000   14.8646749993577636 -32.6535820802419821 -32.9819983132357422 0 0 0
270       22   2    0.0061770000000000   10.9520668459487052 -31.6116895702964698 -31.5341234980336864 0 0 0
271       22   2    0.0061770000000000   12.1280541278208087 -30.2774647789806650 -31.3488083413050482 0 0 0