LAMMPS data file via vdw_self_gen.py, on 2021-08-05 13:21:11.058059

2500 atoms
4 atom types
2000 bonds
3 bond types
3000 angles
4 angle types

-31.5463027163308460  31.5463027163308425 xlo xhi
-31.5463027163308460  31.5463027163308425 ylo yhi
-31.5463027163308460  31.5463027163308425 zlo zhi

Masses

1  35.452700
2  1.007940
3  12.011000
4  18.998403

Atoms

1         0    4   -0.2215910000000000   24.4326028025596145 -4.5522342524761772   2.5878604551594018  0 0 0
2         0    3    0.5195980000000000   24.5601380957969830 -3.4664157937271569   3.3940234720603017  0 0 0
3         0    1   -0.1496190000000000   23.0147649976288520 -3.1378668794799278   4.1855601040649173  0 0 0
4         0    1   -0.1496190000000000   25.8359508882131692 -3.7623350962286288   4.5803544309475139  0 0 0
5         0    2    0.0012310000000000   24.8366093348657806 -2.6068717093830323   2.7779252690627727  0 0 0
6         1    4   -0.2215910000000000   16.3496772773981967 -4.1820062801133844   17.1981969045810743 0 0 0
7         1    3    0.5195980000000000   17.4436504318219789 -3.4287120657683072   17.4826900507802634 0 0 0
8         1    1   -0.1496190000000000   17.8027266895832774 -3.5431686483087286   19.2091362773466514 0 0 0
9         1    1   -0.1496190000000000   18.8087644572192296 -3.9838795216935390   16.5075488033472482 0 0 0
10        1    2    0.0012310000000000   17.2237998004518715 -2.3879572154109638   17.2310466204193098 0 0 0
11        2    4   -0.2215910000000000   4.5689832673287256  -23.6377561544748609  3.4057341913645698  0 0 0
12        2    3    0.5195980000000000   3.5557019457944889  -24.5423770367084195  3.3963635426778591  0 0 0
13        2    1   -0.1496190000000000   3.8483982748036478  -25.7649701915288851  4.6382361118936846  0 0 0
14        2    1   -0.1496190000000000   2.0216163959308968  -23.7087306213166578  3.6688756317751752  0 0 0
15        2    2    0.0012310000000000   3.5310238474371429  -25.0262321150355689  2.4165142535836166  0 0 0
16        3    4   -0.2215910000000000  -9.4769263910645059  -24.7966866317176695 -9.6198609896214293  0 0 0
17        3    3    0.5195980000000000  -10.4961738055556690 -24.4410839924249572 -10.4443894956059946 0 0 0
18        3    1   -0.1496190000000000  -9.9382891322426534  -24.4850909428009338 -12.1205400619338075 0 0 0
19        3    1   -0.1496190000000000  -11.8614793559269263 -25.5351186138764845 -10.1960416345504772 0 0 0
20        3    2    0.0012310000000000  -10.8043025090949971 -23.4220859382443578 -10.1963390121730306 0 0 0
21        4    4   -0.2215910000000000  -9.5415048502595887  -24.6034948189105123  25.5337147826255766 0 0 0
22        4    3    0.5195980000000000  -10.4192275961577572 -24.5964642458872298  24.4970281672128252 0 0 0
23        4    1   -0.1496190000000000  -11.9074977971221809 -25.4165311531783225  24.9819969475351762 0 0 0
24        4    1   -0.1496190000000000  -10.7383001311796455 -22.9283465132331941  24.0089466101961051 0 0 0
25        4    2    0.0012310000000000  -9.9706408191655687  -25.1352293878551336  23.6583796114947162 0 0 0
26        5    4   -0.2215910000000000  -17.1163012126775165 -25.8700345764784423 -3.4696362707448221  0 0 0
27        5    3    0.5195980000000000  -17.6034954720326837 -24.6056043827639996 -3.5646300867258320  0 0 0
28        5    1   -0.1496190000000000  -17.9489863825325848 -23.9862018399988202 -1.9461032373414946  0 0 0
29        5    1   -0.1496190000000000  -16.4291075501632733 -23.5851188112947483 -4.4025261818893764  0 0 0
30        5    2    0.0012310000000000  -18.5307280390685065 -24.6331065085283960 -4.1428279545934057  0 0 0
31        6    4   -0.2215910000000000   18.5772693363635888 -16.6777244453983187 -17.8773622836915855 0 0 0
32        6    3    0.5195980000000000   17.6076058170755552 -17.5214204756962459 -17.4379360054360930 0 0 0
33        6    1   -0.1496190000000000   16.0742223161122482 -16.6495330144318423 -17.3321062588454993 0 0 0
34        6    1   -0.1496190000000000   17.4851532774481058 -18.8990939608362964 -18.5377854509425468 0 0 0
35        6    2    0.0012310000000000   17.8843679094750669 -17.8808467601118650 -16.4434286575588438 0 0 0
36        7    4   -0.2215910000000000  -25.5959055701263836 -9.6407974929028875   17.2804903792709545 0 0 0
37        7    3    0.5195980000000000  -24.5390633504224169 -10.4285621912339526  17.6086322524212271 0 0 0
38        7    1   -0.1496190000000000  -25.1099825253017706 -12.0663791128623554  17.9466554297075511 0 0 0
39        7    1   -0.1496190000000000  -23.3672747732430217 -10.4201898266446040  16.2859497157545192 0 0 0
40        7    2    0.0012310000000000  -24.0678398999708101 -10.0212425702409345  18.5068908793202951 0 0 0
41        8    4   -0.2215910000000000  -10.3966347608471796  4.5719490940601082   23.6436479468616518 0 0 0
42        8    3    0.5195980000000000  -10.6090927164679467  3.5796169000606506   24.5465899273042929 0 0 0
43        8    1   -0.1496190000000000  -10.7331258421146654  2.0328902501168149   23.7010693211119730 0 0 0
44        8    1   -0.1496190000000000  -9.2891502665108181   3.5620284315832151   25.7213623450422091 0 0 0
45        8    2    0.0012310000000000  -11.5491676079441330  3.7792390554741311   25.0673965787442725 0 0 0
46        9    4   -0.2215910000000000   18.0144905684483376  10.2601790210170609 -4.7875067749612557  0 0 0
47        9    3    0.5195980000000000   17.6438904549106219  10.4940997846342210 -3.5017764694948994  0 0 0
48        9    1   -0.1496190000000000   16.9828478750003384  12.1275167248404223 -3.3690193665098929  0 0 0
49        9    1   -0.1496190000000000   16.4587376627088133  9.2822007160811779  -3.0024157124499342  0 0 0
50        9    2    0.0012310000000000   18.5286520954064429  10.4131749473118447 -2.8650054078789502  0 0 0
51        10   4   -0.2215910000000000   11.3828557196835725  23.4512205843753598 -3.6440890654517855  0 0 0
52        10   3    0.5195980000000000   10.6122793946600549  24.5673433044307750 -3.5689359731044710  0 0 0
53        10   1   -0.1496190000000000   9.0493029972858139   24.2543795071291264 -4.3317013919781733  0 0 0
54        10   1   -0.1496190000000000   10.4155943712198731  25.0322954288468296 -1.8754832331511735  0 0 0
55        10   2    0.0012310000000000   11.1171387110354338  25.3748272942823050 -4.1055140676093158  0 0 0
56        11   4   -0.2215910000000000  -23.3126308496876611  10.1347725734097125 -23.9819979865209838 0 0 0
57        11   3    0.5195980000000000  -24.5050021166316618  10.5899278712178386 -24.4470250855631335 0 0 0
58        11   1   -0.1496190000000000  -24.3385803009157833  11.0414258320649949 -26.1473503520944206 0 0 0
59        11   1   -0.1496190000000000  -25.7344106364801917  9.3383927118001449  -24.2352183459036503 0 0 0
60        11   2    0.0012310000000000  -24.7894422153491014  11.4726522053920394 -23.8684743489822004 0 0 0
61        12   4   -0.2215910000000000  -25.1957805618945621  25.0580555207772946  2.3912868021149620  0 0 0
62        12   3    0.5195980000000000  -24.6528443239707400  24.5082784559870674  3.5084847285271872  0 0 0
63        12   1   -0.1496190000000000  -23.4228178049593048  23.3276957771052551  3.0438214716918184  0 0 0
64        12   1   -0.1496190000000000  -23.9643058780191538  25.7858435094565657  4.5166464226517276  0 0 0
65        12   2    0.0012310000000000  -25.4443175502206458  24.0001928557382271  4.0654843063092123  0 0 0
66        13   4   -0.2215910000000000   11.1050858069293401 -25.4114354052144407 -9.6019531757890118  0 0 0
67        13   3    0.5195980000000000   10.5481676502039701 -24.6379899370452939 -10.5698323318194713 0 0 0
68        13   1   -0.1496190000000000   8.8650374446471343  -24.2971553669687559 -10.1532304254592862 0 0 0
69        13   1   -0.1496190000000000   11.4799529186776521 -23.1459547930484781 -10.7379245726690833 0 0 0
70        13   2    0.0012310000000000   10.5789273734266551 -25.1875306167874307 -11.5142306881478937 0 0 0
71        14   4   -0.2215910000000000  -3.3131968414814250  -11.6660738724606752  4.2717509392940363  0 0 0
72        14   3    0.5195980000000000  -3.5477717142225691  -10.4996388436921233  3.6163352399549149  0 0 0
73        14   1   -0.1496190000000000  -2.0113292670213054  -9.8001692539002541   3.0940905264397047  0 0 0
74        14   1   -0.1496190000000000  -4.6127754502053691  -10.8035859216169605  2.2393708703855180  0 0 0
75        14   2    0.0012310000000000  -4.0406504583642668  -9.8077033022147422   4.3041761552207332  0 0 0
76        15   4   -0.2215910000000000  -18.3591439691267233 -24.1695747921327033  11.5735619262098748 0 0 0
77        15   3    0.5195980000000000  -17.6230613134808110 -24.6063280449814563  10.5187658765475263 0 0 0
78        15   1   -0.1496190000000000  -17.4512261350453421 -23.2998392869155388  9.3413906441345862  0 0 0
79        15   1   -0.1496190000000000  -16.0465553629502651 -25.1614534079346051  11.0924491325764372 0 0 0
80        15   2    0.0012310000000000  -18.1486318758714269 -25.4428705871001029  10.0510036144163255 0 0 0
81        16   4   -0.2215910000000000   10.3891116814294353  10.9491857212666002  4.8259031961260366  0 0 0
82        16   3    0.5195980000000000   10.4004245893100205  10.5383007293661954  3.5312173934131574  0 0 0
83        16   1   -0.1496190000000000   11.3820648456527351  11.6502681311699590  2.5707156777180762  0 0 0
84        16   1   -0.1496190000000000   11.0310921050310853  8.8898943882018848   3.4436806701278395  0 0 0
85        16   2    0.0012310000000000   9.3744779724614578   10.5495222238800910  3.1542067939098075  0 0 0
86        17   4   -0.2215910000000000   2.2101786683458347  -4.0232173349367484   3.4488929030271662  0 0 0
87        17   3    0.5195980000000000   3.4376397779200141  -3.4596588651246876   3.5934849560107773  0 0 0
88        17   1   -0.1496190000000000   4.6345470594474980  -4.7262104712179340   3.8865935193948973  0 0 0
89        17   1   -0.1496190000000000   3.8319449539682289  -2.5307010633810640   2.1428959412925286  0 0 0
90        17   2    0.0012310000000000   3.4114132716133199  -2.7859359966344850   4.4538564115695323  0 0 0
91        18   4   -0.2215910000000000   24.7286350026605710  3.1840681170895935  -18.8704568901285867 0 0 0
92        18   3    0.5195980000000000   24.4335380877828570  3.5175763896221626  -17.5871580826866101 0 0 0
93        18   1   -0.1496190000000000   24.7327994400684190  2.1291057865825751  -16.5358519099076737 0 0 0
94        18   1   -0.1496190000000000   25.4096694468784925  4.9086059767601879  -17.1025428575886558 0 0 0
95        18   2    0.0012310000000000   23.3754241416740633  3.7863674612403955  -17.5326089161630527 0 0 0
96        19   4   -0.2215910000000000  -25.1112451194019926  23.5211927721383844 -9.7487867727848290  0 0 0
97        19   3    0.5195980000000000  -24.4558930810572299  24.4910309061007396 -10.4380570288889079 0 0 0
98        19   1   -0.1496190000000000  -24.4333404736920876  24.0774577931840348 -12.1559340039873618 0 0 0
99        19   1   -0.1496190000000000  -25.2513112776259376  26.0451823203942929 -10.1649802394747333 0 0 0
100       19   2    0.0012310000000000  -23.4282761672871551  24.5452023272469475 -10.0694131487489020 0 0 0
101       20   4   -0.2215910000000000   24.8853222026419694 -9.2212050573884952   24.1468414323069140 0 0 0
102       20   3    0.5195980000000000   24.5610448681410780 -10.4478057302856353  24.6320844495439317 0 0 0
103       20   1   -0.1496190000000000   22.9013627618637052 -10.8419069601548657  24.1707904347136271 0 0 0
104       20   1   -0.1496190000000000   25.6998413049744414 -11.6462010088374832  24.0078736752855164 0 0 0
105       20   2    0.0012310000000000   24.6324949814432195 -10.4200524372182617  25.7224761272144100 0 0 0
106       21   4   -0.2215910000000000  -2.8158843730898218  -11.6838404269289278  24.8650234628919726 0 0 0
107       21   3    0.5195980000000000  -3.3872233078746059  -10.4939977429612856  24.5440686448759919 0 0 0
108       21   1   -0.1496190000000000  -4.2087288967877026  -10.6382217034456179  22.9861916734797411 0 0 0
109       21   1   -0.1496190000000000  -4.5145214021506961  -10.0206624975089831  25.8199214619964152 0 0 0
110       21   2    0.0012310000000000  -2.5993657513920922  -9.7404488230399355   24.4648608758202890 0 0 0
111       22   4   -0.2215910000000000   10.1508176272194053  16.3682497410166015 -23.8462239020939073 0 0 0
112       22   3    0.5195980000000000   10.4442183917327291  17.5526568498787903 -24.4431004203618976 0 0 0
113       22   1   -0.1496190000000000   12.1904147810538621  17.8189734655559739 -24.3928383915917735 0 0 0
114       22   1   -0.1496190000000000   9.8476542680513042   17.5358018686332002 -26.1063727416741465 0 0 0
115       22   2    0.0012310000000000   9.9440661258274261   18.3529367313899776 -23.8915306633426781 0 0 0
116       23   4   -0.2215910000000000  -18.4373427529512881  23.6207259666292018  18.0545910266946805 0 0 0
117       23   3    0.5195980000000000  -17.5700372343355724  24.5760426047597491  17.6299534818523966 0 0 0
118       23   1   -0.1496190000000000  -15.9488603350621609  23.8839800379254186  17.5055046720994625 0 0 0
119       23   1   -0.1496190000000000  -18.1141714301580627  25.2136528725076907  16.0743125263941558 0 0 0
120       23   2    0.0012310000000000  -17.5582069039674984  25.3856646372423391  18.3642569494338552 0 0 0
121       24   4   -0.2215910000000000   17.0991181502080245  9.4816196405194493   9.6801285015961103  0 0 0
122       24   3    0.5195980000000000   17.4421088819735459  10.4487692487280199  10.5701536582433651 0 0 0
123       24   1   -0.1496190000000000   19.1592043626660029  10.3042910464929331  10.9617680102077024 0 0 0
124       24   1   -0.1496190000000000   17.0740189312060657  12.0352446212439190  9.8844034563151766  0 0 0
125       24   2    0.0012310000000000   16.8541683304208973  10.3072466369004143  11.4807175675223760 0 0 0
126       25   4   -0.2215910000000000  -23.5840159405748295 -9.6417361583580448  -2.9770789767456551  0 0 0
127       25   3    0.5195980000000000  -24.5884498133543410 -10.4335024655502284 -3.4346644837368769  0 0 0
128       25   1   -0.1496190000000000  -24.6576078980777851 -10.3344686046500787 -5.1976341644496751  0 0 0
129       25   1   -0.1496190000000000  -24.3174800162648630 -12.0951217759479235 -2.8977806086961100  0 0 0
130       25   2    0.0012310000000000  -25.5325124507925771 -10.0723421893784693 -3.0185654976665921  0 0 0
131       26   4   -0.2215910000000000   17.9518929787990125 -9.5113637829481181   23.6649662031730728 0 0 0
132       26   3    0.5195980000000000   17.5636510569048667 -10.5628183433602008  24.4323496169061194 0 0 0
133       26   1   -0.1496190000000000   18.5462613423508316 -10.6130762530920126  25.9002064937320498 0 0 0
134       26   1   -0.1496190000000000   15.8462090040620343 -10.4061553150816231  24.8177028958562218 0 0 0
135       26   2    0.0012310000000000   17.7206042743578003 -11.4837574994027865  23.8648409093969214 0 0 0
136       27   4   -0.2215910000000000  -17.6914425911368234  17.9963859076473049 -16.2220692543740022 0 0 0
137       27   3    0.5195980000000000  -17.4895348487672564  17.4432895244575938 -17.4461948364421531 0 0 0
138       27   1   -0.1496190000000000  -19.0346682116982748  17.3123432596107172 -18.2935841258954213 0 0 0
139       27   1   -0.1496190000000000  -16.3431747126597813  18.4334386353550528 -18.3562007899570965 0 0 0
140       27   2    0.0012310000000000  -17.0697982922124183  16.4431613294038854 -17.3105696498058848 0 0 0
141       28   4   -0.2215910000000000   4.6460323538628341   3.5278079550980861   9.7114675319208228  0 0 0
142       28   3    0.5195980000000000   3.5526925194507730   3.6154263266468609   10.5127769688145563 0 0 0
143       28   1   -0.1496190000000000   2.1089823676810822   3.1952674378561130   9.5844342803383427  0 0 0
144       28   1   -0.1496190000000000   3.7547850489932322   2.5415643302169699   11.9015270114884544 0 0 0
145       28   2    0.0012310000000000   3.4632314413070011   4.6456576814768793   10.8669654013225685 0 0 0
146       29   4   -0.2215910000000000   25.7717369783755963 -3.1703614970260969   11.0716784283146943 0 0 0
147       29   3    0.5195980000000000   24.5898664664916495 -3.4197923174971421   10.4502831071717655 0 0 0
148       29   1   -0.1496190000000000   24.5451452127689222 -5.1076786599349910   9.9290419481318910  0 0 0
149       29   1   -0.1496190000000000   23.2581135760966937 -3.0557594568989708   11.5532617897533534 0 0 0
150       29   2    0.0012310000000000   24.5152038853315410 -2.7721317999377071   9.5729059205130405  0 0 0
151       30   4   -0.2215910000000000   11.8107648401076357  18.0302029418574712  10.6423987193156577 0 0 0
152       30   3    0.5195980000000000   10.5163788154735744  17.6445104395373207  10.4975819416755662 0 0 0
153       30   1   -0.1496190000000000   10.3916416307523090  16.4971927393762279  9.1593908600116443  0 0 0
154       30   1   -0.1496190000000000   9.9441878453834462   16.9290090183622013  12.0086421221262736 0 0 0
155       30   2    0.0012310000000000   9.9141980621677757   18.5277035173413367  10.2691575507556099 0 0 0
156       31   4   -0.2215910000000000   25.1628399784951462  17.4309115102922902 -16.2821002021209686 0 0 0
157       31   3    0.5195980000000000   24.6522749616755554  17.4986006492827606 -17.5390438485358509 0 0 0
158       31   1   -0.1496190000000000   23.3804904267703435  16.2855159499308826 -17.7224620874715875 0 0 0
159       31   1   -0.1496190000000000   24.0305470770529972  19.1262907244461964 -17.8335385269210960 0 0 0
160       31   2    0.0012310000000000   25.4539136750703676  17.2872998225224350 -18.2514739914250583 0 0 0
161       32   4   -0.2215910000000000   4.7226838463806482  -10.2457654040833201 -18.1529221681726796 0 0 0
162       32   3    0.5195980000000000   3.4872929397955867  -10.4806769387023060 -17.6393156407317839 0 0 0
163       32   1   -0.1496190000000000   3.3677216243841639  -12.1739224721226211 -17.1481182206622940 0 0 0
164       32   1   -0.1496190000000000   3.2036295873495102  -9.3969494985118160  -16.2726709916890115 0 0 0
165       32   2    0.0012310000000000   2.7443957333850042  -10.2798568804646653 -18.4155916352188029 0 0 0
166       33   4   -0.2215910000000000   17.2260715847244441 -9.3987262714048487  -4.2872397063599905  0 0 0
167       33   3    0.5195980000000000   17.5064470436726687 -10.5477702904156256 -3.6192178275303117  0 0 0
168       33   1   -0.1496190000000000   19.1330938774070276 -10.4479677611208128 -2.9360544686999948  0 0 0
169       33   1   -0.1496190000000000   16.2971161173909884 -10.8028973202412750 -2.3562544201858779  0 0 0
170       33   2    0.0012310000000000   17.4658900332794040 -11.3798095507021806 -4.3269573085187556  0 0 0
171       34   4   -0.2215910000000000   4.3150746383761405  -24.8812402457426600 -4.5883494790480333  0 0 0
172       34   3    0.5195980000000000   3.6163927225198975  -24.4933261579012473 -3.4899269614758488  0 0 0
173       34   1   -0.1496190000000000   2.2742947653552372  -23.4553378797299494 -3.9838966459235987  0 0 0
174       34   1   -0.1496190000000000   3.0356374420051497  -25.9226356347793363 -2.6282742574466997  0 0 0
175       34   2    0.0012310000000000   4.2843241630384954  -23.9275262009112240 -2.8352763874007425  0 0 0
176       35   4   -0.2215910000000000   18.1623973324530823  16.7599340675538038 -11.4935515816594798 0 0 0
177       35   3    0.5195980000000000   17.4452637812667994  17.4789320310886431 -10.5913724506684606 0 0 0
178       35   1   -0.1496190000000000   17.7027480447851566  16.8156567747271843 -8.9738371559255530  0 0 0
179       35   1   -0.1496190000000000   17.9327516363611039  19.1755594089921217 -10.6717390518405004 0 0 0
180       35   2    0.0012310000000000   16.3854578616084154  17.3985363741128047 -10.8466709537907740 0 0 0
181       36   4   -0.2215910000000000  -24.2538138999339417  11.1644189919094909  4.7083417175632540  0 0 0
182       36   3    0.5195980000000000  -24.4192977107847007  10.5430556860770963  3.5118098388774603  0 0 0
183       36   1   -0.1496190000000000  -25.0096224670332354  8.8992629856961845   3.7803519803273793  0 0 0
184       36   1   -0.1496190000000000  -25.5465511482675112  11.4728599286212685  2.5181240650384309  0 0 0
185       36   2    0.0012310000000000  -23.4507808930450139  10.4975736015807204  3.0070961294883851  0 0 0
186       37   4   -0.2215910000000000   24.6125073199726216 -16.1495988746267720 -10.7366347181272452 0 0 0
187       37   3    0.5195980000000000   24.4264819355502141 -17.4796961621682314 -10.5331610141128156 0 0 0
188       37   1   -0.1496190000000000   25.2742874669404252 -18.3900398239602154 -11.7882119452623400 0 0 0
189       37   1   -0.1496190000000000   25.0102291285651752 -17.9148090705767160 -8.9230170359284138  0 0 0
190       37   2    0.0012310000000000   23.3565602680359632 -17.6944747251426193 -10.5961464804539158 0 0 0
191       38   4   -0.2215910000000000  -3.0721661977611072   23.2548931827192717 -17.8717896741454005 0 0 0
192       38   3    0.5195980000000000  -3.5283496741813716   24.4582778021108780 -17.4371313257235094 0 0 0
193       38   1   -0.1496190000000000  -2.1828220472394282   25.6006520120207135 -17.3523421102015334 0 0 0
194       38   1   -0.1496190000000000  -4.7907654317718560   25.0372884095248445 -18.5296974932343765 0 0 0
195       38   2    0.0012310000000000  -3.9516203803411742   24.3289547126886774 -16.4376580531697591 0 0 0
196       39   4   -0.2215910000000000  -24.8068504041377444  25.5741047405139810 -25.4290495302746606 0 0 0
197       39   3    0.5195980000000000  -24.6163156856506973  24.6120844033634398 -24.4891669960397564 0 0 0
198       39   1   -0.1496190000000000  -25.0877797232352648  23.0428815198242560 -25.1509650112654981 0 0 0
199       39   1   -0.1496190000000000  -22.9226071178199859  24.6106505471711614 -23.9851859545180623 0 0 0
200       39   2    0.0012310000000000  -25.2465131882206961  24.8403449081915824 -23.6256986269664218 0 0 0
201       40   4   -0.2215910000000000  -25.7219184081224235 -16.9382639076904624  10.9593041177171457 0 0 0
202       40   3    0.5195980000000000  -24.5293610523276726 -17.4060480954435768  10.5074737369015203 0 0 0
203       40   1   -0.1496190000000000  -23.7240693243596112 -18.3051173044522635  11.7981450473747422 0 0 0
204       40   1   -0.1496190000000000  -24.7976292696434335 -18.4255812881456436  9.0892946609534278  0 0 0
205       40   2    0.0012310000000000  -23.9070880646112762 -16.5536080607426115  10.2229536309378890 0 0 0
206       41   4   -0.2215910000000000  -16.6965962970241542  17.2320372957265278  4.5890250880194259  0 0 0
207       41   3    0.5195980000000000  -17.4137558597049384  17.5034327685881124  3.4677791537276921  0 0 0
208       41   1   -0.1496190000000000  -18.7114228679083254  16.3159246545870182  3.2988488237037581  0 0 0
209       41   1   -0.1496190000000000  -18.0587581413406610  19.1456596671044998  3.5663211720447037  0 0 0
210       41   2    0.0012310000000000  -16.7480854904964716  17.4315642704684066  2.6037494937993371  0 0 0
211       42   4   -0.2215910000000000  -25.1328170544373499  17.9105480936611698 -2.3033810349440804  0 0 0
212       42   3    0.5195980000000000  -24.5166255778548852  17.4431530314681993 -3.4200796094147168  0 0 0
213       42   1   -0.1496190000000000  -25.7149096631165648  17.2084692359847757 -4.6974563778530793  0 0 0
214       42   1   -0.1496190000000000  -23.2636180301931148  18.5842180216621919 -3.9206696937714209  0 0 0
215       42   2    0.0012310000000000  -24.0520957934624704  16.4822302736982209 -3.1841370153116055  0 0 0
216       43   4   -0.2215910000000000   16.9095552455304166 -16.9058564096298625 -4.5935387560892948  0 0 0
217       43   3    0.5195980000000000   17.5464530747973271 -17.4074115057738723 -3.5035986536950983  0 0 0
218       43   1   -0.1496190000000000   16.3650429559424815 -18.1654392093925132 -2.4301384667230863  0 0 0
219       43   1   -0.1496190000000000   18.7747845726147133 -18.5667845543565875 -4.0229285340117897  0 0 0
220       43   2    0.0012310000000000   18.0327828075896228 -16.5831269773217223 -2.9755193207756756  0 0 0
221       44   4   -0.2215910000000000   9.6116619804291972  -11.5614646981868461  24.7297052550886711 0 0 0
222       44   3    0.5195980000000000   10.5033914379538995 -10.5799504254010301  24.4354025315191556 0 0 0
223       44   1   -0.1496190000000000   9.7295168234441007  -9.0039991195550986   24.6357726990086618 0 0 0
224       44   1   -0.1496190000000000   11.9165220900375175 -10.7363571669649662  25.4848053856391132 0 0 0
225       44   2    0.0012310000000000   10.8160788620200279 -10.6953997837768320  23.3943802478087974 0 0 0
226       45   4   -0.2215910000000000  -9.4053103356657921   23.9099989909191031 -4.0745582339001523  0 0 0
227       45   3    0.5195980000000000  -10.4799567607071360  24.4433180479278960 -3.4374776810835463  0 0 0
228       45   1   -0.1496190000000000  -10.1279092004461724  26.1168095247447631 -2.9923468758862897  0 0 0
229       45   1   -0.1496190000000000  -11.8951900359726075  24.3461960468082914 -4.4911995383020056  0 0 0
230       45   2    0.0012310000000000  -10.6688048610930366  23.8637435086643208 -2.5301414021229407  0 0 0
231       46   4   -0.2215910000000000  -4.7339308881181283   11.0323277250029950 -24.9500257374208836 0 0 0
232       46   3    0.5195980000000000  -3.5706145084075644   10.4304371214509377 -24.5900417263136539 0 0 0
233       46   1   -0.1496190000000000  -2.2199584553632601   11.2299191351580880 -25.4019588264744378 0 0 0
234       46   1   -0.1496190000000000  -3.3923698285273662   10.5001644506239238 -22.8333361184894983 0 0 0
235       46   2    0.0012310000000000  -3.6088500508786305   9.3843227616487876  -24.9047037103659186 0 0 0
236       47   4   -0.2215910000000000   3.5870516082110528  -16.1578110706327678  17.2600042575686032 0 0 0
237       47   3    0.5195980000000000   3.4746359383202128  -17.4619820172057452  17.6228632459896488 0 0 0
238       47   1   -0.1496190000000000   2.2666011644449648  -18.2529714024381065  16.6042168799931531 0 0 0
239       47   1   -0.1496190000000000   5.0494274030030377  -18.2501707145069787  17.4764457637385995 0 0 0
240       47   2    0.0012310000000000   3.1480076173156544  -17.5056834516909561  18.6650885091845602 0 0 0
241       48   4   -0.2215910000000000  -18.5788938237415238 -3.2796314420691477   18.4136860761955212 0 0 0
242       48   3    0.5195980000000000  -17.5468208438624629 -3.6031500906194478   17.5919033589011349 0 0 0
243       48   1   -0.1496190000000000  -18.0737604057263823 -3.4774888462299871   15.9098817802045041 0 0 0
244       48   1   -0.1496190000000000  -16.1800329935059075 -2.5308589872599652   17.9155241565545644 0 0 0
245       48   2    0.0012310000000000  -17.2491105896382884 -4.6345943651163797   17.7976232846188474 0 0 0
246       49   4   -0.2215910000000000   3.0037697582618001  -17.0450016066503203  23.3252159739646565 0 0 0
247       49   3    0.5195980000000000   3.5940310861235654  -17.5103152348977495  24.4566931405031944 0 0 0
248       49   1   -0.1496190000000000   3.3100345612332762  -16.3719129953820826  25.7780708141135442 0 0 0
249       49   1   -0.1496190000000000   2.9483458658466550  -19.1097415057424200  24.8408465725429330 0 0 0
250       49   2    0.0012310000000000   4.6695424598296142  -17.5916473138020066  24.2792396179400569 0 0 0
251       50   4   -0.2215910000000000   2.3551583625719950   24.5844733500456805 -16.7359873490431923 0 0 0
252       50   3    0.5195980000000000   3.4517047622546584   24.6431457679330563 -17.5355555618444754 0 0 0
253       50   1   -0.1496190000000000   4.9047232619341798   24.4074320563290357 -16.5578905235256890 0 0 0
254       50   1   -0.1496190000000000   3.3242944711792304   23.4135282005450271 -18.7982728360586471 0 0 0
255       50   2    0.0012310000000000   3.4898428733548283   25.6314867442116032 -18.0009123860025717 0 0 0
256       51   4   -0.2215910000000000   11.6600079620059276 -11.1532696760938599  10.0341676110657563 0 0 0
257       51   3    0.5195980000000000   10.5464310133650621 -10.6064551561755547  10.5874361231484624 0 0 0
258       51   1   -0.1496190000000000   10.8692272537509123 -8.9224334676092951   11.0146669518946467 0 0 0
259       51   1   -0.1496190000000000   9.2024674549295735  -10.7303632802377784  9.4467975347740190  0 0 0
260       51   2    0.0012310000000000   10.2990375098332620 -11.1646496137682725  11.4941029730018478 0 0 0
261       52   4   -0.2215910000000000  -24.5560883724628063 -10.1960078101714426 -16.1670242188687752 0 0 0
262       52   3    0.5195980000000000  -24.5782550134120221 -10.4042086443129929 -17.5091593979367381 0 0 0
263       52   1   -0.1496190000000000  -22.9347037147984452 -10.7060063735723645 -18.0838853333524519 0 0 0
264       52   1   -0.1496190000000000  -25.6435481525675115 -11.7658802596272665 -17.8747392094905280 0 0 0
265       52   2    0.0012310000000000  -24.9674708658236284 -9.5050681062006781  -17.9938104968260646 0 0 0
266       53   4   -0.2215910000000000   3.0878877065758745   9.1860681801585535   3.4203917818252796  0 0 0
267       53   3    0.5195980000000000   3.4534345906026460   10.4808204434638661  3.6078960176283474  0 0 0
268       53   1   -0.1496190000000000   5.2069650091609869   10.6256136161103747  3.4441320113707961  0 0 0
269       53   1   -0.1496190000000000   2.6152088984834752   11.5034089141036837  2.4355743178863789  0 0 0
270       53   2    0.0012310000000000   3.1622275264719071   10.7812600400482541  4.6177296025841033  0 0 0
271       54   4   -0.2215910000000000   23.3247214636359388 -10.2744741565112552 -2.8545979528351957  0 0 0