
                                 *****************
                                 * O   R   C   A *
                                 *****************

           --- An Ab Initio, DFT and Semiempirical electronic structure package ---

                  #######################################################
                  #                        -***-                        #
                  #          Department of theory and spectroscopy      #
                  #               Directorship: Frank Neese             #
                  #        Max Planck Institute fuer Kohlenforschung    #
                  #                Kaiser Wilhelm Platz 1               #
                  #                 D-45470 Muelheim/Ruhr               #
                  #                      Germany                        #
                  #                                                     #
                  #                  All rights reserved                #
                  #                        -***-                        #
                  #######################################################


                         Program Version 4.1.2  - RELEASE  -


 With contributions from (in alphabetic order):
   Daniel Aravena         : Magnetic Properties
   Michael Atanasov       : Ab Initio Ligand Field Theory
   Alexander A. Auer      : GIAO ZORA
   Ute Becker             : Parallelization
   Giovanni Bistoni       : ED, Open-shell LED
   Martin Brehm           : Molecular dynamics
   Dmytro Bykov           : SCF Hessian
   Vijay G. Chilkuri      : MRCI spin determinant printing
   Dipayan Datta          : RHF DLPNO-CCSD density
   Achintya Kumar Dutta   : EOM-CC, STEOM-CC
   Dmitry Ganyushin       : Spin-Orbit,Spin-Spin,Magnetic field MRCI
   Miquel Garcia          : C-PCM Hessian
   Yang Guo               : DLPNO-NEVPT2, CIM, IAO-localization
   Andreas Hansen         : Spin unrestricted coupled pair/coupled cluster methods
   Benjamin Helmich-Paris : CASSCF linear response (MC-RPA)
   Lee Huntington         : MR-EOM, pCC
   Robert Izsak           : Overlap fitted RIJCOSX, COSX-SCS-MP3, EOM
   Christian Kollmar      : KDIIS, OOCD, Brueckner-CCSD(T), CCSD density
   Simone Kossmann        : Meta GGA functionals, TD-DFT gradient, OOMP2, MP2 Hessian
   Martin Krupicka        : AUTO-CI
   Lucas Lang             : DCDCAS
   Dagmar Lenk            : GEPOL surface, SMD
   Dimitrios Liakos       : Extrapolation schemes; parallel MDCI
   Dimitrios Manganas     : ROCIS; embedding schemes
   Dimitrios Pantazis     : SARC Basis sets
   Taras Petrenko         : DFT Hessian,TD-DFT gradient, ASA, ECA, R-Raman, ABS, FL, XAS/XES, NRVS
   Peter Pinski           : DLPNO-MP2, DLPNO-MP2 Gradient
   Christoph Reimann      : Effective Core Potentials
   Marius Retegan         : Local ZFS, SOC
   Christoph Riplinger    : Optimizer, TS searches, QM/MM, DLPNO-CCSD(T), (RO)-DLPNO pert. Triples
   Tobias Risthaus        : Range-separated hybrids, TD-DFT gradient, RPA, STAB
   Michael Roemelt        : Restricted open shell CIS
   Masaaki Saitow         : Open-shell DLPNO
   Barbara Sandhoefer     : DKH picture change effects
   Avijit Sen             : IP-ROCIS
   Kantharuban Sivalingam : CASSCF convergence, NEVPT2, FIC-MRCI
   Bernardo de Souza      : ESD, SOC TD-DFT
   Georgi Stoychev        : AutoAux, RI-MP2 NMR
   Willem Van den Heuvel  : Paramagnetic NMR
   Boris Wezisla          : Elementary symmetry handling
   Frank Wennmohs         : Technical directorship


 We gratefully acknowledge several colleagues who have allowed us to
 interface, adapt or use parts of their codes:
   Stefan Grimme, W. Hujo, H. Kruse,             : VdW corrections, initial TS optimization,
                  C. Bannwarth                     DFT functionals, gCP, sTDA/sTD-DF
   Ed Valeev                                     : LibInt (2-el integral package), F12 methods
   Garnet Chan, S. Sharma, J. Yang, R. Olivares  : DMRG
   Ulf Ekstrom                                   : XCFun DFT Library
   Mihaly Kallay                                 : mrcc  (arbitrary order and MRCC methods)
   Andreas Klamt, Michael Diedenhofen            : otool_cosmo (COSMO solvation model)
   Jiri Pittner, Ondrej Demel                    : Mk-CCSD
   Frank Weinhold                                : gennbo (NPA and NBO analysis)
   Christopher J. Cramer and Donald G. Truhlar   : smd solvation model
   Lars Goerigk                                  : TD-DFT with DH, B97 family of functionals
   V. Asgeirsson, H. Jonsson                     : NEB implementation
   FAccTs GmbH                                   : IRC, NEB, NEB-TS, Multilevel


 Your calculation uses the libint2 library for the computation of 2-el integrals
 For citations please refer to: http://libint.valeyev.net

 This ORCA versions uses:
   CBLAS   interface :  Fast vector & matrix operations
   LAPACKE interface :  Fast linear algebra routines
   SCALAPACK package :  Parallel linear algebra routines


Your calculation utilizes the atom-pairwise dispersion correction
with the zero-damping scheme (D30)
Cite in your paper:
S.Grimme, J.Antony, S.Ehrlich and H.Krieg, J.Chem.Phys., 132, (2010), 154104 
   

XCFun DFT library Copyright 2009-2010 Ulf Ekstrom and contributors.
See http://admol.org/xcfun for more information. This is free soft-
ware; see the source code for copying conditions. There is ABSOLUTELY
NO WARRANTY; not even for MERCHANTABILITY or FITNESS FOR A PARTICULAR
PURPOSE. For details see the documentation. Scientific users of this 
library should cite U. Ekstrom, L. Visscher, R. Bast, A. J. Thorvald-
sen and K. Ruud; J.Chem.Theor.Comp. 2010, DOI: 10.1021/ct100117s
XCFun Version 0.99 
----- Orbital basis set information -----
Your calculation utilizes the basis: def2-TZVP
   F. Weigend and R. Ahlrichs, Phys. Chem. Chem. Phys. 7, 3297 (2005).

================================================================================
                                        WARNINGS
                       Please study these warnings very carefully!
================================================================================


WARNING: Geometry Optimization
  ===> : Switching off AutoStart
         For restart on a previous wavefunction, please use MOREAD

INFO   : the flag for use of LIBINT has been found!

================================================================================
                                       INPUT FILE
================================================================================
NAME = bonds_angles_[1[6[8][1][1]]]-[6[8[1]][1][1][1]]_8.in
|  1> #Run DFT geometry optimization
|  2> ! wB97X-D3 def2-TZVP TIGHTSCF Grid5 FinalGrid6 Opt CHELPG PAL4
|  3> 
|  4> %base "8_geo_opt"
|  5> %geom MaxIter 500
|  6> end
|  7> 
|  8> %geom
|  9>   Constraints
| 10>     { B 5 0 C }
| 11>   end
| 12> end
| 13> 
| 14> 
| 15> * xyz 0 1
| 16>   C                    3.011163             -1.180652            0.598587            
| 17>   O                    4.394529             -1.127805            0.874403            
| 18>   H                    4.772052             -0.378777            0.412588            
| 19>   H                    2.806290             -1.318720            -0.469255           
| 20>   H                    2.611488             -2.040020            1.135993            
| 21>   H                    2.484901             -0.284736            0.945564            
| 22> *
| 23> 
| 24>                          ****END OF INPUT****
================================================================================

                       *****************************
                       * Geometry Optimization Run *
                       *****************************

Geometry optimization settings:
Update method            Update   .... BFGS
Choice of coordinates    CoordSys .... Z-matrix Internals
Initial Hessian          InHess   .... Almoef's Model

Convergence Tolerances:
Energy Change            TolE     ....  5.0000e-06 Eh
Max. Gradient            TolMAXG  ....  3.0000e-04 Eh/bohr
RMS Gradient             TolRMSG  ....  1.0000e-04 Eh/bohr
Max. Displacement        TolMAXD  ....  4.0000e-03 bohr
RMS Displacement         TolRMSD  ....  2.0000e-03 bohr

------------------------------------------------------------------------------
                        ORCA OPTIMIZATION COORDINATE SETUP
------------------------------------------------------------------------------

The optimization will be done in new redundant internal coordinates
Making redundant internal coordinates   ...  (new redundants) done
Evaluating the initial hessian          ...  (Almloef) done
Evaluating the coordinates              ...  done
Calculating the B-matrix                .... done
Calculating the G-matrix                .... done
Diagonalizing the G-matrix              .... done
Imposing constraints:
 Iter   0:  RMS(Cart)=    0.0000000000 RMS(Int)=    0.0000000000
CONVERGED
The first mode is                       ....    3
The number of degrees of freedom        ....   12
Storing new coordinates                 .... done

    -----------------------------------------------------------------
                    Redundant Internal Coordinates


    -----------------------------------------------------------------
         Definition                    Initial Value    Approx d2E/dq
    -----------------------------------------------------------------
      1. B(O   1,C   0)                  1.4116         0.516940   
      2. B(H   2,O   1)                  0.9575         0.524720   
      3. B(H   3,C   0)                  1.0960         0.352187   
      4. B(H   4,C   0)                  1.0895         0.360733   
      5. B(H   5,C   0)                  1.0954         0.352962 C 
      6. A(O   1,C   0,H   4)          107.0169         0.340286   
      7. A(O   1,C   0,H   3)          112.2263         0.338926   
      8. A(O   1,C   0,H   5)          112.2281         0.339051   
      9. A(H   3,C   0,H   5)          108.7730         0.288919   
     10. A(H   4,C   0,H   5)          108.2173         0.290007   
     11. A(H   3,C   0,H   4)          108.2177         0.289907   
     12. A(C   0,O   1,H   2)          108.7499         0.359341   
     13. D(H   2,O   1,C   0,H   5)    -61.4304         0.021176   
     14. D(H   2,O   1,C   0,H   3)     61.4271         0.021176   
     15. D(H   2,O   1,C   0,H   4)    179.9980         0.021176   
    -----------------------------------------------------------------

Number of atoms                         .... 6
Number of degrees of freedom            .... 15

         *************************************************************
         *                GEOMETRY OPTIMIZATION CYCLE   1            *
         *************************************************************
---------------------------------
CARTESIAN COORDINATES (ANGSTROEM)
---------------------------------
  C      3.011163   -1.180652    0.598587
  O      4.394529   -1.127805    0.874403
  H      4.772052   -0.378777    0.412588
  H      2.806290   -1.318720   -0.469255
  H      2.611488   -2.040020    1.135993
  H      2.484901   -0.284736    0.945564

----------------------------
CARTESIAN COORDINATES (A.U.)
----------------------------
  NO LB      ZA    FRAG     MASS         X           Y           Z
   0 C     6.0000    0    12.011    5.690273   -2.231109    1.131165
   1 O     8.0000    0    15.999    8.304456   -2.131243    1.652382
   2 H     1.0000    0     1.008    9.017871   -0.715785    0.779678
   3 H     1.0000    0     1.008    5.303120   -2.492020   -0.886763
   4 H     1.0000    0     1.008    4.934997   -3.855079    2.146716
   5 H     1.0000    0     1.008    4.695782   -0.538073    1.786857

--------------------------------
INTERNAL COORDINATES (ANGSTROEM)
--------------------------------
 C      0   0   0     0.000000000000     0.00000000     0.00000000
 O      1   0   0     1.411583777613     0.00000000     0.00000000
 H      2   1   0     0.957517443464   108.74989461     0.00000000
 H      1   2   3     1.096048473252   112.22628004    61.42708736
 H      1   2   3     1.089522222759   107.01687047   179.99801388
 H      1   2   3     1.095449775311   112.22810618   298.56957065

---------------------------
INTERNAL COORDINATES (A.U.)
---------------------------
 C      0   0   0     0.000000000000     0.00000000     0.00000000
 O      1   0   0     2.667506754775     0.00000000     0.00000000
 H      2   1   0     1.809445736600   108.74989461     0.00000000
 H      1   2   3     2.071231443948   112.22628004    61.42708736
 H      1   2   3     2.058898617835   107.01687047   179.99801388
 H      1   2   3     2.070100068803   112.22810618   298.56957065

---------------------
BASIS SET INFORMATION
---------------------
There are 3 groups of distinct atoms

 Group   1 Type C   : 11s6p2d1f contracted to 5s3p2d1f pattern {62111/411/11/1}
 Group   2 Type O   : 11s6p2d1f contracted to 5s3p2d1f pattern {62111/411/11/1}
 Group   3 Type H   : 5s1p contracted to 3s1p pattern {311/1}

Atom   0C    basis set group =>   1
Atom   1O    basis set group =>   2
Atom   2H    basis set group =>   3
Atom   3H    basis set group =>   3
Atom   4H    basis set group =>   3
Atom   5H    basis set group =>   3


           ************************************************************
           *        Program running with 4 parallel MPI-processes     *
           *              working on a common directory               *
           ************************************************************
------------------------------------------------------------------------------
                           ORCA GTO INTEGRAL CALCULATION
------------------------------------------------------------------------------

                         BASIS SET STATISTICS AND STARTUP INFO

 # of primitive gaussian shells          ...   64
 # of primitive gaussian functions       ...  124
 # of contracted shells                  ...   38
 # of contracted basis functions         ...   86
 Highest angular momentum                ...    3
 Maximum contraction depth               ...    6
 Integral package used                   ... LIBINT
 Integral threshhold            Thresh   ...  2.500e-11
 Primitive cut-off              TCut     ...  2.500e-12


------------------------------ INTEGRAL EVALUATION ----------------------------


 * One electron integrals 
 Pre-screening matrix                    ... done
 Shell pair data                         ... done (   0.000 sec)



           ************************************************************
           *        Program running with 4 parallel MPI-processes     *
           *              working on a common directory               *
           ************************************************************
-------------------------------------------------------------------------------
                                 ORCA SCF
-------------------------------------------------------------------------------

------------
SCF SETTINGS
------------
Hamiltonian:
 Density Functional     Method          .... DFT(GTOs)
 Exchange Functional    Exchange        .... WB97X-D3
 Correlation Functional Correlation     .... WB97X-D3
 Gradients option       PostSCFGGA      .... off
 Hybrid DFT is turned on
   Fraction HF Exchange ScalHFX         ....  0.195728
   Scaling of DF-GGA-X  ScalDFX         ....  0.000000
   Scaling of DF-GGA-C  ScalDFC         ....  1.000000
   Scaling of DF-LDA-C  ScalLDAC        ....  1.000000
   Perturbative correction              ....  0.000000
   Density functional embedding theory  .... OFF
 Long-range corrected/Screened/Range-Separated Hybrid DFT is turned on
   Amount of maximum screened exact exchange              ....  0.804272
   Range separation parameter mu (erf(mu*r12)/r12)        ....  0.250000


General Settings:
 Integral files         IntName         .... 8_geo_opt
 Hartree-Fock type      HFTyp           .... RHF
 Total Charge           Charge          ....    0
 Multiplicity           Mult            ....    1
 Number of Electrons    NEL             ....   18
 Basis Dimension        Dim             ....   86
 Nuclear Repulsion      ENuc            ....     40.4403988092 Eh

Convergence Acceleration:
 DIIS                   CNVDIIS         .... on
   Start iteration      DIISMaxIt       ....    12
   Startup error        DIISStart       ....  0.200000
   # of expansion vecs  DIISMaxEq       ....     5
   Bias factor          DIISBfac        ....   1.050
   Max. coefficient     DIISMaxC        ....  10.000
 Newton-Raphson         CNVNR           .... off
 SOSCF                  CNVSOSCF        .... on
   Start iteration      SOSCFMaxIt      ....   150
   Startup grad/error   SOSCFStart      ....  0.003300
 Level Shifting         CNVShift        .... on
   Level shift para.    LevelShift      ....    0.2500
   Turn off err/grad.   ShiftErr        ....    0.0010
 Zerner damping         CNVZerner       .... off
 Static damping         CNVDamp         .... on
   Fraction old density DampFac         ....    0.7000
   Max. Damping (<1)    DampMax         ....    0.9800
   Min. Damping (>=0)   DampMin         ....    0.0000
   Turn off err/grad.   DampErr         ....    0.1000
 Fernandez-Rico         CNVRico         .... off

SCF Procedure:
 Maximum # iterations   MaxIter         ....   125
 SCF integral mode      SCFMode         .... Direct
   Integral package                     .... LIBINT
 Reset frequency        DirectResetFreq ....    20
 Integral Threshold     Thresh          ....  2.500e-11 Eh
 Primitive CutOff       TCut            ....  2.500e-12 Eh

Convergence Tolerance:
 Convergence Check Mode ConvCheckMode   .... Total+1el-Energy
 Convergence forced     ConvForced      .... 0
 Energy Change          TolE            ....  1.000e-08 Eh
 1-El. energy change                    ....  1.000e-05 Eh
 Orbital Gradient       TolG            ....  1.000e-05
 Orbital Rotation angle TolX            ....  1.000e-05
 DIIS Error             TolErr          ....  5.000e-07


Diagonalization of the overlap matrix:
Smallest eigenvalue                        ... 1.649e-03
Time for diagonalization                   ...    0.002 sec
Threshold for overlap eigenvalues          ... 1.000e-08
Number of eigenvalues below threshold      ... 0
Time for construction of square roots      ...    0.004 sec
Total time needed                          ...    0.006 sec

-------------------
DFT GRID GENERATION
-------------------

General Integration Accuracy     IntAcc      ...  5.010
Radial Grid Type                 RadialGrid  ... Gauss-Chebyshev
Angular Grid (max. acc.)         AngularGrid ... Lebedev-434
Angular grid pruning method      GridPruning ... 3 (G Style)
Weight generation scheme         WeightScheme... Becke
Basis function cutoff            BFCut       ...    1.0000e-11
Integration weight cutoff        WCut        ...    1.0000e-14
Grids for H and He will be reduced by one unit

# of grid points (after initial pruning)     ...  48308 (   0.0 sec)
# of grid points (after weights+screening)   ...  46676 (   0.0 sec)
nearest neighbour list constructed           ...    0.0 sec
Grid point re-assignment to atoms done       ...    0.0 sec
Grid point division into batches done        ...    0.3 sec
Reduced shell lists constructed in    0.3 sec

Total number of grid points                  ...    46676
Total number of batches                      ...      733
Average number of points per batch           ...       63
Average number of grid points per atom       ...     7779
Average number of shells per batch           ...    33.11 (87.14%)
Average number of basis functions per batch  ...    76.78 (89.28%)
Average number of large shells per batch     ...    30.62 (92.47%)
Average number of large basis fcns per batch ...    72.29 (94.15%)
Maximum spatial batch extension              ...  15.77, 14.99, 16.58 au
Average spatial batch extension              ...   0.40,  0.40,  0.43 au

Time for grid setup =    0.436 sec

------------------------------
INITIAL GUESS: MODEL POTENTIAL
------------------------------
Loading Hartree-Fock densities                     ... done
Calculating cut-offs                               ... done
Setting up the integral package                    ... done
Initializing the effective Hamiltonian             ... done
Starting the Coulomb interaction                   ... done (   0.0 sec)
Reading the grid                                   ... done
Mapping shells                                     ... done
Starting the XC term evaluation                    ... done (   0.1 sec)
  promolecular density results
     # of electrons  =     17.998045194
     EX              =    -14.430386025
     EC              =     -0.575130175
     EX+EC           =    -15.005516200
Transforming the Hamiltonian                       ... done (   0.0 sec)
Diagonalizing the Hamiltonian                      ... done (   0.0 sec)
Back transforming the eigenvectors                 ... done (   0.0 sec)
Now organizing SCF variables                       ... done
                      ------------------
                      INITIAL GUESS DONE (   0.6 sec)
                      ------------------
--------------
SCF ITERATIONS
--------------
ITER       Energy         Delta-E        Max-DP      RMS-DP      [F,P]     Damp
               ***  Starting incremental Fock matrix formation  ***
  0   -115.6511849934   0.000000000000 0.03696651  0.00147481  0.2523642 0.7000
  1   -115.6882606695  -0.037075676114 0.02203028  0.00104094  0.1262627 0.7000
                               ***Turning on DIIS***
  2   -115.7053303974  -0.017069727910 0.03156780  0.00188155  0.0491074 0.0000
  3   -115.7330765855  -0.027746188087 0.01774176  0.00068036  0.0611241 0.0000
  4   -115.7376012267  -0.004524641145 0.00406526  0.00013180  0.0065608 0.0000
                      *** Initiating the SOSCF procedure ***
                           *** Shutting down DIIS ***
                      *** Re-Reading the Fockian *** 
                      *** Removing any level shift *** 
ITER      Energy       Delta-E        Grad      Rot      Max-DP    RMS-DP
  5   -115.73769542  -0.0000941954  0.000489  0.000489  0.000678  0.000043
               *** Restarting incremental Fock matrix formation ***
  6   -115.73770356  -0.0000081425  0.000152  0.000202  0.000490  0.000026
  7   -115.73770429  -0.0000007220  0.000056  0.000109  0.000208  0.000011
  8   -115.73770434  -0.0000000574  0.000019  0.000017  0.000030  0.000001
  9   -115.73770435  -0.0000000055  0.000010  0.000008  0.000015  0.000001
 10   -115.73770435  -0.0000000015  0.000003  0.000003  0.000003  0.000000
                  ***Gradient check signals convergence***
              ***Rediagonalizing the Fockian in SOSCF/NRSCF***

               *****************************************************
               *                     SUCCESS                       *
               *           SCF CONVERGED AFTER  11 CYCLES          *
               *****************************************************

Setting up the final grid:

General Integration Accuracy     IntAcc      ...  5.340
Radial Grid Type                 RadialGrid  ... Gauss-Chebyshev
Angular Grid (max. acc.)         AngularGrid ... Lebedev-590
Angular grid pruning method      GridPruning ... 3 (G Style)
Weight generation scheme         WeightScheme... Becke
Basis function cutoff            BFCut       ...    1.0000e-11
Integration weight cutoff        WCut        ...    1.0000e-14
Grids for H and He will be reduced by one unit

# of grid points (after initial pruning)     ...  77324 (   0.0 sec)
# of grid points (after weights+screening)   ...  74512 (   0.0 sec)
nearest neighbour list constructed           ...    0.0 sec
Grid point re-assignment to atoms done       ...    0.0 sec
Grid point division into batches done        ...    0.8 sec
Reduced shell lists constructed in    0.8 sec

Total number of grid points                  ...    74512
Total number of batches                      ...     1167
Average number of points per batch           ...       63
Average number of grid points per atom       ...    12419
Average number of shells per batch           ...    32.93 (86.65%)
Average number of basis functions per batch  ...    76.37 (88.80%)
Average number of large shells per batch     ...    30.32 (92.07%)
Average number of large basis fcns per batch ...    71.53 (93.67%)
Maximum spatial batch extension              ...  13.18, 14.25, 15.48 au
Average spatial batch extension              ...   0.34,  0.36,  0.37 au

Final grid set up in    0.9 sec
Final integration                            ... done (   0.2 sec)
Change in XC energy                          ...    -0.000107597
Integrated number of electrons               ...    18.000000750
Previous integrated no of electrons          ...    18.000002281

----------------
TOTAL SCF ENERGY
----------------

Total Energy       :         -115.73781195 Eh           -3149.38597 eV

Components:
Nuclear Repulsion  :           40.44039881 Eh            1100.43920 eV
Electronic Energy  :         -156.17821076 Eh           -4249.82517 eV
One Electron Energy:         -237.29988034 Eh           -6457.25802 eV
Two Electron Energy:           81.12166958 Eh            2207.43285 eV

Virial components:
Potential Energy   :         -230.98923309 Eh           -6285.53658 eV
Kinetic Energy     :          115.25142115 Eh            3136.15061 eV
Virial Ratio       :            2.00422026


DFT components:
N(Alpha)           :        9.000000374879 electrons
N(Beta)            :        9.000000374879 electrons
N(Total)           :       18.000000749759 electrons
E(XC)              :      -10.655786994143 Eh       
DFET-embed. en.    :        0.000000000000 Eh       

---------------
SCF CONVERGENCE
---------------

  Last Energy change         ...   -6.2940e-11  Tolerance :   1.0000e-08
  Last MAX-Density change    ...    1.8649e-06  Tolerance :   1.0000e-07
  Last RMS-Density change    ...    7.7964e-08  Tolerance :   5.0000e-09
  Last Orbital Gradient      ...    1.3497e-06  Tolerance :   1.0000e-05
  Last Orbital Rotation      ...    7.8027e-07  Tolerance :   1.0000e-05

             **** THE GBW FILE WAS UPDATED (8_geo_opt.gbw) ****
             **** DENSITY FILE WAS UPDATED (8_geo_opt.scfp.tmp) ****
             **** ENERGY FILE WAS UPDATED (8_geo_opt.en.tmp) ****
----------------
ORBITAL ENERGIES
----------------

  NO   OCC          E(Eh)            E(eV) 
   0   2.0000     -19.228072      -523.2224 
   1   2.0000     -10.315047      -280.6867 
   2   2.0000      -1.136791       -30.9337 
   3   2.0000      -0.795386       -21.6436 
   4   2.0000      -0.611609       -16.6427 
   5   2.0000      -0.541822       -14.7437 
   6   2.0000      -0.526316       -14.3218 
   7   2.0000      -0.433801       -11.8043 
   8   2.0000      -0.373613       -10.1665 
   9   0.0000       0.116651         3.1742 
  10   0.0000       0.156697         4.2639 
  11   0.0000       0.202580         5.5125 
  12   0.0000       0.205162         5.5827 
  13   0.0000       0.226383         6.1602 
  14   0.0000       0.304333         8.2813 
  15   0.0000       0.313352         8.5268 
  16   0.0000       0.404508        11.0072 
  17   0.0000       0.452629        12.3167 
  18   0.0000       0.485019        13.1980 
  19   0.0000       0.535946        14.5838 
  20   0.0000       0.543654        14.7936 
  21   0.0000       0.567692        15.4477 
  22   0.0000       0.598601        16.2888 
  23   0.0000       0.603609        16.4250 
  24   0.0000       0.671333        18.2679 
  25   0.0000       0.779013        21.1980 
  26   0.0000       0.832203        22.6454 
  27   0.0000       0.861308        23.4374 
  28   0.0000       0.989578        26.9278 
  29   0.0000       1.013924        27.5903 
  30   0.0000       1.109755        30.1980 
  31   0.0000       1.382642        37.6236 
  32   0.0000       1.512877        41.1675 
  33   0.0000       1.553560        42.2745 
  34   0.0000       1.602809        43.6146 
  35   0.0000       1.612995        43.8918 
  36   0.0000       1.624310        44.1997 
  37   0.0000       1.660456        45.1833 
  38   0.0000       1.688116        45.9360 
  39   0.0000       1.774635        48.2903 
  40   0.0000       1.952095        53.1192 
  41   0.0000       2.030700        55.2581 
  42   0.0000       2.055233        55.9257 
  43   0.0000       2.094254        56.9876 
  44   0.0000       2.114661        57.5428 
  45   0.0000       2.268636        61.7327 
  46   0.0000       2.333515        63.4982 
  47   0.0000       2.345636        63.8280 
  48   0.0000       2.380988        64.7900 
  49   0.0000       2.429687        66.1152 
  50   0.0000       2.497810        67.9689 
  51   0.0000       2.596515        70.6548 
  52   0.0000       2.640109        71.8410 
  53   0.0000       2.707237        73.6677 
  54   0.0000       2.842076        77.3368 
  55   0.0000       2.871265        78.1311 
  56   0.0000       2.888413        78.5977 
  57   0.0000       2.992858        81.4398 
  58   0.0000       3.096161        84.2508 
  59   0.0000       3.173113        86.3448 
  60   0.0000       3.299434        89.7822 
  61   0.0000       3.408548        92.7513 
  62   0.0000       3.441904        93.6590 
  63   0.0000       3.488503        94.9270 
  64   0.0000       3.612630        98.3047 
  65   0.0000       3.645403        99.1965 
  66   0.0000       3.667055        99.7857 
  67   0.0000       4.005578       108.9973 
  68   0.0000       4.224354       114.9505 
  69   0.0000       4.273614       116.2909 
  70   0.0000       4.456130       121.2575 
  71   0.0000       4.564401       124.2037 
  72   0.0000       5.346122       145.4754 
  73   0.0000       5.425389       147.6323 
  74   0.0000       5.554388       151.1426 
  75   0.0000       5.826206       158.5391 
  76   0.0000       5.834131       158.7548 
  77   0.0000       5.985601       162.8765 
  78   0.0000       6.379605       173.5979 
  79   0.0000       6.530949       177.7162 
  80   0.0000       6.745009       183.5410 
  81   0.0000       6.804041       185.1474 
  82   0.0000       7.039419       191.5523 
  83   0.0000       7.215928       196.3554 
  84   0.0000      22.406956       609.7243 
  85   0.0000      43.664308      1188.1662 

                    ********************************
                    * MULLIKEN POPULATION ANALYSIS *
                    ********************************

-----------------------
MULLIKEN ATOMIC CHARGES
-----------------------
   0 C :   -0.150804
   1 O :   -0.477679
   2 H :    0.312997
   3 H :    0.098596
   4 H :    0.118199
   5 H :    0.098692
Sum of atomic charges:   -0.0000000

--------------------------------
MULLIKEN REDUCED ORBITAL CHARGES
--------------------------------
  0 C s       :     3.222991  s :     3.222991
      pz      :     1.047267  p :     2.826160
      px      :     0.702202
      py      :     1.076690
      dz2     :     0.011105  d :     0.094235
      dxz     :     0.032493
      dyz     :     0.002644
      dx2y2   :     0.012740
      dxy     :     0.035253
      f0      :     0.001356  f :     0.007420
      f+1     :     0.000956
      f-1     :     0.000175
      f+2     :     0.001464
      f-2     :     0.000123
      f+3     :     0.001361
      f-3     :     0.001985
  1 O s       :     3.792782  s :     3.792782
      pz      :     1.759406  p :     4.652634
      px      :     1.313652
      py      :     1.579576
      dz2     :     0.003136  d :     0.030577
      dxz     :     0.006477
      dyz     :     0.005835
      dx2y2   :     0.008936
      dxy     :     0.006193
      f0      :     0.000269  f :     0.001685
      f+1     :     0.000233
      f-1     :     0.000087
      f+2     :     0.000287
      f-2     :     0.000235
      f+3     :     0.000367
      f-3     :     0.000206
  2 H s       :     0.639310  s :     0.639310
      pz      :     0.017006  p :     0.047693
      px      :     0.012720
      py      :     0.017967
  3 H s       :     0.882040  s :     0.882040
      pz      :     0.012072  p :     0.019365
      px      :     0.003007
      py      :     0.004286
  4 H s       :     0.861581  s :     0.861581
      pz      :     0.006297  p :     0.020219
      px      :     0.004194
      py      :     0.009729
  5 H s       :     0.881927  s :     0.881927
      pz      :     0.004937  p :     0.019381
      px      :     0.004982
      py      :     0.009463


                     *******************************
                     * LOEWDIN POPULATION ANALYSIS *
                     *******************************

----------------------
LOEWDIN ATOMIC CHARGES
----------------------
   0 C :   -0.385075
   1 O :   -0.076106
   2 H :    0.165779
   3 H :    0.093407
   4 H :    0.108704
   5 H :    0.093291

-------------------------------
LOEWDIN REDUCED ORBITAL CHARGES
-------------------------------
  0 C s       :     2.862805  s :     2.862805
      pz      :     1.096631  p :     3.052295
      px      :     0.846055
      py      :     1.109609
      dz2     :     0.072414  d :     0.412949
      dxz     :     0.114037
      dyz     :     0.020710
      dx2y2   :     0.082150
      dxy     :     0.123639
      f0      :     0.007823  f :     0.057026
      f+1     :     0.007163
      f-1     :     0.000855
      f+2     :     0.012527
      f-2     :     0.004832
      f+3     :     0.011736
      f-3     :     0.012091
  1 O s       :     3.366276  s :     3.366276
      pz      :     1.699043  p :     4.633621
      px      :     1.381192
      py      :     1.553385
      dz2     :     0.006131  d :     0.071565
      dxz     :     0.017863
      dyz     :     0.008086
      dx2y2   :     0.019338
      dxy     :     0.020148
      f0      :     0.000483  f :     0.004645
      f+1     :     0.000622
      f-1     :     0.000072
      f+2     :     0.001050
      f-2     :     0.000560
      f+3     :     0.000890
      f-3     :     0.000966
  2 H s       :     0.675138  s :     0.675138
      pz      :     0.055755  p :     0.159083
      px      :     0.033905
      py      :     0.069423
  3 H s       :     0.846772  s :     0.846772
      pz      :     0.036178  p :     0.059821
      px      :     0.009713
      py      :     0.013929
  4 H s       :     0.831705  s :     0.831705
      pz      :     0.019210  p :     0.059591
      px      :     0.011608
      py      :     0.028773
  5 H s       :     0.846790  s :     0.846790
      pz      :     0.015640  p :     0.059919
      px      :     0.015230
      py      :     0.029050


                      *****************************
                      * MAYER POPULATION ANALYSIS *
                      *****************************

  NA   - Mulliken gross atomic population
  ZA   - Total nuclear charge
  QA   - Mulliken gross atomic charge
  VA   - Mayer's total valence
  BVA  - Mayer's bonded valence
  FA   - Mayer's free valence

  ATOM       NA         ZA         QA         VA         BVA        FA
  0 C      6.1508     6.0000    -0.1508     3.9350     3.9350    -0.0000
  1 O      8.4777     8.0000    -0.4777     1.8880     1.8880    -0.0000
  2 H      0.6870     1.0000     0.3130     0.9136     0.9136     0.0000
  3 H      0.9014     1.0000     0.0986     0.9596     0.9596    -0.0000
  4 H      0.8818     1.0000     0.1182     0.9598     0.9598     0.0000
  5 H      0.9013     1.0000     0.0987     0.9596     0.9596    -0.0000

  Mayer bond orders larger than 0.1
B(  0-C ,  1-O ) :   0.9986 B(  0-C ,  3-H ) :   0.9756 B(  0-C ,  4-H ) :   0.9750 
B(  0-C ,  5-H ) :   0.9755 B(  1-O ,  2-H ) :   0.9002 

-------
TIMINGS
-------

Total SCF time: 0 days 0 hours 0 min 8 sec 

Total time                  ....       8.601 sec
Sum of individual times     ....       8.256 sec  ( 96.0%)

Fock matrix formation       ....       6.667 sec  ( 77.5%)
  XC integration            ....       1.903 sec  ( 28.5% of F)
    Basis function eval.    ....       0.418 sec  ( 21.9% of XC)
    Density eval.           ....       0.265 sec  ( 13.9% of XC)
    XC-Functional eval.     ....       0.674 sec  ( 35.4% of XC)
    XC-Potential eval.      ....       0.296 sec  ( 15.5% of XC)
Diagonalization             ....       0.021 sec  (  0.2%)
Density matrix formation    ....       0.002 sec  (  0.0%)
Population analysis         ....       0.015 sec  (  0.2%)
Initial guess               ....       0.182 sec  (  2.1%)
Orbital Transformation      ....       0.000 sec  (  0.0%)
Orbital Orthonormalization  ....       0.000 sec  (  0.0%)
DIIS solution               ....       0.022 sec  (  0.3%)
SOSCF solution              ....       0.024 sec  (  0.3%)
Grid generation             ....       1.323 sec  ( 15.4%)


-------------------------------------------------------------------------------
                          DFT DISPERSION CORRECTION                            
                                                                               
                              DFTD3 V3.1  Rev 1                                
                              USING zero damping                               
-------------------------------------------------------------------------------
The omegaB97X-D3 functional is recognized. Fit by Chai et al.
Active option DFTDOPT                   ...         3   

molecular C6(AA) [au] = 208.715024 


            DFT-D V3
 parameters
 s6 scaling factor         :     1.0000 
 rs6 scaling factor        :     1.2810 
 s8 scaling factor         :     1.0000 
 rs8 scaling factor        :     1.0940 
 Damping factor alpha6     :    14.0000 
 Damping factor alpha8     :    16.0000 
 ad hoc parameters k1-k3   :    16.0000     1.3333    -4.0000 

 Edisp/kcal,au: -0.150075071605  -0.000239159824 
 E6   /kcal   :  -0.029597325 
 E8   /kcal   :  -0.120477747 
 % E8         :  80.278320223 

-------------------------   ----------------
Dispersion correction           -0.000239160
-------------------------   ----------------


-------------------------   --------------------
FINAL SINGLE POINT ENERGY      -115.738051107874
-------------------------   --------------------



           ************************************************************
           *        Program running with 4 parallel MPI-processes     *
           *              working on a common directory               *
           ************************************************************
------------------------------------------------------------------------------
                         ORCA SCF GRADIENT CALCULATION
------------------------------------------------------------------------------

Gradient of the Kohn-Sham DFT energy:
Kohn-Sham wavefunction type      ... RKS
Hartree-Fock exchange scaling    ...    0.196
Number of operators              ...    1
Number of atoms                  ...    6
Basis set dimensions             ...   86
Integral neglect threshold       ... 2.5e-11
Integral primitive cutoff        ... 2.5e-12

Nuclear repulsion gradient       ... done
One Electron Gradient            ... done
Pre-screening matrix             ... done
Starting the two electron gradient:
Two electron gradient done
Exchange-correlation gradient    ... done
Dispersion correction            ... done

------------------
CARTESIAN GRADIENT
------------------

   1   C   :   -0.000246363    0.000319159    0.000069064
   2   O   :    0.000014477   -0.000030838    0.000028738
   3   H   :    0.000000439    0.000010197   -0.000010033
   4   H   :    0.000006469    0.000015344    0.000004053
   5   H   :    0.000037292   -0.000005990    0.000019734
   6   H   :    0.000187687   -0.000307870   -0.000111555

Difference to translation invariance:
           :    0.0000000000    0.0000000000   -0.0000000000

Norm of the cartesian gradient     ...    0.0005604309
RMS gradient                       ...    0.0001320948
MAX gradient                       ...    0.0003191587

-------
TIMINGS
-------

Total SCF gradient time            ...        1.638 sec

One electron gradient       ....       0.021 sec  (  1.3%)
Prescreening matrices       ....       0.026 sec  (  1.6%)
Two electron gradient       ....       0.838 sec  ( 51.2%)
XC gradient                 ....       0.417 sec  ( 25.5%)
------------------------------------------------------------------------------
                         ORCA GEOMETRY RELAXATION STEP
------------------------------------------------------------------------------

Reading the OPT-File                    .... done
Getting information on internals        .... done
Copying old internal coords+grads       .... done
Making the new internal coordinates     .... (new redundants).... done
Validating the new internal coordinates .... (new redundants).... done
Calculating the B-matrix                .... done
Calculating the G,G- and P matrices     .... done
Transforming gradient to internals      .... done
Projecting the internal gradient        .... done
Number of atoms                         ....   6
Number of internal coordinates          ....  15
Current Energy                          ....  -115.738051108 Eh
Current gradient norm                   ....     0.000560431 Eh/bohr
Maximum allowed component of the step   ....  0.300
Current trust radius                    ....  0.300
Evaluating the initial hessian          ....  (Almloef) done
Projecting the Hessian                  .... done
Forming the augmented Hessian           .... done
Diagonalizing the augmented Hessian     .... done
Last element of RFO vector              ....  0.999999967
Lowest eigenvalues of augmented Hessian:
 -0.000000018  0.021176292  0.181888994  0.192370792  0.313440454
Length of the computed step             ....  0.000257117
The final length of the internal step   ....  0.000257117
Converting the step to cartesian space:
 Initial RMS(Int)=    0.0000663873
Transforming coordinates:
 Iter   0:  RMS(Cart)=    0.0000632718 RMS(Int)=    0.0000663879
 Iter   1:  RMS(Cart)=    0.0000000048 RMS(Int)=    0.0000000055
Imposing constraints:
 Iter   0:  RMS(Cart)=    0.0000000003 RMS(Int)=    0.0000000000
CONVERGED
done
Storing new coordinates                 .... done

                                .--------------------.
          ----------------------|Geometry convergence|-------------------------
          Item                value                   Tolerance       Converged
          ---------------------------------------------------------------------
          RMS gradient        0.0000195280            0.0001000000      YES
          MAX gradient        0.0000593235            0.0003000000      YES
          RMS step            0.0000663873            0.0020000000      YES
          MAX step            0.0001861377            0.0040000000      YES
          ........................................................
          Max(Bonds)      0.0000      Max(Angles)    0.01
          Max(Dihed)        0.01      Max(Improp)    0.00
          ---------------------------------------------------------------------

                    ***********************HURRAY********************
                    ***        THE OPTIMIZATION HAS CONVERGED     ***
                    *************************************************


    ---------------------------------------------------------------------------
                         Redundant Internal Coordinates

                          --- Optimized Parameters ---  
                            (Angstroem and degrees)

        Definition                    OldVal   dE/dq     Step     FinalVal
    ----------------------------------------------------------------------------
     1. B(O   1,C   0)                1.4116  0.000018 -0.0000    1.4116   
     2. B(H   2,O   1)                0.9575  0.000012 -0.0000    0.9575   
     3. B(H   3,C   0)                1.0960 -0.000007  0.0000    1.0961   
     4. B(H   4,C   0)                1.0895  0.000001 -0.0000    1.0895   
     5. B(H   5,C   0)                1.0954 -0.000377  0.0000    1.0954 C 
     6. A(O   1,C   0,H   4)          107.02 -0.000059    0.01    107.03   
     7. A(O   1,C   0,H   3)          112.23  0.000003   -0.00    112.23   
     8. A(O   1,C   0,H   5)          112.23 -0.000001    0.00    112.23   
     9. A(H   3,C   0,H   5)          108.77  0.000008   -0.00    108.77   
    10. A(H   4,C   0,H   5)          108.22  0.000018   -0.00    108.22   
    11. A(H   3,C   0,H   4)          108.22  0.000033   -0.01    108.21   
    12. A(C   0,O   1,H   2)          108.75 -0.000009    0.00    108.75   
    13. D(H   2,O   1,C   0,H   5)    -61.43 -0.000010    0.01    -61.42   
    14. D(H   2,O   1,C   0,H   3)     61.43  0.000001    0.00     61.43   
    15. D(H   2,O   1,C   0,H   4)    180.00  0.000005    0.00    180.00   
    ----------------------------------------------------------------------------
                 *******************************************************
                 *** FINAL ENERGY EVALUATION AT THE STATIONARY POINT ***
                 ***               (AFTER    1 CYCLES)               ***
                 *******************************************************
---------------------------------
CARTESIAN COORDINATES (ANGSTROEM)
---------------------------------
  C      3.011199   -1.180670    0.598621
  O      4.394558   -1.127785    0.874372
  H      4.772049   -0.378738    0.412587
  H      2.806295   -1.318751   -0.469223
  H      2.611391   -2.040020    1.135956
  H      2.484929   -0.284746    0.945568

----------------------------
CARTESIAN COORDINATES (A.U.)
----------------------------
  NO LB      ZA    FRAG     MASS         X           Y           Z
   0 C     6.0000    0    12.011    5.690342   -2.231142    1.131231
   1 O     8.0000    0    15.999    8.304512   -2.131205    1.652323
   2 H     1.0000    0     1.008    9.017866   -0.715712    0.779676
   3 H     1.0000    0     1.008    5.303130   -2.492078   -0.886704
   4 H     1.0000    0     1.008    4.934815   -3.855078    2.146645
   5 H     1.0000    0     1.008    4.695836   -0.538093    1.786864

--------------------------------
INTERNAL COORDINATES (ANGSTROEM)
--------------------------------
 C      0   0   0     0.000000000000     0.00000000     0.00000000
 O      1   0   0     1.411565521374     0.00000000     0.00000000
 H      2   1   0     0.957504918217   108.75133635     0.00000000
 H      1   2   3     1.096058762135   112.22548466    61.42997080
 H      1   2   3     1.089521296033   107.02753522   179.99935747
 H      1   2   3     1.095449775944   112.22857700   298.57537824

---------------------------
INTERNAL COORDINATES (A.U.)
---------------------------
 C      0   0   0     0.000000000000     0.00000000     0.00000000
 O      1   0   0     2.667472255483     0.00000000     0.00000000
 H      2   1   0     1.809422067312   108.75133635     0.00000000
 H      1   2   3     2.071250887119   112.22548466    61.42997080
 H      1   2   3     2.058896866578   107.02753522   179.99935747
 H      1   2   3     2.070100070000   112.22857700   298.57537824

---------------------
BASIS SET INFORMATION
---------------------
There are 3 groups of distinct atoms

 Group   1 Type C   : 11s6p2d1f contracted to 5s3p2d1f pattern {62111/411/11/1}
 Group   2 Type O   : 11s6p2d1f contracted to 5s3p2d1f pattern {62111/411/11/1}
 Group   3 Type H   : 5s1p contracted to 3s1p pattern {311/1}

Atom   0C    basis set group =>   1
Atom   1O    basis set group =>   2
Atom   2H    basis set group =>   3
Atom   3H    basis set group =>   3
Atom   4H    basis set group =>   3
Atom   5H    basis set group =>   3


           ************************************************************
           *        Program running with 4 parallel MPI-processes     *
           *              working on a common directory               *
           ************************************************************
------------------------------------------------------------------------------
                           ORCA GTO INTEGRAL CALCULATION
------------------------------------------------------------------------------

                         BASIS SET STATISTICS AND STARTUP INFO

 # of primitive gaussian shells          ...   64
 # of primitive gaussian functions       ...  124
 # of contracted shells                  ...   38
 # of contracted basis functions         ...   86
 Highest angular momentum                ...    3
 Maximum contraction depth               ...    6
 Integral package used                   ... LIBINT
 Integral threshhold            Thresh   ...  2.500e-11
 Primitive cut-off              TCut     ...  2.500e-12


------------------------------ INTEGRAL EVALUATION ----------------------------


 * One electron integrals 
 Pre-screening matrix                    ... done
 Shell pair data                         ... done (   0.000 sec)



           ************************************************************
           *        Program running with 4 parallel MPI-processes     *
           *              working on a common directory               *
           ************************************************************
-------------------------------------------------------------------------------
                                 ORCA SCF
-------------------------------------------------------------------------------

------------
SCF SETTINGS
------------
Hamiltonian:
 Density Functional     Method          .... DFT(GTOs)
 Exchange Functional    Exchange        .... WB97X-D3
 Correlation Functional Correlation     .... WB97X-D3
 Gradients option       PostSCFGGA      .... off
 Hybrid DFT is turned on
   Fraction HF Exchange ScalHFX         ....  0.195728
   Scaling of DF-GGA-X  ScalDFX         ....  0.000000
   Scaling of DF-GGA-C  ScalDFC         ....  1.000000
   Scaling of DF-LDA-C  ScalLDAC        ....  1.000000
   Perturbative correction              ....  0.000000
   Density functional embedding theory  .... OFF
 Long-range corrected/Screened/Range-Separated Hybrid DFT is turned on
   Amount of maximum screened exact exchange              ....  0.804272
   Range separation parameter mu (erf(mu*r12)/r12)        ....  0.250000


General Settings:
 Integral files         IntName         .... 8_geo_opt
 Hartree-Fock type      HFTyp           .... RHF
 Total Charge           Charge          ....    0
 Multiplicity           Mult            ....    1
 Number of Electrons    NEL             ....   18
 Basis Dimension        Dim             ....   86
 Nuclear Repulsion      ENuc            ....     40.4405889539 Eh

Convergence Acceleration:
 DIIS                   CNVDIIS         .... on
   Start iteration      DIISMaxIt       ....    12
   Startup error        DIISStart       ....  0.200000
   # of expansion vecs  DIISMaxEq       ....     5
   Bias factor          DIISBfac        ....   1.050
   Max. coefficient     DIISMaxC        ....  10.000
 Newton-Raphson         CNVNR           .... off
 SOSCF                  CNVSOSCF        .... on
   Start iteration      SOSCFMaxIt      ....   150
   Startup grad/error   SOSCFStart      ....  0.003300
 Level Shifting         CNVShift        .... on
   Level shift para.    LevelShift      ....    0.2500
   Turn off err/grad.   ShiftErr        ....    0.0010
 Zerner damping         CNVZerner       .... off
 Static damping         CNVDamp         .... on
   Fraction old density DampFac         ....    0.7000
   Max. Damping (<1)    DampMax         ....    0.9800
   Min. Damping (>=0)   DampMin         ....    0.0000
   Turn off err/grad.   DampErr         ....    0.1000
 Fernandez-Rico         CNVRico         .... off

SCF Procedure:
 Maximum # iterations   MaxIter         ....   125
 SCF integral mode      SCFMode         .... Direct
   Integral package                     .... LIBINT
 Reset frequency        DirectResetFreq ....    20
 Integral Threshold     Thresh          ....  2.500e-11 Eh
 Primitive CutOff       TCut            ....  2.500e-12 Eh

Convergence Tolerance:
 Convergence Check Mode ConvCheckMode   .... Total+1el-Energy
 Convergence forced     ConvForced      .... 0
 Energy Change          TolE            ....  1.000e-08 Eh
 1-El. energy change                    ....  1.000e-05 Eh
 Orbital Gradient       TolG            ....  1.000e-05
 Orbital Rotation angle TolX            ....  1.000e-05
 DIIS Error             TolErr          ....  5.000e-07


Diagonalization of the overlap matrix:
Smallest eigenvalue                        ... 1.649e-03
Time for diagonalization                   ...    0.002 sec
Threshold for overlap eigenvalues          ... 1.000e-08
Number of eigenvalues below threshold      ... 0
Time for construction of square roots      ...    0.003 sec
Total time needed                          ...    0.005 sec

---------------------
INITIAL GUESS: MOREAD
---------------------
Guess MOs are being read from file: 8_geo_opt.gbw
Input Geometry matches current geometry (good)
Input basis set matches current basis set (good)
MOs were renormalized
MOs were reorthogonalized (Cholesky)
                      ------------------
                      INITIAL GUESS DONE (   0.0 sec)
                      ------------------
-------------------
DFT GRID GENERATION
-------------------

General Integration Accuracy     IntAcc      ...  5.010
Radial Grid Type                 RadialGrid  ... Gauss-Chebyshev
Angular Grid (max. acc.)         AngularGrid ... Lebedev-434
Angular grid pruning method      GridPruning ... 3 (G Style)
Weight generation scheme         WeightScheme... Becke
Basis function cutoff            BFCut       ...    1.0000e-11
Integration weight cutoff        WCut        ...    1.0000e-14
Grids for H and He will be reduced by one unit

# of grid points (after initial pruning)     ...  48308 (   0.0 sec)
# of grid points (after weights+screening)   ...  46677 (   0.0 sec)
nearest neighbour list constructed           ...    0.0 sec
Grid point re-assignment to atoms done       ...    0.0 sec
Grid point division into batches done        ...    0.3 sec
Reduced shell lists constructed in    0.4 sec

Total number of grid points                  ...    46677
Total number of batches                      ...      733
Average number of points per batch           ...       63
Average number of grid points per atom       ...     7780
Average number of shells per batch           ...    33.14 (87.21%)
Average number of basis functions per batch  ...    76.85 (89.36%)
Average number of large shells per batch     ...    30.61 (92.35%)
Average number of large basis fcns per batch ...    72.30 (94.08%)
Maximum spatial batch extension              ...  15.77, 14.99, 16.58 au
Average spatial batch extension              ...   0.40,  0.41,  0.42 au

Time for grid setup =    0.455 sec

--------------
SCF ITERATIONS
--------------
ITER       Energy         Delta-E        Max-DP      RMS-DP      [F,P]     Damp
               ***  Starting incremental Fock matrix formation  ***
                      *** Initiating the SOSCF procedure ***
                      *** Re-Reading the Fockian *** 
                      *** Removing any level shift *** 
ITER      Energy       Delta-E        Grad      Rot      Max-DP    RMS-DP
  0   -115.73770435 -115.7377043486  0.000007  0.000007  0.000010  0.000001
               *** Restarting incremental Fock matrix formation ***
  1   -115.73770435  -0.0000000019  0.000004  0.000004  0.000004  0.000000
  2   -115.73770435  -0.0000000002  0.000003  0.000002  0.000003  0.000000
                 **** Energy Check signals convergence ****
              ***Rediagonalizing the Fockian in SOSCF/NRSCF***

               *****************************************************
               *                     SUCCESS                       *
               *           SCF CONVERGED AFTER   3 CYCLES          *
               *****************************************************

Setting up the final grid:

General Integration Accuracy     IntAcc      ...  5.340
Radial Grid Type                 RadialGrid  ... Gauss-Chebyshev
Angular Grid (max. acc.)         AngularGrid ... Lebedev-590
Angular grid pruning method      GridPruning ... 3 (G Style)
Weight generation scheme         WeightScheme... Becke
Basis function cutoff            BFCut       ...    1.0000e-11
Integration weight cutoff        WCut        ...    1.0000e-14
Grids for H and He will be reduced by one unit

# of grid points (after initial pruning)     ...  77324 (   0.0 sec)
# of grid points (after weights+screening)   ...  74512 (   0.0 sec)
nearest neighbour list constructed           ...    0.0 sec
Grid point re-assignment to atoms done       ...    0.0 sec
Grid point division into batches done        ...    0.8 sec
Reduced shell lists constructed in    0.8 sec

Total number of grid points                  ...    74512
Total number of batches                      ...     1167
Average number of points per batch           ...       63
Average number of grid points per atom       ...    12419
Average number of shells per batch           ...    32.93 (86.65%)
Average number of basis functions per batch  ...    76.37 (88.80%)
Average number of large shells per batch     ...    30.32 (92.07%)
Average number of large basis fcns per batch ...    71.53 (93.67%)
Maximum spatial batch extension              ...  13.18, 14.25, 15.48 au
Average spatial batch extension              ...   0.34,  0.36,  0.37 au

Final grid set up in    0.9 sec
Final integration                            ... done (   0.2 sec)
Change in XC energy                          ...    -0.000107607
Integrated number of electrons               ...    18.000000750
Previous integrated no of electrons          ...    18.000002279

----------------
TOTAL SCF ENERGY
----------------

Total Energy       :         -115.73781196 Eh           -3149.38598 eV

Components:
Nuclear Repulsion  :           40.44058895 Eh            1100.44437 eV
Electronic Energy  :         -156.17840091 Eh           -4249.83035 eV
One Electron Energy:         -237.30026583 Eh           -6457.26851 eV
Two Electron Energy:           81.12186492 Eh            2207.43817 eV

Virial components:
Potential Energy   :         -230.98929011 Eh           -6285.53813 eV
Kinetic Energy     :          115.25147815 Eh            3136.15216 eV
Virial Ratio       :            2.00421976


DFT components:
N(Alpha)           :        9.000000374866 electrons
N(Beta)            :        9.000000374866 electrons
N(Total)           :       18.000000749731 electrons
E(XC)              :      -10.655798001165 Eh       
DFET-embed. en.    :        0.000000000000 Eh       

---------------
SCF CONVERGENCE
---------------

  Last Energy change         ...   -1.4363e-10  Tolerance :   1.0000e-08
  Last MAX-Density change    ...    6.5860e-07  Tolerance :   1.0000e-07
  Last RMS-Density change    ...    5.0877e-08  Tolerance :   5.0000e-09
  Last Orbital Gradient      ...    6.3849e-07  Tolerance :   1.0000e-05
  Last Orbital Rotation      ...    6.2374e-07  Tolerance :   1.0000e-05

             **** THE GBW FILE WAS UPDATED (8_geo_opt.gbw) ****
             **** DENSITY FILE WAS UPDATED (8_geo_opt.scfp.tmp) ****
             **** ENERGY FILE WAS UPDATED (8_geo_opt.en.tmp) ****
----------------
ORBITAL ENERGIES
----------------

  NO   OCC          E(Eh)            E(eV) 
   0   2.0000     -19.228067      -523.2223 
   1   2.0000     -10.315042      -280.6866 
   2   2.0000      -1.136796       -30.9338 
   3   2.0000      -0.795387       -21.6436 
   4   2.0000      -0.611611       -16.6428 
   5   2.0000      -0.541819       -14.7436 
   6   2.0000      -0.526326       -14.3221 
   7   2.0000      -0.433794       -11.8041 
   8   2.0000      -0.373610       -10.1665 
   9   0.0000       0.116653         3.1743 
  10   0.0000       0.156694         4.2639 
  11   0.0000       0.202588         5.5127 
  12   0.0000       0.205163         5.5828 
  13   0.0000       0.226383         6.1602 
  14   0.0000       0.304345         8.2817 
  15   0.0000       0.313352         8.5267 
  16   0.0000       0.404517        11.0075 
  17   0.0000       0.452636        12.3169 
  18   0.0000       0.485007        13.1977 
  19   0.0000       0.535943        14.5838 
  20   0.0000       0.543658        14.7937 
  21   0.0000       0.567699        15.4479 
  22   0.0000       0.598602        16.2888 
  23   0.0000       0.603624        16.4254 
  24   0.0000       0.671327        18.2677 
  25   0.0000       0.779015        21.1981 
  26   0.0000       0.832193        22.6451 
  27   0.0000       0.861321        23.4377 
  28   0.0000       0.989581        26.9279 
  29   0.0000       1.013913        27.5900 
  30   0.0000       1.109762        30.1982 
  31   0.0000       1.382648        37.6238 
  32   0.0000       1.512885        41.1677 
  33   0.0000       1.553565        42.2747 
  34   0.0000       1.602804        43.6145 
  35   0.0000       1.612990        43.8917 
  36   0.0000       1.624331        44.2003 
  37   0.0000       1.660446        45.1830 
  38   0.0000       1.688122        45.9361 
  39   0.0000       1.774649        48.2907 
  40   0.0000       1.952110        53.1196 
  41   0.0000       2.030661        55.2571 
  42   0.0000       2.055235        55.9258 
  43   0.0000       2.094263        56.9878 
  44   0.0000       2.114639        57.5423 
  45   0.0000       2.268630        61.7326 
  46   0.0000       2.333522        63.4984 
  47   0.0000       2.345658        63.8286 
  48   0.0000       2.381020        64.7908 
  49   0.0000       2.429703        66.1156 
  50   0.0000       2.497843        67.9698 
  51   0.0000       2.596479        70.6538 
  52   0.0000       2.640122        71.8414 
  53   0.0000       2.707271        73.6686 
  54   0.0000       2.842144        77.3387 
  55   0.0000       2.871287        78.1317 
  56   0.0000       2.888365        78.5964 
  57   0.0000       2.992831        81.4391 
  58   0.0000       3.096168        84.2510 
  59   0.0000       3.173122        86.3450 
  60   0.0000       3.299348        89.7798 
  61   0.0000       3.408476        92.7494 
  62   0.0000       3.441979        93.6610 
  63   0.0000       3.488513        94.9273 
  64   0.0000       3.612622        98.3044 
  65   0.0000       3.645429        99.1972 
  66   0.0000       3.667070        99.7861 
  67   0.0000       4.005626       108.9986 
  68   0.0000       4.224355       114.9505 
  69   0.0000       4.273647       116.2918 
  70   0.0000       4.456053       121.2554 
  71   0.0000       4.564399       124.2036 
  72   0.0000       5.346130       145.4756 
  73   0.0000       5.425397       147.6325 
  74   0.0000       5.554406       151.1431 
  75   0.0000       5.826236       158.5400 
  76   0.0000       5.834157       158.7555 
  77   0.0000       5.985631       162.8773 
  78   0.0000       6.379640       173.5988 
  79   0.0000       6.530953       177.7163 
  80   0.0000       6.745004       183.5409 
  81   0.0000       6.804056       185.1478 
  82   0.0000       7.039416       191.5523 
  83   0.0000       7.215937       196.3556 
  84   0.0000      22.407008       609.7257 
  85   0.0000      43.664299      1188.1660 

                    ********************************
                    * MULLIKEN POPULATION ANALYSIS *
                    ********************************

-----------------------
MULLIKEN ATOMIC CHARGES
-----------------------
   0 C :   -0.150813
   1 O :   -0.477676
   2 H :    0.313004
   3 H :    0.098592
   4 H :    0.118201
   5 H :    0.098691
Sum of atomic charges:   -0.0000000

--------------------------------
MULLIKEN REDUCED ORBITAL CHARGES
--------------------------------
  0 C s       :     3.222983  s :     3.222983
      pz      :     1.047279  p :     2.826171
      px      :     0.702200
      py      :     1.076692
      dz2     :     0.011105  d :     0.094239
      dxz     :     0.032496
      dyz     :     0.002644
      dx2y2   :     0.012738
      dxy     :     0.035255
      f0      :     0.001356  f :     0.007420
      f+1     :     0.000956
      f-1     :     0.000175
      f+2     :     0.001464
      f-2     :     0.000123
      f+3     :     0.001361
      f-3     :     0.001985
  1 O s       :     3.792773  s :     3.792773
      pz      :     1.759427  p :     4.652641
      px      :     1.313662
      py      :     1.579551
      dz2     :     0.003136  d :     0.030577
      dxz     :     0.006477
      dyz     :     0.005835
      dx2y2   :     0.008938
      dxy     :     0.006192
      f0      :     0.000269  f :     0.001685
      f+1     :     0.000233
      f-1     :     0.000087
      f+2     :     0.000287
      f-2     :     0.000235
      f+3     :     0.000367
      f-3     :     0.000206
  2 H s       :     0.639301  s :     0.639301
      pz      :     0.017007  p :     0.047694
      px      :     0.012720
      py      :     0.017967
  3 H s       :     0.882043  s :     0.882043
      pz      :     0.012072  p :     0.019365
      px      :     0.003007
      py      :     0.004286
  4 H s       :     0.861580  s :     0.861580
      pz      :     0.006297  p :     0.020220
      px      :     0.004194
      py      :     0.009729
  5 H s       :     0.881927  s :     0.881927
      pz      :     0.004937  p :     0.019382
      px      :     0.004982
      py      :     0.009463


                     *******************************
                     * LOEWDIN POPULATION ANALYSIS *
                     *******************************

----------------------
LOEWDIN ATOMIC CHARGES
----------------------
   0 C :   -0.385094
   1 O :   -0.076087
   2 H :    0.165778
   3 H :    0.093409
   4 H :    0.108701
   5 H :    0.093292

-------------------------------
LOEWDIN REDUCED ORBITAL CHARGES
-------------------------------
  0 C s       :     2.862797  s :     2.862797
      pz      :     1.096636  p :     3.052305
      px      :     0.846061
      py      :     1.109608
      dz2     :     0.072413  d :     0.412965
      dxz     :     0.114045
      dyz     :     0.020706
      dx2y2   :     0.082151
      dxy     :     0.123650
      f0      :     0.007823  f :     0.057028
      f+1     :     0.007163
      f-1     :     0.000855
      f+2     :     0.012526
      f-2     :     0.004832
      f+3     :     0.011737
      f-3     :     0.012091
  1 O s       :     3.366253  s :     3.366253
      pz      :     1.699052  p :     4.633622
      px      :     1.381206
      py      :     1.553363
      dz2     :     0.006131  d :     0.071566
      dxz     :     0.017863
      dyz     :     0.008086
      dx2y2   :     0.019340
      dxy     :     0.020147
      f0      :     0.000483  f :     0.004645
      f+1     :     0.000622
      f-1     :     0.000072
      f+2     :     0.001051
      f-2     :     0.000560
      f+3     :     0.000890
      f-3     :     0.000967
  2 H s       :     0.675133  s :     0.675133
      pz      :     0.055756  p :     0.159088
      px      :     0.033905
      py      :     0.069427
  3 H s       :     0.846772  s :     0.846772
      pz      :     0.036177  p :     0.059819
      px      :     0.009713
      py      :     0.013929
  4 H s       :     0.831706  s :     0.831706
      pz      :     0.019210  p :     0.059592
      px      :     0.011610
      py      :     0.028773
  5 H s       :     0.846789  s :     0.846789
      pz      :     0.015639  p :     0.059919
      px      :     0.015230
      py      :     0.029050


                      *****************************
                      * MAYER POPULATION ANALYSIS *
                      *****************************

  NA   - Mulliken gross atomic population
  ZA   - Total nuclear charge
  QA   - Mulliken gross atomic charge
  VA   - Mayer's total valence
  BVA  - Mayer's bonded valence
  FA   - Mayer's free valence

  ATOM       NA         ZA         QA         VA         BVA        FA
  0 C      6.1508     6.0000    -0.1508     3.9350     3.9350     0.0000
  1 O      8.4777     8.0000    -0.4777     1.8880     1.8880     0.0000
  2 H      0.6870     1.0000     0.3130     0.9136     0.9136    -0.0000
  3 H      0.9014     1.0000     0.0986     0.9596     0.9596    -0.0000
  4 H      0.8818     1.0000     0.1182     0.9598     0.9598     0.0000
  5 H      0.9013     1.0000     0.0987     0.9596     0.9596     0.0000

  Mayer bond orders larger than 0.1
B(  0-C ,  1-O ) :   0.9986 B(  0-C ,  3-H ) :   0.9756 B(  0-C ,  4-H ) :   0.9749 
B(  0-C ,  5-H ) :   0.9755 B(  1-O ,  2-H ) :   0.9002 

-------
TIMINGS
-------

Total SCF time: 0 days 0 hours 0 min 4 sec 

Total time                  ....       4.151 sec
Sum of individual times     ....       3.870 sec  ( 93.2%)

Fock matrix formation       ....       2.492 sec  ( 60.0%)
  XC integration            ....       0.753 sec  ( 30.2% of F)
    Basis function eval.    ....       0.167 sec  ( 22.2% of XC)
    Density eval.           ....       0.118 sec  ( 15.7% of XC)
    XC-Functional eval.     ....       0.271 sec  ( 36.1% of XC)
    XC-Potential eval.      ....       0.100 sec  ( 13.3% of XC)
Diagonalization             ....       0.002 sec  (  0.1%)
Density matrix formation    ....       0.001 sec  (  0.0%)
Population analysis         ....       0.010 sec  (  0.3%)
Initial guess               ....       0.003 sec  (  0.1%)
Orbital Transformation      ....       0.000 sec  (  0.0%)
Orbital Orthonormalization  ....       0.001 sec  (  0.0%)
DIIS solution               ....       0.000 sec  (  0.0%)
SOSCF solution              ....       0.005 sec  (  0.1%)
Grid generation             ....       1.355 sec  ( 32.7%)


-------------------------------------------------------------------------------
                          DFT DISPERSION CORRECTION                            
                                                                               
                              DFTD3 V3.1  Rev 1                                
                              USING zero damping                               
-------------------------------------------------------------------------------
The omegaB97X-D3 functional is recognized. Fit by Chai et al.
Active option DFTDOPT                   ...         3   

molecular C6(AA) [au] = 208.715017 


            DFT-D V3
 parameters
 s6 scaling factor         :     1.0000 
 rs6 scaling factor        :     1.2810 
 s8 scaling factor         :     1.0000 
 rs8 scaling factor        :     1.0940 
 Damping factor alpha6     :    14.0000 
 Damping factor alpha8     :    16.0000 
 ad hoc parameters k1-k3   :    16.0000     1.3333    -4.0000 

 Edisp/kcal,au: -0.150077553922  -0.000239163780 
 E6   /kcal   :  -0.029599866 
 E8   /kcal   :  -0.120477688 
 % E8         :  80.276953175 

-------------------------   ----------------
Dispersion correction           -0.000239164
-------------------------   ----------------


-------------------------   --------------------
FINAL SINGLE POINT ENERGY      -115.738051121412
-------------------------   --------------------

                                *** OPTIMIZATION RUN DONE ***

                            ***************************************
                            *     ORCA property calculations      *
                            ***************************************

                                    ---------------------
                                    Active property flags
                                    ---------------------
   (+) Dipole Moment


------------------------------------------------------------------------------
                       ORCA ELECTRIC PROPERTIES CALCULATION
------------------------------------------------------------------------------

Dipole Moment Calculation                       ... on
Quadrupole Moment Calculation                   ... off
Polarizability Calculation                      ... off
GBWName                                         ... 8_geo_opt.gbw
Electron density file                           ... 8_geo_opt.scfp.tmp
The origin for moment calculation is the CENTER OF MASS  = ( 7.033077, -2.139603  1.369447)

-------------
DIPOLE MOMENT
-------------
                                X             Y             Z
Electronic contribution:      1.75561      -0.02764       0.42005
Nuclear contribution   :     -2.06559       0.47540      -0.81760
                        -----------------------------------------
Total Dipole Moment    :     -0.30998       0.44776      -0.39755
                        -----------------------------------------
Magnitude (a.u.)       :      0.67426
Magnitude (Debye)      :      1.71383



--------------------
Rotational spectrum 
--------------------
 
Rotational constants in cm-1:     4.294253     0.833855     0.804942 
Rotational constants in MHz : 128738.458416 24998.353009 24131.565507 

 Dipole components along the rotational axes: 
x,y,z [a.u.] :    -0.333002     0.586287    -0.000576 
x,y,z [Debye]:    -0.846425     1.490222    -0.001465 

 
------------------------------------------------------------------------------
                      ORCA CHELPG CHARGES GENERATION
------------------------------------------------------------------------------

GBW file                           ... 8_geo_opt.gbw

Reading the GBW file               ... done

Grid spacing                       ...     0.300000
Point Cut-Off                      ...     2.800000
Van-der-Waals Radii                ...        COSMO
Total charge                       ...            0


Number of points X direction       ...           26
Number of points Y direction       ...           24
Number of points Z direction       ...           24
Maximum number of possible points  ...        14976
Final number of points             ...         5948


CHELPG Charges            
--------------------------------
  0   C   :       0.094096
  1   O   :      -0.607028
  2   H   :       0.403874
  3   H   :       0.014234
  4   H   :       0.080948
  5   H   :       0.013877
--------------------------------
Total charge:     0.000000
--------------------------------

CHELPG charges calculated...

Timings for individual parts in CHELPG calculation:
Grid generation                 ...        0.002 sec (=   0.000 min)
Potential calculation           ...        0.768 sec (=   0.013 min)
Fit to the potential            ...        0.001 sec (=   0.000 min)
------------------------------------------------------------------------------


Timings for individual modules:

Sum of individual times         ...       30.828 sec (=   0.514 min)
GTO integral calculation        ...        5.545 sec (=   0.092 min)  18.0 %
SCF iterations                  ...       16.413 sec (=   0.274 min)  53.2 %
SCF Gradient evaluation         ...        2.209 sec (=   0.037 min)   7.2 %
Geometry relaxation             ...        3.096 sec (=   0.052 min)  10.0 %
CHELPG charge generation        ...        3.564 sec (=   0.059 min)  11.6 %
                             ****ORCA TERMINATED NORMALLY****
TOTAL RUN TIME: 0 days 0 hours 0 minutes 35 seconds 443 msec
