
                                 *****************
                                 * O   R   C   A *
                                 *****************

           --- An Ab Initio, DFT and Semiempirical electronic structure package ---

                  #######################################################
                  #                        -***-                        #
                  #          Department of theory and spectroscopy      #
                  #               Directorship: Frank Neese             #
                  #        Max Planck Institute fuer Kohlenforschung    #
                  #                Kaiser Wilhelm Platz 1               #
                  #                 D-45470 Muelheim/Ruhr               #
                  #                      Germany                        #
                  #                                                     #
                  #                  All rights reserved                #
                  #                        -***-                        #
                  #######################################################


                         Program Version 4.1.2  - RELEASE  -


 With contributions from (in alphabetic order):
   Daniel Aravena         : Magnetic Properties
   Michael Atanasov       : Ab Initio Ligand Field Theory
   Alexander A. Auer      : GIAO ZORA
   Ute Becker             : Parallelization
   Giovanni Bistoni       : ED, Open-shell LED
   Martin Brehm           : Molecular dynamics
   Dmytro Bykov           : SCF Hessian
   Vijay G. Chilkuri      : MRCI spin determinant printing
   Dipayan Datta          : RHF DLPNO-CCSD density
   Achintya Kumar Dutta   : EOM-CC, STEOM-CC
   Dmitry Ganyushin       : Spin-Orbit,Spin-Spin,Magnetic field MRCI
   Miquel Garcia          : C-PCM Hessian
   Yang Guo               : DLPNO-NEVPT2, CIM, IAO-localization
   Andreas Hansen         : Spin unrestricted coupled pair/coupled cluster methods
   Benjamin Helmich-Paris : CASSCF linear response (MC-RPA)
   Lee Huntington         : MR-EOM, pCC
   Robert Izsak           : Overlap fitted RIJCOSX, COSX-SCS-MP3, EOM
   Christian Kollmar      : KDIIS, OOCD, Brueckner-CCSD(T), CCSD density
   Simone Kossmann        : Meta GGA functionals, TD-DFT gradient, OOMP2, MP2 Hessian
   Martin Krupicka        : AUTO-CI
   Lucas Lang             : DCDCAS
   Dagmar Lenk            : GEPOL surface, SMD
   Dimitrios Liakos       : Extrapolation schemes; parallel MDCI
   Dimitrios Manganas     : ROCIS; embedding schemes
   Dimitrios Pantazis     : SARC Basis sets
   Taras Petrenko         : DFT Hessian,TD-DFT gradient, ASA, ECA, R-Raman, ABS, FL, XAS/XES, NRVS
   Peter Pinski           : DLPNO-MP2, DLPNO-MP2 Gradient
   Christoph Reimann      : Effective Core Potentials
   Marius Retegan         : Local ZFS, SOC
   Christoph Riplinger    : Optimizer, TS searches, QM/MM, DLPNO-CCSD(T), (RO)-DLPNO pert. Triples
   Tobias Risthaus        : Range-separated hybrids, TD-DFT gradient, RPA, STAB
   Michael Roemelt        : Restricted open shell CIS
   Masaaki Saitow         : Open-shell DLPNO
   Barbara Sandhoefer     : DKH picture change effects
   Avijit Sen             : IP-ROCIS
   Kantharuban Sivalingam : CASSCF convergence, NEVPT2, FIC-MRCI
   Bernardo de Souza      : ESD, SOC TD-DFT
   Georgi Stoychev        : AutoAux, RI-MP2 NMR
   Willem Van den Heuvel  : Paramagnetic NMR
   Boris Wezisla          : Elementary symmetry handling
   Frank Wennmohs         : Technical directorship


 We gratefully acknowledge several colleagues who have allowed us to
 interface, adapt or use parts of their codes:
   Stefan Grimme, W. Hujo, H. Kruse,             : VdW corrections, initial TS optimization,
                  C. Bannwarth                     DFT functionals, gCP, sTDA/sTD-DF
   Ed Valeev                                     : LibInt (2-el integral package), F12 methods
   Garnet Chan, S. Sharma, J. Yang, R. Olivares  : DMRG
   Ulf Ekstrom                                   : XCFun DFT Library
   Mihaly Kallay                                 : mrcc  (arbitrary order and MRCC methods)
   Andreas Klamt, Michael Diedenhofen            : otool_cosmo (COSMO solvation model)
   Jiri Pittner, Ondrej Demel                    : Mk-CCSD
   Frank Weinhold                                : gennbo (NPA and NBO analysis)
   Christopher J. Cramer and Donald G. Truhlar   : smd solvation model
   Lars Goerigk                                  : TD-DFT with DH, B97 family of functionals
   V. Asgeirsson, H. Jonsson                     : NEB implementation
   FAccTs GmbH                                   : IRC, NEB, NEB-TS, Multilevel


 Your calculation uses the libint2 library for the computation of 2-el integrals
 For citations please refer to: http://libint.valeyev.net

 This ORCA versions uses:
   CBLAS   interface :  Fast vector & matrix operations
   LAPACKE interface :  Fast linear algebra routines
   SCALAPACK package :  Parallel linear algebra routines


Your calculation utilizes the atom-pairwise dispersion correction
with the zero-damping scheme (D30)
Cite in your paper:
S.Grimme, J.Antony, S.Ehrlich and H.Krieg, J.Chem.Phys., 132, (2010), 154104 
   

XCFun DFT library Copyright 2009-2010 Ulf Ekstrom and contributors.
See http://admol.org/xcfun for more information. This is free soft-
ware; see the source code for copying conditions. There is ABSOLUTELY
NO WARRANTY; not even for MERCHANTABILITY or FITNESS FOR A PARTICULAR
PURPOSE. For details see the documentation. Scientific users of this 
library should cite U. Ekstrom, L. Visscher, R. Bast, A. J. Thorvald-
sen and K. Ruud; J.Chem.Theor.Comp. 2010, DOI: 10.1021/ct100117s
XCFun Version 0.99 
----- Orbital basis set information -----
Your calculation utilizes the basis: def2-TZVP
   F. Weigend and R. Ahlrichs, Phys. Chem. Chem. Phys. 7, 3297 (2005).

================================================================================
                                        WARNINGS
                       Please study these warnings very carefully!
================================================================================


INFO   : the flag for use of LIBINT has been found!

================================================================================
                                       INPUT FILE
================================================================================
NAME = 106.in
|  1> #Run DFT-D3 single point of the dimer
|  2> ! wB97X-D3 def2-TZVP TIGHTSCF  CHELPG PAL8
|  3> 
|  4> %base "106_charges"
|  5> 
|  6> %scf
|  7> MaxIter 1000
|  8> end
|  9> %output
| 10>   Print[ P_Mayer ] 1
| 11>   Print[ P_NatPop ] 1
| 12>   Print[ P_Hirshfeld ] 1
| 13>   Print[ P_Mulliken ] 1
| 14>   Print [ P_Loewdin ] 1
| 15> end
| 16> 
| 17> * xyz 0 1
| 18>   C                      8.442610             -2.694539            -10.295550          
| 19>   O                      8.893716             -1.730356            -11.267304          
| 20>   H                      8.372021             -1.803997            -12.069838          
| 21>   H                      8.085913             -3.614369            -10.685009          
| 22>   H                      9.174335             -2.948121            -9.549247           
| 23>   H                      7.523256             -2.319667            -9.847647           
| 24> *
| 25> 
| 26>                          ****END OF INPUT****
================================================================================

                       ****************************
                       * Single Point Calculation *
                       ****************************

---------------------------------
CARTESIAN COORDINATES (ANGSTROEM)
---------------------------------
  C      8.442610   -2.694539  -10.295550
  O      8.893716   -1.730356  -11.267304
  H      8.372021   -1.803997  -12.069838
  H      8.085913   -3.614369  -10.685009
  H      9.174335   -2.948121   -9.549247
  H      7.523256   -2.319667   -9.847647

----------------------------
CARTESIAN COORDINATES (A.U.)
----------------------------
  NO LB      ZA    FRAG     MASS         X           Y           Z
   0 C     6.0000    0    12.011   15.954221   -5.091941  -19.455770
   1 O     8.0000    0    15.999   16.806688   -3.269899  -21.292119
   2 H     1.0000    0     1.008   15.820827   -3.409060  -22.808688
   3 H     1.0000    0     1.008   15.280161   -6.830168  -20.191741
   4 H     1.0000    0     1.008   17.336981   -5.571141  -18.045462
   5 H     1.0000    0     1.008   14.216893   -4.383535  -18.609356

--------------------------------
INTERNAL COORDINATES (ANGSTROEM)
--------------------------------
 C      0   0   0     0.000000000000     0.00000000     0.00000000
 O      1   0   0     1.441336642579     0.00000000     0.00000000
 H      2   1   0     0.960025776249   110.01155652     0.00000000
 H      1   2   3     1.060659366333   115.96526313    33.30265846
 H      1   2   3     1.075496849906   114.37004114   157.45725111
 H      1   2   3     1.089200574325   108.13072136   282.61398566

---------------------------
INTERNAL COORDINATES (A.U.)
---------------------------
 C      0   0   0     0.000000000000     0.00000000     0.00000000
 O      1   0   0     2.723731521260     0.00000000     0.00000000
 H      2   1   0     1.814185798615   110.01155652     0.00000000
 H      1   2   3     2.004355723748   115.96526313    33.30265846
 H      1   2   3     2.032394504218   114.37004114   157.45725111
 H      1   2   3     2.058290790383   108.13072136   282.61398566

---------------------
BASIS SET INFORMATION
---------------------
There are 3 groups of distinct atoms

 Group   1 Type C   : 11s6p2d1f contracted to 5s3p2d1f pattern {62111/411/11/1}
 Group   2 Type O   : 11s6p2d1f contracted to 5s3p2d1f pattern {62111/411/11/1}
 Group   3 Type H   : 5s1p contracted to 3s1p pattern {311/1}

Atom   0C    basis set group =>   1
Atom   1O    basis set group =>   2
Atom   2H    basis set group =>   3
Atom   3H    basis set group =>   3
Atom   4H    basis set group =>   3
Atom   5H    basis set group =>   3


           ************************************************************
           *        Program running with 8 parallel MPI-processes     *
           *              working on a common directory               *
           ************************************************************
------------------------------------------------------------------------------
                           ORCA GTO INTEGRAL CALCULATION
------------------------------------------------------------------------------

                         BASIS SET STATISTICS AND STARTUP INFO

 # of primitive gaussian shells          ...   64
 # of primitive gaussian functions       ...  124
 # of contracted shells                  ...   38
 # of contracted basis functions         ...   86
 Highest angular momentum                ...    3
 Maximum contraction depth               ...    6
 Integral package used                   ... LIBINT
 Integral threshhold            Thresh   ...  2.500e-11
 Primitive cut-off              TCut     ...  2.500e-12


------------------------------ INTEGRAL EVALUATION ----------------------------


 * One electron integrals 
 Pre-screening matrix                    ... done
 Shell pair data                         ... done (   0.000 sec)



           ************************************************************
           *        Program running with 8 parallel MPI-processes     *
           *              working on a common directory               *
           ************************************************************
-------------------------------------------------------------------------------
                                 ORCA SCF
-------------------------------------------------------------------------------

------------
SCF SETTINGS
------------
Hamiltonian:
 Density Functional     Method          .... DFT(GTOs)
 Exchange Functional    Exchange        .... WB97X-D3
 Correlation Functional Correlation     .... WB97X-D3
 Gradients option       PostSCFGGA      .... off
 Hybrid DFT is turned on
   Fraction HF Exchange ScalHFX         ....  0.195728
   Scaling of DF-GGA-X  ScalDFX         ....  0.000000
   Scaling of DF-GGA-C  ScalDFC         ....  1.000000
   Scaling of DF-LDA-C  ScalLDAC        ....  1.000000
   Perturbative correction              ....  0.000000
   Density functional embedding theory  .... OFF
 Long-range corrected/Screened/Range-Separated Hybrid DFT is turned on
   Amount of maximum screened exact exchange              ....  0.804272
   Range separation parameter mu (erf(mu*r12)/r12)        ....  0.250000


General Settings:
 Integral files         IntName         .... 106_charges
 Hartree-Fock type      HFTyp           .... RHF
 Total Charge           Charge          ....    0
 Multiplicity           Mult            ....    1
 Number of Electrons    NEL             ....   18
 Basis Dimension        Dim             ....   86
 Nuclear Repulsion      ENuc            ....     40.0854999341 Eh

Convergence Acceleration:
 DIIS                   CNVDIIS         .... on
   Start iteration      DIISMaxIt       ....    12
   Startup error        DIISStart       ....  0.200000
   # of expansion vecs  DIISMaxEq       ....     5
   Bias factor          DIISBfac        ....   1.050
   Max. coefficient     DIISMaxC        ....  10.000
 Newton-Raphson         CNVNR           .... off
 SOSCF                  CNVSOSCF        .... on
   Start iteration      SOSCFMaxIt      ....   150
   Startup grad/error   SOSCFStart      ....  0.003300
 Level Shifting         CNVShift        .... on
   Level shift para.    LevelShift      ....    0.2500
   Turn off err/grad.   ShiftErr        ....    0.0010
 Zerner damping         CNVZerner       .... off
 Static damping         CNVDamp         .... on
   Fraction old density DampFac         ....    0.7000
   Max. Damping (<1)    DampMax         ....    0.9800
   Min. Damping (>=0)   DampMin         ....    0.0000
   Turn off err/grad.   DampErr         ....    0.1000
 Fernandez-Rico         CNVRico         .... off

SCF Procedure:
 Maximum # iterations   MaxIter         ....  1000
 SCF integral mode      SCFMode         .... Direct
   Integral package                     .... LIBINT
 Reset frequency        DirectResetFreq ....    20
 Integral Threshold     Thresh          ....  2.500e-11 Eh
 Primitive CutOff       TCut            ....  2.500e-12 Eh

Convergence Tolerance:
 Convergence Check Mode ConvCheckMode   .... Total+1el-Energy
 Convergence forced     ConvForced      .... 0
 Energy Change          TolE            ....  1.000e-08 Eh
 1-El. energy change                    ....  1.000e-05 Eh
 Orbital Gradient       TolG            ....  1.000e-05
 Orbital Rotation angle TolX            ....  1.000e-05
 DIIS Error             TolErr          ....  5.000e-07


Diagonalization of the overlap matrix:
Smallest eigenvalue                        ... 1.545e-03
Time for diagonalization                   ...    0.078 sec
Threshold for overlap eigenvalues          ... 1.000e-08
Number of eigenvalues below threshold      ... 0
Time for construction of square roots      ...    0.833 sec
Total time needed                          ...    0.911 sec

-------------------
DFT GRID GENERATION
-------------------

General Integration Accuracy     IntAcc      ...  4.340
Radial Grid Type                 RadialGrid  ... Gauss-Chebyshev
Angular Grid (max. acc.)         AngularGrid ... Lebedev-110
Angular grid pruning method      GridPruning ... 3 (G Style)
Weight generation scheme         WeightScheme... Becke
Basis function cutoff            BFCut       ...    1.0000e-11
Integration weight cutoff        WCut        ...    1.0000e-14
Grids for H and He will be reduced by one unit

# of grid points (after initial pruning)     ...   6548 (   0.0 sec)
# of grid points (after weights+screening)   ...   6380 (   1.5 sec)
nearest neighbour list constructed           ...    0.0 sec
Grid point re-assignment to atoms done       ...    0.0 sec
Grid point division into batches done        ...    0.0 sec
Reduced shell lists constructed in    0.0 sec

Total number of grid points                  ...     6380
Total number of batches                      ...      102
Average number of points per batch           ...       62
Average number of grid points per atom       ...     1063
Average number of shells per batch           ...    31.21 (82.14%)
Average number of basis functions per batch  ...    71.21 (82.81%)
Average number of large shells per batch     ...    30.21 (96.80%)
Average number of large basis fcns per batch ...    69.50 (97.59%)
Maximum spatial batch extension              ...  16.60, 15.30, 13.99 au
Average spatial batch extension              ...   0.45,  0.43,  0.39 au

Time for grid setup =    2.411 sec

------------------------------
INITIAL GUESS: MODEL POTENTIAL
------------------------------
Loading Hartree-Fock densities                     ... done
Calculating cut-offs                               ... done
Setting up the integral package                    ... done
Initializing the effective Hamiltonian             ... done
Starting the Coulomb interaction                   ... done (   0.0 sec)
Reading the grid                                   ... done
Mapping shells                                     ... done
Starting the XC term evaluation                    ... done (   0.2 sec)
  promolecular density results
     # of electrons  =     17.994764315
     EX              =    -14.428906715
     EC              =     -0.574530226
     EX+EC           =    -15.003436941
Transforming the Hamiltonian                       ... done (   0.0 sec)
Diagonalizing the Hamiltonian                      ... done (   0.0 sec)
Back transforming the eigenvectors                 ... done (   0.0 sec)
Now organizing SCF variables                       ... done
                      ------------------
                      INITIAL GUESS DONE (   3.0 sec)
                      ------------------
--------------
SCF ITERATIONS
--------------
ITER       Energy         Delta-E        Max-DP      RMS-DP      [F,P]     Damp
               ***  Starting incremental Fock matrix formation  ***
  0   -115.6445876292   0.000000000000 0.03552779  0.00147108  0.2393937 0.7000
  1   -115.6812273234  -0.036639694137 0.02076525  0.00104460  0.1189788 0.7000
                               ***Turning on DIIS***
  2   -115.6982706346  -0.017043311266 0.02850605  0.00189959  0.0453376 0.0000
  3   -115.7261396199  -0.027868985270 0.01736202  0.00068862  0.0589501 0.0000
  4   -115.7305497014  -0.004410081503 0.00400699  0.00013049  0.0059341 0.0000
                      *** Initiating the SOSCF procedure ***
                           *** Shutting down DIIS ***
                      *** Re-Reading the Fockian *** 
                      *** Removing any level shift *** 
ITER      Energy       Delta-E        Grad      Rot      Max-DP    RMS-DP
  5   -115.73064126  -0.0000915557  0.000481  0.000481  0.000714  0.000043
               *** Restarting incremental Fock matrix formation ***
  6   -115.73064949  -0.0000082287  0.000157  0.000202  0.000407  0.000025
  7   -115.73065022  -0.0000007302  0.000055  0.000111  0.000183  0.000011
  8   -115.73065027  -0.0000000565  0.000022  0.000018  0.000033  0.000001
  9   -115.73065028  -0.0000000081  0.000012  0.000009  0.000016  0.000001
                  ***Gradient check signals convergence***
              ***Rediagonalizing the Fockian in SOSCF/NRSCF***

               *****************************************************
               *                     SUCCESS                       *
               *           SCF CONVERGED AFTER  10 CYCLES          *
               *****************************************************

Setting up the final grid:

General Integration Accuracy     IntAcc      ...  4.670
Radial Grid Type                 RadialGrid  ... Gauss-Chebyshev
Angular Grid (max. acc.)         AngularGrid ... Lebedev-302
Angular grid pruning method      GridPruning ... 3 (G Style)
Weight generation scheme         WeightScheme... Becke
Basis function cutoff            BFCut       ...    1.0000e-11
Integration weight cutoff        WCut        ...    1.0000e-14
Grids for H and He will be reduced by one unit

# of grid points (after initial pruning)     ...  26000 (   0.0 sec)
# of grid points (after weights+screening)   ...  25198 (   1.1 sec)
nearest neighbour list constructed           ...    0.0 sec
Grid point re-assignment to atoms done       ...    0.0 sec
Grid point division into batches done        ...    0.1 sec
Reduced shell lists constructed in    0.1 sec

Total number of grid points                  ...    25198
Total number of batches                      ...      397
Average number of points per batch           ...       63
Average number of grid points per atom       ...     4200
Average number of shells per batch           ...    30.96 (81.48%)
Average number of basis functions per batch  ...    70.92 (82.47%)
Average number of large shells per batch     ...    29.53 (95.38%)
Average number of large basis fcns per batch ...    68.20 (96.16%)
Maximum spatial batch extension              ...  14.68, 13.99, 15.46 au
Average spatial batch extension              ...   0.32,  0.32,  0.32 au

Final grid set up in    1.9 sec
Final integration                            ... done (   0.3 sec)
Change in XC energy                          ...     0.000061039
Integrated number of electrons               ...    18.000027351
Previous integrated no of electrons          ...    17.997965615

----------------
TOTAL SCF ENERGY
----------------

Total Energy       :         -115.73058924 Eh           -3149.18944 eV

Components:
Nuclear Repulsion  :           40.08549993 Eh            1090.78191 eV
Electronic Energy  :         -155.81608918 Eh           -4239.97134 eV
One Electron Energy:         -236.59420107 Eh           -6438.05552 eV
Two Electron Energy:           80.77811189 Eh            2198.08417 eV

Virial components:
Potential Energy   :         -230.99112779 Eh           -6285.58814 eV
Kinetic Energy     :          115.26053855 Eh            3136.39871 eV
Virial Ratio       :            2.00407816


DFT components:
N(Alpha)           :        9.000013675745 electrons
N(Beta)            :        9.000013675745 electrons
N(Total)           :       18.000027351490 electrons
E(XC)              :      -10.657363314939 Eh       
DFET-embed. en.    :        0.000000000000 Eh       

---------------
SCF CONVERGENCE
---------------

  Last Energy change         ...   -1.8377e-09  Tolerance :   1.0000e-08
  Last MAX-Density change    ...    3.6470e-06  Tolerance :   1.0000e-07
  Last RMS-Density change    ...    1.9705e-07  Tolerance :   5.0000e-09
  Last Orbital Gradient      ...    2.0135e-06  Tolerance :   1.0000e-05
  Last Orbital Rotation      ...    2.5868e-06  Tolerance :   1.0000e-05

             **** THE GBW FILE WAS UPDATED (106_charges.gbw) ****
             **** DENSITY FILE WAS UPDATED (106_charges.scfp.tmp) ****
             **** ENERGY FILE WAS UPDATED (106_charges.en.tmp) ****
----------------
ORBITAL ENERGIES
----------------

  NO   OCC          E(Eh)            E(eV) 
   0   2.0000     -19.229710      -523.2670 
   1   2.0000     -10.309757      -280.5427 
   2   2.0000      -1.126402       -30.6510 
   3   2.0000      -0.803867       -21.8743 
   4   2.0000      -0.612405       -16.6644 
   5   2.0000      -0.540552       -14.7092 
   6   2.0000      -0.520065       -14.1517 
   7   2.0000      -0.438493       -11.9320 
   8   2.0000      -0.371732       -10.1154 
   9   0.0000       0.115936         3.1548 
  10   0.0000       0.152134         4.1398 
  11   0.0000       0.200065         5.4440 
  12   0.0000       0.209903         5.7117 
  13   0.0000       0.231876         6.3097 
  14   0.0000       0.305522         8.3137 
  15   0.0000       0.314000         8.5444 
  16   0.0000       0.389729        10.6051 
  17   0.0000       0.453743        12.3470 
  18   0.0000       0.483420        13.1545 
  19   0.0000       0.536012        14.5856 
  20   0.0000       0.558983        15.2107 
  21   0.0000       0.570859        15.5339 
  22   0.0000       0.599669        16.3178 
  23   0.0000       0.613847        16.7036 
  24   0.0000       0.675778        18.3889 
  25   0.0000       0.779836        21.2204 
  26   0.0000       0.807365        21.9695 
  27   0.0000       0.861760        23.4497 
  28   0.0000       0.991509        26.9803 
  29   0.0000       1.025681        27.9102 
  30   0.0000       1.095318        29.8051 
  31   0.0000       1.379972        37.5509 
  32   0.0000       1.486217        40.4420 
  33   0.0000       1.545896        42.0660 
  34   0.0000       1.572112        42.7793 
  35   0.0000       1.617901        44.0253 
  36   0.0000       1.661697        45.2171 
  37   0.0000       1.685471        45.8640 
  38   0.0000       1.711619        46.5755 
  39   0.0000       1.792603        48.7792 
  40   0.0000       1.956841        53.2483 
  41   0.0000       2.002201        54.4827 
  42   0.0000       2.055131        55.9230 
  43   0.0000       2.067058        56.2475 
  44   0.0000       2.133408        58.0530 
  45   0.0000       2.275185        61.9109 
  46   0.0000       2.309259        62.8381 
  47   0.0000       2.351772        63.9950 
  48   0.0000       2.417239        65.7764 
  49   0.0000       2.473254        67.3007 
  50   0.0000       2.488943        67.7276 
  51   0.0000       2.617764        71.2330 
  52   0.0000       2.634478        71.6878 
  53   0.0000       2.739163        74.5364 
  54   0.0000       2.800209        76.1976 
  55   0.0000       2.871019        78.1244 
  56   0.0000       2.919786        79.4514 
  57   0.0000       2.956798        80.4586 
  58   0.0000       3.099077        84.3302 
  59   0.0000       3.127278        85.0976 
  60   0.0000       3.270125        88.9846 
  61   0.0000       3.361098        91.4601 
  62   0.0000       3.454539        94.0028 
  63   0.0000       3.522751        95.8589 
  64   0.0000       3.603967        98.0689 
  65   0.0000       3.654097        99.4330 
  66   0.0000       3.685562       100.2892 
  67   0.0000       3.999727       108.8381 
  68   0.0000       4.232893       115.1829 
  69   0.0000       4.378750       119.1518 
  70   0.0000       4.415210       120.1440 
  71   0.0000       4.595597       125.0526 
  72   0.0000       5.338089       145.2568 
  73   0.0000       5.402572       147.0114 
  74   0.0000       5.556045       151.1877 
  75   0.0000       5.781646       157.3266 
  76   0.0000       5.806552       158.0043 
  77   0.0000       5.934376       161.4826 
  78   0.0000       6.352218       172.8526 
  79   0.0000       6.521067       177.4473 
  80   0.0000       6.734566       183.2569 
  81   0.0000       6.791004       184.7926 
  82   0.0000       7.039697       191.5599 
  83   0.0000       7.192678       195.7227 
  84   0.0000      22.413677       609.9072 
  85   0.0000      43.638277      1187.4579 

                    ********************************
                    * MULLIKEN POPULATION ANALYSIS *
                    ********************************

-----------------------
MULLIKEN ATOMIC CHARGES
-----------------------
   0 C :   -0.164089
   1 O :   -0.484452
   2 H :    0.315377
   3 H :    0.104863
   4 H :    0.127716
   5 H :    0.100586
Sum of atomic charges:   -0.0000000

--------------------------------
MULLIKEN REDUCED ORBITAL CHARGES
--------------------------------
  0 C s       :     3.211010  s :     3.211010
      pz      :     0.922548  p :     2.852504
      px      :     1.027196
      py      :     0.902760
      dz2     :     0.021233  d :     0.093590
      dxz     :     0.024875
      dyz     :     0.012345
      dx2y2   :     0.019329
      dxy     :     0.015808
      f0      :     0.000793  f :     0.006985
      f+1     :     0.000506
      f-1     :     0.001060
      f+2     :     0.001924
      f-2     :     0.001648
      f+3     :     0.000341
      f-3     :     0.000714
  1 O s       :     3.794927  s :     3.794927
      pz      :     1.312067  p :     4.659441
      px      :     1.692554
      py      :     1.654820
      dz2     :     0.003816  d :     0.028480
      dxz     :     0.009670
      dyz     :     0.005612
      dx2y2   :     0.004682
      dxy     :     0.004698
      f0      :     0.000134  f :     0.001605
      f+1     :     0.000488
      f-1     :     0.000286
      f+2     :     0.000324
      f-2     :     0.000197
      f+3     :     0.000105
      f-3     :     0.000070
  2 H s       :     0.636751  s :     0.636751
      pz      :     0.017737  p :     0.047872
      px      :     0.016168
      py      :     0.013967
  3 H s       :     0.874179  s :     0.874179
      pz      :     0.004367  p :     0.020958
      px      :     0.005939
      py      :     0.010652
  4 H s       :     0.851862  s :     0.851862
      pz      :     0.008329  p :     0.020423
      px      :     0.007574
      py      :     0.004520
  5 H s       :     0.878936  s :     0.878936
      pz      :     0.005251  p :     0.020477
      px      :     0.010271
      py      :     0.004955


                     *******************************
                     * LOEWDIN POPULATION ANALYSIS *
                     *******************************

----------------------
LOEWDIN ATOMIC CHARGES
----------------------
   0 C :   -0.360977
   1 O :   -0.096656
   2 H :    0.166673
   3 H :    0.088746
   4 H :    0.105474
   5 H :    0.096740

-------------------------------
LOEWDIN REDUCED ORBITAL CHARGES
-------------------------------
  0 C s       :     2.851905  s :     2.851905
      pz      :     0.989092  p :     3.065266
      px      :     1.074230
      py      :     1.001944
      dz2     :     0.061580  d :     0.391990
      dxz     :     0.105584
      dyz     :     0.077891
      dx2y2   :     0.085232
      dxy     :     0.061703
      f0      :     0.009568  f :     0.051816
      f+1     :     0.004022
      f-1     :     0.008543
      f+2     :     0.008838
      f-2     :     0.008887
      f+3     :     0.005058
      f-3     :     0.006901
  1 O s       :     3.380805  s :     3.380805
      pz      :     1.337203  p :     4.646588
      px      :     1.668477
      py      :     1.640908
      dz2     :     0.014472  d :     0.065131
      dxz     :     0.020545
      dyz     :     0.013346
      dx2y2   :     0.008864
      dxy     :     0.007904
      f0      :     0.000281  f :     0.004132
      f+1     :     0.001108
      f-1     :     0.000742
      f+2     :     0.000814
      f-2     :     0.000653
      f+3     :     0.000297
      f-3     :     0.000237
  2 H s       :     0.673966  s :     0.673966
      pz      :     0.062523  p :     0.159361
      px      :     0.057694
      py      :     0.039144
  3 H s       :     0.844199  s :     0.844199
      pz      :     0.015303  p :     0.067055
      px      :     0.018852
      py      :     0.032900
  4 H s       :     0.831540  s :     0.831540
      pz      :     0.024765  p :     0.062986
      px      :     0.024258
      py      :     0.013963
  5 H s       :     0.841885  s :     0.841885
      pz      :     0.016465  p :     0.061375
      px      :     0.030046
      py      :     0.014864


                      *****************************
                      * MAYER POPULATION ANALYSIS *
                      *****************************

  NA   - Mulliken gross atomic population
  ZA   - Total nuclear charge
  QA   - Mulliken gross atomic charge
  VA   - Mayer's total valence
  BVA  - Mayer's bonded valence
  FA   - Mayer's free valence

  ATOM       NA         ZA         QA         VA         BVA        FA
  0 C      6.1641     6.0000    -0.1641     3.9383     3.9383    -0.0000
  1 O      8.4845     8.0000    -0.4845     1.8833     1.8833     0.0000
  2 H      0.6846     1.0000     0.3154     0.9136     0.9136     0.0000
  3 H      0.8951     1.0000     0.1049     0.9532     0.9532    -0.0000
  4 H      0.8723     1.0000     0.1277     0.9585     0.9585     0.0000
  5 H      0.8994     1.0000     0.1006     0.9583     0.9583    -0.0000

  Mayer bond orders larger than 0.1
B(  0-C ,  1-O ) :   0.9954 B(  0-C ,  3-H ) :   0.9756 B(  0-C ,  4-H ) :   0.9718 
B(  0-C ,  5-H ) :   0.9820 B(  1-O ,  2-H ) :   0.8983 


------------------
HIRSHFELD ANALYSIS
------------------

Total integrated alpha density =      8.998982808
Total integrated beta density  =      8.998982808

  ATOM     CHARGE      SPIN    
   0 C    0.005842    0.000000
   1 O   -0.257447    0.000000
   2 H    0.161468    0.000000
   3 H    0.025484    0.000000
   4 H    0.044909    0.000000
   5 H    0.021777    0.000000

  TOTAL   0.002034    0.000000

-------
TIMINGS
-------

Total SCF time: 0 days 0 hours 0 min 30 sec 

Total time                  ....      30.088 sec
Sum of individual times     ....      24.292 sec  ( 80.7%)

Fock matrix formation       ....      16.550 sec  ( 55.0%)
  XC integration            ....       4.388 sec  ( 26.5% of F)
    Basis function eval.    ....       0.037 sec  (  0.8% of XC)
    Density eval.           ....       0.057 sec  (  1.3% of XC)
    XC-Functional eval.     ....       0.096 sec  (  2.2% of XC)
    XC-Potential eval.      ....       0.046 sec  (  1.1% of XC)
Diagonalization             ....       0.866 sec  (  2.9%)
Density matrix formation    ....       0.888 sec  (  3.0%)
Population analysis         ....       0.066 sec  (  0.2%)
Initial guess               ....       0.624 sec  (  2.1%)
Orbital Transformation      ....       0.000 sec  (  0.0%)
Orbital Orthonormalization  ....       0.000 sec  (  0.0%)
DIIS solution               ....       0.276 sec  (  0.9%)
SOSCF solution              ....       0.686 sec  (  2.3%)
Grid generation             ....       4.334 sec  ( 14.4%)


-------------------------------------------------------------------------------
                          DFT DISPERSION CORRECTION                            
                                                                               
                              DFTD3 V3.1  Rev 1                                
                              USING zero damping                               
-------------------------------------------------------------------------------
The omegaB97X-D3 functional is recognized. Fit by Chai et al.
Active option DFTDOPT                   ...         3   

molecular C6(AA) [au] = 208.715445 


            DFT-D V3
 parameters
 s6 scaling factor         :     1.0000 
 rs6 scaling factor        :     1.2810 
 s8 scaling factor         :     1.0000 
 rs8 scaling factor        :     1.0940 
 Damping factor alpha6     :    14.0000 
 Damping factor alpha8     :    16.0000 
 ad hoc parameters k1-k3   :    16.0000     1.3333    -4.0000 

 Edisp/kcal,au: -0.159609602397  -0.000254354065 
 E6   /kcal   :  -0.032830051 
 E8   /kcal   :  -0.126779551 
 % E8         :  79.431030113 

-------------------------   ----------------
Dispersion correction           -0.000254354
-------------------------   ----------------


-------------------------   --------------------
FINAL SINGLE POINT ENERGY      -115.730843597173
-------------------------   --------------------


                            ***************************************
                            *     ORCA property calculations      *
                            ***************************************

                                    ---------------------
                                    Active property flags
                                    ---------------------
   (+) Dipole Moment


------------------------------------------------------------------------------
                       ORCA ELECTRIC PROPERTIES CALCULATION
------------------------------------------------------------------------------

Dipole Moment Calculation                       ... on
Quadrupole Moment Calculation                   ... off
Polarizability Calculation                      ... off
GBWName                                         ... 106_charges.gbw
Electron density file                           ... 106_charges.scfp.tmp
The origin for moment calculation is the CENTER OF MASS  = (16.343313, -4.176702 -20.430321)

-------------
DIPOLE MOMENT
-------------
                                X             Y             Z
Electronic contribution:      0.81124       1.24396      -1.13896
Nuclear contribution   :     -1.34595      -1.72411       1.01896
                        -----------------------------------------
Total Dipole Moment    :     -0.53471      -0.48015      -0.11999
                        -----------------------------------------
Magnitude (a.u.)       :      0.72860
Magnitude (Debye)      :      1.85195



--------------------
Rotational spectrum 
--------------------
 
Rotational constants in cm-1:     4.539803     0.801924     0.769968 
Rotational constants in MHz : 136099.856140 24041.066035 23083.064260 

 Dipole components along the rotational axes: 
x,y,z [a.u.] :     0.379079    -0.609658     0.124377 
x,y,z [Debye]:     0.963543    -1.549627     0.316140 

 
------------------------------------------------------------------------------
                      ORCA CHELPG CHARGES GENERATION
------------------------------------------------------------------------------

GBW file                           ... 106_charges.gbw

Reading the GBW file               ... done

Grid spacing                       ...     0.300000
Point Cut-Off                      ...     2.800000
Van-der-Waals Radii                ...        COSMO
Total charge                       ...            0


Number of points X direction       ...           24
Number of points Y direction       ...           24
Number of points Z direction       ...           27
Maximum number of possible points  ...        15552
Final number of points             ...         5904


CHELPG Charges            
--------------------------------
  0   C   :       0.131977
  1   O   :      -0.627156
  2   H   :       0.407236
  3   H   :       0.006271
  4   H   :       0.066717
  5   H   :       0.014955
--------------------------------
Total charge:    -0.000000
--------------------------------

CHELPG charges calculated...

Timings for individual parts in CHELPG calculation:
Grid generation                 ...        0.001 sec (=   0.000 min)
Potential calculation           ...        0.767 sec (=   0.013 min)
Fit to the potential            ...        0.001 sec (=   0.000 min)
------------------------------------------------------------------------------


Timings for individual modules:

Sum of individual times         ...       39.403 sec (=   0.657 min)
GTO integral calculation        ...        4.205 sec (=   0.070 min)  10.7 %
SCF iterations                  ...       34.317 sec (=   0.572 min)  87.1 %
CHELPG charge generation        ...        0.881 sec (=   0.015 min)   2.2 %
                             ****ORCA TERMINATED NORMALLY****
TOTAL RUN TIME: 0 days 0 hours 0 minutes 42 seconds 595 msec
