LAMMPS data file via vdw_self_gen.py, on 2021-08-05 13:24:55.034982

10500 atoms
5 atom types
10000 bonds
4 bond types
18500 angles
7 angle types
21000 dihedrals
5 dihedral types

-50.7549926505978490  50.7549926505978561 xlo xhi
-50.7549926505978490  50.7549926505978561 ylo yhi
-50.7549926505978490  50.7549926505978561 zlo zhi

Masses

1  1.007940
2  1.007940
3  12.011000
4  12.011000
5  15.999400

Atoms

1         0    4   -0.1508350000000000  -40.3284059580961767  41.2303828827374872  37.9069884934885053 0 0 0
2         0    3    0.4061930000000000  -40.2632147091124466  39.9101980111267451  38.6697629727587966 0 0 0
3         0    4   -0.1508350000000000  -40.4462676971254993  38.7384001722041731  37.7112335574689581 0 0 0
4         0    5   -0.4544360000000000  -38.9843524951697944  39.8747686698087591  39.3063168499156959 0 0 0
5         0    3    0.4061930000000000  -38.7931519716688200  38.8769046549489090  40.3117989531680294 0 0 0
6         0    4   -0.1508350000000000  -37.3275187770902832  38.9652589806410177  40.7300725591737205 0 0 0
7         0    4   -0.1508350000000000  -39.6935105616944881  39.1077508699461518  41.5219191826859202 0 0 0
8         0    1    0.0285690000000000  -41.2975809708876227  41.3598081951387755  37.4164734120786449 0 0 0
9         0    1    0.0285690000000000  -39.5395449403028607  41.2881310608437602  37.1505804108826254 0 0 0
10        0    1    0.0285690000000000  -40.1702180645373801  42.0714603822520559  38.5918564380163218 0 0 0
11        0    2   -0.0487190000000000  -41.0630397300077732  39.9145950171817248  39.4141226562368416 0 0 0
12        0    1    0.0285690000000000  -39.6088588012624427  38.6699505626734563  37.0085262656436100 0 0 0
13        0    1    0.0285690000000000  -41.3762073845897120  38.8371754864190777  37.1419904724159124 0 0 0
14        0    1    0.0285690000000000  -40.4871069939261616  37.7883457165236933  38.2521861102667984 0 0 0
15        0    2   -0.0487190000000000  -38.9693064578771740  37.8800080402385930  39.8939733711750364 0 0 0
16        0    1    0.0285690000000000  -37.0826305044320179  39.9719125522503802  41.0887195767001074 0 0 0
17        0    1    0.0285690000000000  -36.6732597175345774  38.7684521108620785  39.8747138998400530 0 0 0
18        0    1    0.0285690000000000  -37.0908323692807755  38.2448527603000059  41.5201914086212014 0 0 0
19        0    1    0.0285690000000000  -39.6882543661536431  40.1615255648286364  41.8206932600985439 0 0 0
20        0    1    0.0285690000000000  -39.3845160603129969  38.4944436481400203  42.3744212431505574 0 0 0
21        0    1    0.0285690000000000  -40.7304347620355784  38.8438879540327022  41.2916721993123375 0 0 0
22        1    4   -0.1508350000000000   37.8284895185805681 -18.6349859971490019  6.4169336596756894  0 0 0
23        1    3    0.4061930000000000   39.1185885177517747 -17.8220191546690430  6.3561686552272096  0 0 0
24        1    4   -0.1508350000000000   40.3274918145549321 -18.7515079590135656  6.3569388997538345  0 0 0
25        1    5   -0.4544360000000000   39.0510898273537777 -17.0471669788151985  5.1574223637338301  0 0 0
26        1    3    0.4061930000000000   40.0042961014968910 -15.9909770270857816  5.0190566270067727  0 0 0
27        1    4   -0.1508350000000000   39.8074421887195768 -15.4167978140964159  3.6181973457814340  0 0 0
28        1    4   -0.1508350000000000   39.7978310129998007 -14.8970046926294231  6.0625714731761944  0 0 0
29        1    1    0.0285690000000000   37.7775716872190372 -19.2339969854308102  7.3308534441026811  0 0 0
30        1    1    0.0285690000000000   37.7411466606507346 -19.3011815770320574  5.5530213843763221  0 0 0
31        1    1    0.0285690000000000   36.9591069556401237 -17.9679795562669042  6.3894520589780033  0 0 0
32        1    2   -0.0487190000000000   39.1450226005857900 -17.1712693352001793  7.2334580304198877  0 0 0
33        1    1    0.0285690000000000   40.3612489317237291 -19.3543977498512589  5.4430894028211405  0 0 0
34        1    1    0.0285690000000000   40.3068701097840503 -19.4232575795663287  7.2211780260837886  0 0 0
35        1    1    0.0285690000000000   41.2619047830565719 -18.1840788587780082  6.3993370341682656  0 0 0
36        1    2   -0.0487190000000000   41.0224459494152498 -16.3890557393958112  5.0847506631851642  0 0 0
37        1    1    0.0285690000000000   38.7767718247776898 -15.0702555490860242  3.4782815784305852  0 0 0
38        1    1    0.0285690000000000   39.9857531613131911 -16.1868585971348402  2.8608084862258174  0 0 0
39        1    1    0.0285690000000000   40.4872322133350977 -14.5796047951414796  3.4277065437821062  0 0 0
40        1    1    0.0285690000000000   38.7376896601988605 -14.6381303842308554  6.1564814781413437  0 0 0
41        1    1    0.0285690000000000   40.3642121932926727 -13.9937692326844321  5.8140535144528434  0 0 0
42        1    1    0.0285690000000000   40.1360075806481120 -15.2306529909275010  7.0485555152054733  0 0 0
43        2    4   -0.1508350000000000   37.3675916018780967 -40.7874970323660904 -16.6013842595737877 0 0 0
44        2    3    0.4061930000000000   38.3034317341845423 -39.5830372856113328 -16.6508096135142019 0 0 0
45        2    4   -0.1508350000000000   38.1716963311028081 -38.7608110968736312 -15.3733171126247665 0 0 0
46        2    5   -0.4544360000000000   39.6245361025879035 -40.1047477857996526 -16.8071619105194721 0 0 0
47        2    3    0.4061930000000000   40.6462432333961630 -39.1725611181895843 -17.1683087613787890 0 0 0
48        2    4   -0.1508350000000000   41.9620232136452174 -39.9463394549564867 -17.1394975391547675 0 0 0
49        2    4   -0.1508350000000000   40.4179532979321152 -38.5876516616033953 -18.5590248245857481 0 0 0
50        2    1    0.0285690000000000   36.3218491861996142 -40.4766385936339219 -16.5210973171738829 0 0 0
51        2    1    0.0285690000000000   37.6079605396780181 -41.4391790399090922 -15.7556165138624387 0 0 0
52        2    1    0.0285690000000000   37.4817528729401914 -41.3930034535564531 -17.5079205519453218 0 0 0
53        2    2   -0.0487190000000000   38.0240706792568020 -38.9782296254624114 -17.5168210633893402 0 0 0
54        2    1    0.0285690000000000   38.5257405674250180 -39.3248793386052213 -14.5037101650347307 0 0 0
55        2    1    0.0285690000000000   37.1317942498505573 -38.4648642764665354 -15.2012670739785065 0 0 0
56        2    1    0.0285690000000000   38.7723488849840763 -37.8480207195503269 -15.4274578355779131 0 0 0
57        2    2   -0.0487190000000000   40.7059873503915313 -38.3699629618743359 -16.4255582512047447 0 0 0
58        2    1    0.0285690000000000   41.9245254033844077 -40.8079700865583561 -17.8163549328582178 0 0 0
59        2    1    0.0285690000000000   42.1507873342687915 -40.3424124055743434 -16.1365415971243777 0 0 0
60        2    1    0.0285690000000000   42.8076055592678202 -39.3123003200324561 -17.4263393881868645 0 0 0
61        2    1    0.0285690000000000   40.1449053007784968 -39.3704015938782561 -19.2749033193556976 0 0 0
62        2    1    0.0285690000000000   41.3073880478250359 -38.0649057989920294 -18.9251200336579579 0 0 0
63        2    1    0.0285690000000000   39.5980218021210106 -37.8627996436042977 -18.5467364894833899 0 0 0
64        3    4   -0.1508350000000000   41.8216204863661147  6.4445568161918212  -28.5383710584980932 0 0 0
65        3    3    0.4061930000000000   40.4436486133653901  6.2976216932695381  -27.8991790002943745 0 0 0
66        3    4   -0.1508350000000000   39.8444362332841067  7.6712988099757622  -27.6174825070698873 0 0 0
67        3    5   -0.4544360000000000   39.6467984357262111  5.5553913439214533  -28.8244187216115293 0 0 0
68        3    3    0.4061930000000000   38.4068028555838978  5.0384736723897463  -28.3360627301608581 0 0 0
69        3    4   -0.1508350000000000   37.7002363963502489  4.4139349197267643  -29.5367105313532790 0 0 0
70        3    4   -0.1508350000000000   38.6161288321327163  3.9859851319372708  -27.2512691814806978 0 0 0
71        3    1    0.0285690000000000   42.5141511754084291  6.9717783495328005  -27.8757287254735822 0 0 0
72        3    1    0.0285690000000000   41.7603095741131796  6.9858894411250034  -29.4875758341506717 0 0 0
73        3    1    0.0285690000000000   42.2408497958418110  5.4575119777732120  -28.7652369755674329 0 0 0
74        3    2   -0.0487190000000000   40.5657722855683147  5.7429172843721448  -26.9657982829354523 0 0 0
75        3    1    0.0285690000000000   39.6387589757946301  8.2097199662843110  -28.5488986708178523 0 0 0
76        3    1    0.0285690000000000   40.5187871968679474  8.2762776403111786  -27.0028009084681777 0 0 0
77        3    1    0.0285690000000000   38.8941399980151772  7.5854191755928611  -27.0822603710067860 0 0 0
78        3    2   -0.0487190000000000   37.7803017087189161  5.8528800944788397  -27.9570508925661656 0 0 0
79        3    1    0.0285690000000000   38.3232331660915477  3.6386913000765264  -29.9980365739560391 0 0 0
80        3    1    0.0285690000000000   37.5161520607866947  5.1692439401626533  -30.3074553257880481 0 0 0
81        3    1    0.0285690000000000   36.7410704322687849  3.9687855415271378  -29.2518666115723818 0 0 0
82        3    1    0.0285690000000000   39.4036229664663722  3.2796629492113913  -27.5353407342265157 0 0 0
83        3    1    0.0285690000000000   37.6951183070912350  3.4298990067569299  -27.0490540795601540 0 0 0
84        3    1    0.0285690000000000   38.9262737972564636  4.4523771301110369  -26.3109832070836198 0 0 0
85        4    4   -0.1508350000000000  -3.7331738692782248  -40.5202538544315942 -38.2343633900276387 0 0 0
86        4    3    0.4061930000000000  -4.6940981032722338  -40.2214708626463278 -39.3816716488416745 0 0 0
87        4    4   -0.1508350000000000  -5.2279696683373196  -41.5214003142215802 -39.9737542314618608 0 0 0
88        4    5   -0.4544360000000000  -5.7439457434309036  -39.4235025488950157 -38.8312071706941921 0 0 0
89        4    3    0.4061930000000000  -6.6139279471879453  -38.7739010617079032 -39.7609562579700793 0 0 0
90        4    4   -0.1508350000000000  -7.7084755447991977  -38.1081542031291107 -38.9305427258934955 0 0 0
91        4    4   -0.1508350000000000  -5.8799082640659579  -37.7240987886269181 -40.5900864212879284 0 0 0
92        4    1    0.0285690000000000  -2.8709910726682488  -41.0996648880198236 -38.5772625609015591 0 0 0
93        4    1    0.0285690000000000  -4.2344422399032364  -41.0735007291742207 -37.4340898985895834 0 0 0
94        4    1    0.0285690000000000  -3.3701367212271629  -39.5856006864313272 -37.7915244170566282 0 0 0
95        4    2   -0.0487190000000000  -4.1435571467394228  -39.6613856340545965 -40.1412899266584162 0 0 0
96        4    1    0.0285690000000000  -5.8517424263304312  -42.0568462644558281 -39.2499160405217751 0 0 0
97        4    1    0.0285690000000000  -4.4088470703846570  -42.1773868895467743 -40.2856866879591351 0 0 0
98        4    1    0.0285690000000000  -5.8519679930949211  -41.3286351585612337 -40.8514607124467872 0 0 0
99        4    2   -0.0487190000000000  -7.0854944892211602  -39.5126384378217068 -40.4176933179623745 0 0 0
100       4    1    0.0285690000000000  -7.2781065676244703  -37.4098363367918125 -38.2031610767300620 0 0 0
101       4    1    0.0285690000000000  -8.2625166447611420  -38.8579603507903855 -38.3567348333176596 0 0 0
102       4    1    0.0285690000000000  -8.4170375055905939  -37.5626621612013381 -39.5627387035087423 0 0 0
103       4    1    0.0285690000000000  -5.2317356291225927  -37.1069596929098253 -39.9586228385311344 0 0 0
104       4    1    0.0285690000000000  -6.5799304232926197  -37.0739185218171627 -41.1245185596767442 0 0 0
105       4    1    0.0285690000000000  -5.2403111143958121  -38.1984359078637254 -41.3409318730607609 0 0 0
106       5    4   -0.1508350000000000   18.3266649278148144 -29.3269408091218651  3.9055591122372926  0 0 0
107       5    3    0.4061930000000000   17.6565600296216552 -28.1981341024682521  4.6838378186345482  0 0 0
108       5    4   -0.1508350000000000   16.9689521445005731 -27.2326632882987845  3.7244324220444374  0 0 0
109       5    5   -0.4544360000000000   16.7203848656528038 -28.8179162686306221  5.5678009218662323  0 0 0
110       5    3    0.4061930000000000   16.1749632684391855 -27.9992036973345577  6.6048686627562612  0 0 0
111       5    4   -0.1508350000000000   15.1209540562606275 -28.8481172521589819  7.3114451373703648  0 0 0
112       5    4   -0.1508350000000000   17.2415903360835792 -27.5585069015906434  7.6030768415893935  0 0 0
113       5    1    0.0285690000000000   19.0930910992341296 -28.9424273252863102  3.2262974052994031  0 0 0
114       5    1    0.0285690000000000   17.5932932463011795 -29.8950159661474153  3.3248299691557253  0 0 0
115       5    1    0.0285690000000000   18.7981278447598079 -30.0352462964916569  4.5965764244716274  0 0 0
116       5    2   -0.0487190000000000   18.4319962511497799 -27.6762795796274759  5.2496798985762938  0 0 0
117       5    1    0.0285690000000000   16.1341623481365630 -27.7185238019481943  3.2079035234696618  0 0 0
118       5    1    0.0285690000000000   17.6726285217698091 -26.8531473913572221  2.9765090871083602  0 0 0
119       5    1    0.0285690000000000   16.5558276307687215 -26.3720652826230797  4.2588481685197932  0 0 0
120       5    2   -0.0487190000000000   15.6760199915080012 -27.1247739185427257  6.1737774325424750  0 0 0
121       5    1    0.0285690000000000   15.5598654040656381 -29.7752242266332736  7.6984578621600441  0 0 0
122       5    1    0.0285690000000000   14.3335378251633170 -29.1419524656984805  6.6099732253249091  0 0 0
123       5    1    0.0285690000000000   14.6591736672275221 -28.3055229744361831  8.1430963240387193  0 0 0
124       5    1    0.0285690000000000   17.8893603328044613 -28.3965427807049977  7.8820474156025702  0 0 0
125       5    1    0.0285690000000000   16.7935863600259943 -27.1378925193800100  8.5090343970047506  0 0 0
126       5    1    0.0285690000000000   17.8842084028968102 -26.7854840751608592  7.1702641349555334  0 0 0
127       6    4   -0.1508350000000000  -30.5779684306250132 -5.1003710568551490  -38.9216124573343549 0 0 0
128       6    3    0.4061930000000000  -29.3465836069430281 -5.4112871929580146  -39.7677717051811044 0 0 0
129       6    4   -0.1508350000000000  -29.2135559936416058 -4.3956437349779973  -40.8974483102596054 0 0 0
130       6    5   -0.4544360000000000  -28.2260557695008707 -5.3635248220816898  -38.8822883566953763 0 0 0
131       6    3    0.4061930000000000  -26.9953784028677823 -5.9012480556908127  -39.3717487080967956 0 0 0
132       6    4   -0.1508350000000000  -25.9452006163039819 -5.6103258729262206  -38.3024822036258854 0 0 0
133       6    4   -0.1508350000000000  -27.0871712415697310 -7.4049599095537024  -39.6141353224451578 0 0 0
134       6    1    0.0285690000000000  -31.4943127655265620 -5.1539392160874549  -39.5166752054629029 0 0 0
135       6    1    0.0285690000000000  -30.5066196349276311 -4.1049491613021249  -38.4723526838111169 0 0 0
136       6    1    0.0285690000000000  -30.6586105225625083 -5.8144239451417494  -38.0939022441331900 0 0 0
137       6    2   -0.0487190000000000  -29.4688758465366512 -6.4161323855297248  -40.1790398454505464 0 0 0
138       6    1    0.0285690000000000  -29.0081515546315032 -3.3941202199672298  -40.5043882496894341 0 0 0
139       6    1    0.0285690000000000  -30.1261409474312245 -4.3565230699707573  -41.5009715911578709 0 0 0
140       6    1    0.0285690000000000  -28.3850568513893151 -4.6526983545366090  -41.5640914495408680 0 0 0
141       6    2   -0.0487190000000000  -26.6971595149847900 -5.3873428936205343  -40.2917370013415237 0 0 0
142       6    1    0.0285690000000000  -26.2367689898334326 -6.0443859549306715  -37.3388800599650779 0 0 0
143       6    1    0.0285690000000000  -25.8486928064047845 -4.5313052071854276  -38.1449165264218664 0 0 0
144       6    1    0.0285690000000000  -24.9644548938098545 -6.0084482843812053  -38.5834265887036310 0 0 0
145       6    1    0.0285690000000000  -27.5841077991629717 -7.9084818654311615  -38.7779210065089259 0 0 0
146       6    1    0.0285690000000000  -26.0971091962771560 -7.8488701604358937  -39.7594073050598382 0 0 0
147       6    1    0.0285690000000000  -27.6736055387111826 -7.6193348211641041  -40.5130164722131525 0 0 0
148       7    4   -0.1508350000000000  -41.2110780194245194 -18.4455807202464399  4.6785005842279981  0 0 0
149       7    3    0.4061930000000000  -40.6069999964151336 -17.2024611930244404  5.3255759148939452  0 0 0
150       7    4   -0.1508350000000000  -41.4098297705751577 -16.8086017127443661  6.5607828915645143  0 0 0
151       7    5   -0.4544360000000000  -39.2580897500088639 -17.5361295811647864  5.6588193587844824  0 0 0
152       7    3    0.4061930000000000  -38.3953538842182738 -16.4525365152437040  6.0120860932307325  0 0 0
153       7    4   -0.1508350000000000  -37.0734685460021964 -17.0811139561940131  6.4460786170577116  0 0 0
154       7    4   -0.1508350000000000  -38.1599296027263435 -15.5059843740598833  4.8386548054237615  0 0 0
155       7    1    0.0285690000000000  -42.2401166384413855 -18.2657868019465468  4.3538317845039725  0 0 0
156       7    1    0.0285690000000000  -41.2023070497005719 -19.2938606035320070  5.3699729658913000  0 0 0
157       7    1    0.0285690000000000  -40.6183651241026737 -18.7442135997672459  3.8061539224654233  0 0 0
158       7    2   -0.0487190000000000  -40.6326409955929435 -16.3962487999103246  4.5885719444498489  0 0 0
159       7    1    0.0285690000000000  -41.3275229218641869 -17.5705234253457583  7.3433667097091488  0 0 0
160       7    1    0.0285690000000000  -42.4675395348940725 -16.6695457527997810  6.3148244207440793  0 0 0
161       7    1    0.0285690000000000  -41.0420863805479712 -15.8711729814491456  6.9884429833822193  0 0 0
162       7    2   -0.0487190000000000  -38.8079722477315840 -15.9027289677948165  6.8646523529782311  0 0 0
163       7    1    0.0285690000000000  -36.6553149878932132 -17.7045589623496866  5.6470709270819652  0 0 0
164       7    1    0.0285690000000000  -37.2270918033215068 -17.7371179738357654  7.3089140131492778  0 0 0
165       7    1    0.0285690000000000  -36.3357746345227426 -16.3186457895250676  6.7176359074820695  0 0 0
166       7    1    0.0285690000000000  -37.9523945723221274 -16.0636573674887302  3.9190544965638687  0 0 0
167       7    1    0.0285690000000000  -37.3281109732307428 -14.8221575630289255  5.0357379691879416  0 0 0
168       7    1    0.0285690000000000  -39.0462258595619929 -14.8923219127334630  4.6495875219559020  0 0 0
169       8    4   -0.1508350000000000  -27.0636291058658962  26.1617929022219080 -6.5548963096784689  0 0 0
170       8    3    0.4061930000000000  -27.6905670677787725  27.1062643095640503 -5.5331891828433362  0 0 0
171       8    4   -0.1508350000000000  -26.7611656914531011  27.2801382115935667 -4.3367870098358843  0 0 0
172       8    5   -0.4544360000000000  -27.9128653819711126  28.3442416326874422 -6.2113781284473699  0 0 0
173       8    3    0.4061930000000000  -28.7529052003477155  29.2962503972122299 -5.5546461373659248  0 0 0
174       8    4   -0.1508350000000000  -28.7190466231598123  30.5600493432229499 -6.4105116514585188  0 0 0
175       8    4   -0.1508350000000000  -30.1883240938492037  28.7952587192629217 -5.4246212385792001  0 0 0
176       8    1    0.0285690000000000  -26.8936636355652894  25.1689975542260314 -6.1281349033830432  0 0 0
177       8    1    0.0285690000000000  -26.1111521941185458  26.5553588355762038 -6.9232484965746357  0 0 0
178       8    1    0.0285690000000000  -27.7197373895719004  26.0578320500067306 -7.4267867457764085  0 0 0
179       8    2   -0.0487190000000000  -28.6386128427246511  26.6686761749728944 -5.2114181941381847  0 0 0
180       8    1    0.0285690000000000  -25.8376836531226886  27.7928033169599047 -4.6267731483336236  0 0 0
181       8    1    0.0285690000000000  -26.5026408180891337  26.3122150129508299 -3.8953443224104691  0 0 0
182       8    1    0.0285690000000000  -27.2309453142067497  27.8863467170120138 -3.5565823345719130  0 0 0
183       8    2   -0.0487190000000000  -28.3470523317635177  29.5416301644588550 -4.5674867281072320  0 0 0
184       8    1    0.0285690000000000  -29.0486042222501126  30.3484819773177925 -7.4345138004141820  0 0 0
185       8    1    0.0285690000000000  -27.6970673137622967  30.9457932353774225 -6.4825271909545652  0 0 0
186       8    1    0.0285690000000000  -29.3572170604291394  31.3457861675025740 -5.9926007636290342  0 0 0
187       8    1    0.0285690000000000  -30.5352635581019527  28.3481222462139826 -6.3624040850385226  0 0 0
188       8    1    0.0285690000000000  -30.8708205436324690  29.6029540489018181 -5.1414076022324267  0 0 0
189       8    1    0.0285690000000000  -30.2626168818775518  28.0225879063996572 -4.6530582109552734  0 0 0
190       9    4   -0.1508350000000000   28.6103489788754608 -37.0164887785998715 -28.4108594618480765 0 0 0
191       9    3    0.4061930000000000   27.8508665816412346 -38.3401667369324457 -28.4159635108171997 0 0 0
192       9    4   -0.1508350000000000   27.0373095114405260 -38.4757629198335422 -29.6985919762775055 0 0 0
193       9    5   -0.4544360000000000   28.8349473947835016 -39.3703624678019963 -28.3053906918089453 0 0 0
194       9    3    0.4061930000000000   28.3606441241949270 -40.6834660112325039 -27.9986660856241301 0 0 0
195       9    4   -0.1508350000000000   29.5755394959619160 -41.6053532624326508 -28.0693278796415626 0 0 0
196       9    4   -0.1508350000000000   27.7358934999226499 -40.7531227731687480 -26.6082844371232738 0 0 0
197       9    1    0.0285690000000000   27.9259610047414419 -36.1641683467958615 -28.4535108907827414 0 0 0
198       9    1    0.0285690000000000   29.3026563666124105 -36.9558242761098583 -29.2563297711567323 0 0 0
199       9    1    0.0285690000000000   29.2158995116379856 -36.9310317341186334 -27.5011977021156184 0 0 0
200       9    2   -0.0487190000000000   27.1871894065697823 -38.3478807639080159 -27.5480442535259549 0 0 0
201       9    1    0.0285690000000000   27.6916045798469028 -38.5523750725140673 -30.5736720225708432 0 0 0
202       9    1    0.0285690000000000   26.3687334708351315 -37.6192953861895845 -29.8329479089424510 0 0 0
203       9    1    0.0285690000000000   26.4206067141942746 -39.3792474795271943 -29.6814370480115848 0 0 0
204       9    2   -0.0487190000000000   27.6390323745048505 -41.0113316249097508 -28.7544386059483834 0 0 0
205       9    1    0.0285690000000000   30.3600663996336735 -41.2728842461391920 -27.3794501708263773 0 0 0
206       9    1    0.0285690000000000   30.0114180156655053 -41.5871804363079036 -29.0733726802115662 0 0 0
207       9    1    0.0285690000000000   29.3101584027279571 -42.6394972457108494 -27.8255811434512346 0 0 0
208       9    1    0.0285690000000000   28.3581900954704444 -40.2344531883195344 -25.8710846721870951 0 0 0
209       9    1    0.0285690000000000   27.5902954724871563 -41.7889922482526543 -26.2855480767665739 0 0 0
210       9    1    0.0285690000000000   26.7542195218940151 -40.2693282942933806 -26.5978819340037589 0 0 0
211       10   4   -0.1508350000000000  -4.2153692365568123   40.3920383885809358  7.4831118419806213  0 0 0
212       10   3    0.4061930000000000  -5.3340324950449078   39.6104472856364680  6.7999787932215501  0 0 0
213       10   4   -0.1508350000000000  -6.6710739493371580   39.9108923764436980  7.4688959096222804  0 0 0
214       10   5   -0.4544360000000000  -5.3289167544452702   40.0135976014525951  5.4290709585895129  0 0 0
215       10   3    0.4061930000000000  -6.0904854991477650   39.2151065342178455  4.5203853391706863  0 0 0
216       10   4   -0.1508350000000000  -6.0284420013517641   39.9251434512865444  3.1702601086158357  0 0 0
217       10   4   -0.1508350000000000  -5.5256542617248394   37.8034967338467638  4.3913505367815180  0 0 0
218       10   1    0.0285690000000000  -4.1213684074438905   40.1144828627897496  8.5370487168592213  0 0 0
219       10   1    0.0285690000000000  -4.3900951848824814   41.4703746501358239  7.4163923178702520  0 0 0
220       10   1    0.0285690000000000  -3.2585154633113946   40.1966433936681966  6.9853864921248432  0 0 0
221       10   2   -0.0487190000000000  -5.1007194077617770   38.5467205124745860  6.8886415895964603  0 0 0
222       10   1    0.0285690000000000  -6.9603719719112362   40.9565853392573729  7.3186646626838465  0 0 0
223       10   1    0.0285690000000000  -6.6274698022067859   39.7087657086197012  8.5439891908808967  0 0 0
224       10   1    0.0285690000000000  -7.4708871291159609   39.2949918467148365  7.0471538128002749  0 0 0
225       10   2   -0.0487190000000000  -7.1380102960067333   39.1758276175793370  4.8374980116914941  0 0 0
226       10   1    0.0285690000000000  -4.9900548903295796   40.0546461365362276  2.8432576244109802  0 0 0
227       10   1    0.0285690000000000  -6.4617939378117306   40.9276480070356570  3.2452068361539843  0 0 0
228       10   1    0.0285690000000000  -6.5718485437980103   39.3696821762534555  2.3985960134518729  0 0 0
229       10   1    0.0285690000000000  -4.4356914223854274   37.8242340125712246  4.2851165561996911  0 0 0
230       10   1    0.0285690000000000  -5.9568880906770776   37.2758216296127785  3.5346245114742163  0 0 0
231       10   1    0.0285690000000000  -5.7506274394776478   37.2110670283844129  5.2836863605483302  0 0 0
232       11   4   -0.1508350000000000   41.3559771050244649  4.0109599364570609   28.4803379460675643 0 0 0
233       11   3    0.4061930000000000   40.6098039381258360  5.3421738905159346   28.4879480656081832 0 0 0
234       11   4   -0.1508350000000000   41.4326050837843241  6.4113305745729523   27.7771038693603316 0 0 0
235       11   5   -0.4544360000000000   39.3643285273081247  5.1103413659594139   27.8268963878958893 0 0 0
236       11   3    0.4061930000000000   38.3666465758297264  6.1254574905060517   27.9590117529359361 0 0 0
237       11   4   -0.1508350000000000   37.2039694103581766  5.7026856730025806   27.0644248333938293 0 0 0
238       11   4   -0.1508350000000000   37.8873951255647512  6.2689496290846032   29.4005576554604033 0 0 0
239       11   1    0.0285690000000000   42.3127614717901466  4.0873817862702531   29.0051041210292730 0 0 0
240       11   1    0.0285690000000000   41.5408707378178832  3.6683903341574147   27.4574742420323190 0 0 0
241       11   1    0.0285690000000000   40.7529380440934546  3.2362185210583565   28.9677787132972391 0 0 0
242       11   2   -0.0487190000000000   40.4447774633152122  5.6266995762810703   29.5298799889368873 0 0 0
243       11   1    0.0285690000000000   41.5382714743316157  6.1828989372034036   26.7110878531310441 0 0 0
244       11   1    0.0285690000000000   42.4304786703548942  6.4984647296617339   28.2189613340950167 0 0 0
245       11   1    0.0285690000000000   40.9514735319752674  7.3913909621644542   27.8470684877599375 0 0 0
246       11   2   -0.0487190000000000   38.7499317120500137  7.0830022599479241   27.5907564077376399 0 0 0
247       11   1    0.0285690000000000   36.8315283100190953  4.7114809617599791   27.3485906471165663 0 0 0
248       11   1    0.0285690000000000   37.5306607484198196  5.6288639473392026   26.0221919325719568 0 0 0
249       11   1    0.0285690000000000   36.3753158452739456  6.4166621366494674   27.1179435463030636 0 0 0
250       11   1    0.0285690000000000   37.7017580702205848  5.2887197629723595   29.8526892488762030 0 0 0
251       11   1    0.0285690000000000   36.9731550896508594  6.8679855009814990   29.4614205687402055 0 0 0
252       11   1    0.0285690000000000   38.6435663577900073  6.7682582081826848   30.0143533212922691 0 0 0
253       12   4   -0.1508350000000000   4.7223970390742513  -4.2403853033642021   18.7805056775200470 0 0 0
254       12   3    0.4061930000000000   5.6381800205961481  -5.2186048835724979   18.0501695329592131 0 0 0
255       12   4   -0.1508350000000000   5.8282555746110560  -6.4829547021722984   18.8812459624604649 0 0 0
256       12   5   -0.4544360000000000   5.0101652551687810  -5.5011303175103636   16.7980826858980876 0 0 0
257       12   3    0.4061930000000000   5.8068022737277980  -6.1635572797469411   15.8132758659260624 0 0 0
258       12   4   -0.1508350000000000   4.8766331353787269  -6.4632139963652850   14.6403175616166372 0 0 0
259       12   4   -0.1508350000000000   6.9709947377438901  -5.2956973799278799   15.3444457938165648 0 0 0
260       12   1    0.0285690000000000   5.1485050581552070  -3.9370372326098049   19.7412699909937039 0 0 0
261       12   1    0.0285690000000000   3.7353299304537257  -4.6796791950140548   18.9551743488341415 0 0 0
262       12   1    0.0285690000000000   4.5643890191274501  -3.3429524254572573   18.1713040962810055 0 0 0
263       12   2   -0.0487190000000000   6.5997548210212305  -4.7235861556873182   17.8947954735721986 0 0 0
264       12   1    0.0285690000000000   4.8876521965466191  -7.0358403036338091   18.9777827055705366 0 0 0
265       12   1    0.0285690000000000   6.2000731128115110  -6.2434184808064641   19.8827229676085331 0 0 0
266       12   1    0.0285690000000000   6.5489983541253247  -7.1592571961987410   18.4121556047982580 0 0 0
267       12   2   -0.0487190000000000   6.1789877399862405  -7.1158992940550512   16.2056202897293886 0 0 0
268       12   1    0.0285690000000000   4.4196347732134473  -5.5429597574843887   14.2579120238690571 0 0 0
269       12   1    0.0285690000000000   4.0554223269429404  -7.1127917287510343   14.9598294937832321 0 0 0
270       12   1    0.0285690000000000   5.4095160101814619  -6.9563849771292396   13.8204934343342849 0 0 0
271       12   1    0.0285690000000000   6.6427418011270589  -4.2689726749366788   15.1499693832595277 0 0 0