
                                 *****************
                                 * O   R   C   A *
                                 *****************

           --- An Ab Initio, DFT and Semiempirical electronic structure package ---

                  #######################################################
                  #                        -***-                        #
                  #          Department of theory and spectroscopy      #
                  #               Directorship: Frank Neese             #
                  #        Max Planck Institute fuer Kohlenforschung    #
                  #                Kaiser Wilhelm Platz 1               #
                  #                 D-45470 Muelheim/Ruhr               #
                  #                      Germany                        #
                  #                                                     #
                  #                  All rights reserved                #
                  #                        -***-                        #
                  #######################################################


                         Program Version 4.1.2  - RELEASE  -


 With contributions from (in alphabetic order):
   Daniel Aravena         : Magnetic Properties
   Michael Atanasov       : Ab Initio Ligand Field Theory
   Alexander A. Auer      : GIAO ZORA
   Ute Becker             : Parallelization
   Giovanni Bistoni       : ED, Open-shell LED
   Martin Brehm           : Molecular dynamics
   Dmytro Bykov           : SCF Hessian
   Vijay G. Chilkuri      : MRCI spin determinant printing
   Dipayan Datta          : RHF DLPNO-CCSD density
   Achintya Kumar Dutta   : EOM-CC, STEOM-CC
   Dmitry Ganyushin       : Spin-Orbit,Spin-Spin,Magnetic field MRCI
   Miquel Garcia          : C-PCM Hessian
   Yang Guo               : DLPNO-NEVPT2, CIM, IAO-localization
   Andreas Hansen         : Spin unrestricted coupled pair/coupled cluster methods
   Benjamin Helmich-Paris : CASSCF linear response (MC-RPA)
   Lee Huntington         : MR-EOM, pCC
   Robert Izsak           : Overlap fitted RIJCOSX, COSX-SCS-MP3, EOM
   Christian Kollmar      : KDIIS, OOCD, Brueckner-CCSD(T), CCSD density
   Simone Kossmann        : Meta GGA functionals, TD-DFT gradient, OOMP2, MP2 Hessian
   Martin Krupicka        : AUTO-CI
   Lucas Lang             : DCDCAS
   Dagmar Lenk            : GEPOL surface, SMD
   Dimitrios Liakos       : Extrapolation schemes; parallel MDCI
   Dimitrios Manganas     : ROCIS; embedding schemes
   Dimitrios Pantazis     : SARC Basis sets
   Taras Petrenko         : DFT Hessian,TD-DFT gradient, ASA, ECA, R-Raman, ABS, FL, XAS/XES, NRVS
   Peter Pinski           : DLPNO-MP2, DLPNO-MP2 Gradient
   Christoph Reimann      : Effective Core Potentials
   Marius Retegan         : Local ZFS, SOC
   Christoph Riplinger    : Optimizer, TS searches, QM/MM, DLPNO-CCSD(T), (RO)-DLPNO pert. Triples
   Tobias Risthaus        : Range-separated hybrids, TD-DFT gradient, RPA, STAB
   Michael Roemelt        : Restricted open shell CIS
   Masaaki Saitow         : Open-shell DLPNO
   Barbara Sandhoefer     : DKH picture change effects
   Avijit Sen             : IP-ROCIS
   Kantharuban Sivalingam : CASSCF convergence, NEVPT2, FIC-MRCI
   Bernardo de Souza      : ESD, SOC TD-DFT
   Georgi Stoychev        : AutoAux, RI-MP2 NMR
   Willem Van den Heuvel  : Paramagnetic NMR
   Boris Wezisla          : Elementary symmetry handling
   Frank Wennmohs         : Technical directorship


 We gratefully acknowledge several colleagues who have allowed us to
 interface, adapt or use parts of their codes:
   Stefan Grimme, W. Hujo, H. Kruse,             : VdW corrections, initial TS optimization,
                  C. Bannwarth                     DFT functionals, gCP, sTDA/sTD-DF
   Ed Valeev                                     : LibInt (2-el integral package), F12 methods
   Garnet Chan, S. Sharma, J. Yang, R. Olivares  : DMRG
   Ulf Ekstrom                                   : XCFun DFT Library
   Mihaly Kallay                                 : mrcc  (arbitrary order and MRCC methods)
   Andreas Klamt, Michael Diedenhofen            : otool_cosmo (COSMO solvation model)
   Jiri Pittner, Ondrej Demel                    : Mk-CCSD
   Frank Weinhold                                : gennbo (NPA and NBO analysis)
   Christopher J. Cramer and Donald G. Truhlar   : smd solvation model
   Lars Goerigk                                  : TD-DFT with DH, B97 family of functionals
   V. Asgeirsson, H. Jonsson                     : NEB implementation
   FAccTs GmbH                                   : IRC, NEB, NEB-TS, Multilevel


 Your calculation uses the libint2 library for the computation of 2-el integrals
 For citations please refer to: http://libint.valeyev.net

 This ORCA versions uses:
   CBLAS   interface :  Fast vector & matrix operations
   LAPACKE interface :  Fast linear algebra routines
   SCALAPACK package :  Parallel linear algebra routines


Your calculation utilizes the atom-pairwise dispersion correction
with the zero-damping scheme (D30)
Cite in your paper:
S.Grimme, J.Antony, S.Ehrlich and H.Krieg, J.Chem.Phys., 132, (2010), 154104 
   

XCFun DFT library Copyright 2009-2010 Ulf Ekstrom and contributors.
See http://admol.org/xcfun for more information. This is free soft-
ware; see the source code for copying conditions. There is ABSOLUTELY
NO WARRANTY; not even for MERCHANTABILITY or FITNESS FOR A PARTICULAR
PURPOSE. For details see the documentation. Scientific users of this 
library should cite U. Ekstrom, L. Visscher, R. Bast, A. J. Thorvald-
sen and K. Ruud; J.Chem.Theor.Comp. 2010, DOI: 10.1021/ct100117s
XCFun Version 0.99 
----- Orbital basis set information -----
Your calculation utilizes the basis: def2-TZVP
   F. Weigend and R. Ahlrichs, Phys. Chem. Chem. Phys. 7, 3297 (2005).

================================================================================
                                        WARNINGS
                       Please study these warnings very carefully!
================================================================================


WARNING: Geometry Optimization
  ===> : Switching off AutoStart
         For restart on a previous wavefunction, please use MOREAD

INFO   : the flag for use of LIBINT has been found!

================================================================================
                                       INPUT FILE
================================================================================
NAME = bonds_angles_[6[8[1]][1][1][1]]-[8[6[1][1][1]][1]]_0.in
|  1> #Run DFT geometry optimization
|  2> ! wB97X-D3 def2-TZVP TIGHTSCF Grid5 FinalGrid6 Opt CHELPG PAL4
|  3> 
|  4> %base "0_geo_opt"
|  5> %geom MaxIter 500
|  6> end
|  7> 
|  8> %geom
|  9>   Constraints
| 10>     { B 0 1 C }
| 11>   end
| 12> end
| 13> 
| 14> 
| 15> * xyz 0 1
| 16>   C                    3.010818             -1.180916            0.598394            
| 17>   O                    4.395163             -1.128031            0.874405            
| 18>   H                    4.772686             -0.379003            0.412591            
| 19>   H                    2.805944             -1.318984            -0.469447           
| 20>   H                    2.611142             -2.040284            1.135801            
| 21>   H                    2.484267             -0.284510            0.945561            
| 22> *
| 23> 
| 24>                          ****END OF INPUT****
================================================================================

                       *****************************
                       * Geometry Optimization Run *
                       *****************************

Geometry optimization settings:
Update method            Update   .... BFGS
Choice of coordinates    CoordSys .... Z-matrix Internals
Initial Hessian          InHess   .... Almoef's Model

Convergence Tolerances:
Energy Change            TolE     ....  5.0000e-06 Eh
Max. Gradient            TolMAXG  ....  3.0000e-04 Eh/bohr
RMS Gradient             TolRMSG  ....  1.0000e-04 Eh/bohr
Max. Displacement        TolMAXD  ....  4.0000e-03 bohr
RMS Displacement         TolRMSD  ....  2.0000e-03 bohr

------------------------------------------------------------------------------
                        ORCA OPTIMIZATION COORDINATE SETUP
------------------------------------------------------------------------------

The optimization will be done in new redundant internal coordinates
Making redundant internal coordinates   ...  (new redundants) done
Evaluating the initial hessian          ...  (Almloef) done
Evaluating the coordinates              ...  done
Calculating the B-matrix                .... done
Calculating the G-matrix                .... done
Diagonalizing the G-matrix              .... done
Imposing constraints:
 Iter   0:  RMS(Cart)=    0.0000000000 RMS(Int)=    0.0000000000
CONVERGED
The first mode is                       ....    3
The number of degrees of freedom        ....   12
Storing new coordinates                 .... done

    -----------------------------------------------------------------
                    Redundant Internal Coordinates


    -----------------------------------------------------------------
         Definition                    Initial Value    Approx d2E/dq
    -----------------------------------------------------------------
      1. B(O   1,C   0)                  1.4126         0.515046 C 
      2. B(H   2,O   1)                  0.9575         0.524721   
      3. B(H   3,C   0)                  1.0960         0.352188   
      4. B(H   4,C   0)                  1.0895         0.360731   
      5. B(H   5,C   0)                  1.0960         0.352185   
      6. A(O   1,C   0,H   4)          107.0169         0.340077   
      7. A(O   1,C   0,H   3)          112.2263         0.338719   
      8. A(O   1,C   0,H   5)          112.2281         0.338718   
      9. A(H   3,C   0,H   5)          108.7729         0.288819   
     10. A(H   4,C   0,H   5)          108.2172         0.289906   
     11. A(H   3,C   0,H   4)          108.2177         0.289907   
     12. A(C   0,O   1,H   2)          108.7499         0.359117   
     13. D(H   2,O   1,C   0,H   5)    -61.4304         0.021015   
     14. D(H   2,O   1,C   0,H   3)     61.4271         0.021015   
     15. D(H   2,O   1,C   0,H   4)    179.9981         0.021015   
    -----------------------------------------------------------------

Number of atoms                         .... 6
Number of degrees of freedom            .... 15

         *************************************************************
         *                GEOMETRY OPTIMIZATION CYCLE   1            *
         *************************************************************
---------------------------------
CARTESIAN COORDINATES (ANGSTROEM)
---------------------------------
  C      3.010818   -1.180916    0.598394
  O      4.395163   -1.128031    0.874405
  H      4.772686   -0.379003    0.412591
  H      2.805944   -1.318984   -0.469447
  H      2.611142   -2.040284    1.135801
  H      2.484267   -0.284510    0.945561

----------------------------
CARTESIAN COORDINATES (A.U.)
----------------------------
  NO LB      ZA    FRAG     MASS         X           Y           Z
   0 C     6.0000    0    12.011    5.689621   -2.231608    1.130801
   1 O     8.0000    0    15.999    8.305654   -2.131670    1.652386
   2 H     1.0000    0     1.008    9.019069   -0.716212    0.779684
   3 H     1.0000    0     1.008    5.302466   -2.492519   -0.887126
   4 H     1.0000    0     1.008    4.934343   -3.855578    2.146353
   5 H     1.0000    0     1.008    4.694584   -0.537646    1.786851

--------------------------------
INTERNAL COORDINATES (ANGSTROEM)
--------------------------------
 C      0   0   0     0.000000000000     0.00000000     0.00000000
 O      1   0   0     1.412582731868     0.00000000     0.00000000
 H      2   1   0     0.957516961160   108.74994108     0.00000000
 H      1   2   3     1.096047685907   112.22633648    61.42713095
 H      1   2   3     1.089523082844   107.01692411   179.99811739
 H      1   2   3     1.096049541912   112.22813642   298.56960327

---------------------------
INTERNAL COORDINATES (A.U.)
---------------------------
 C      0   0   0     0.000000000000     0.00000000     0.00000000
 O      1   0   0     2.669394504736     0.00000000     0.00000000
 H      2   1   0     1.809444825177   108.74994108     0.00000000
 H      1   2   3     2.071229956081   112.22633648    61.42713095
 H      1   2   3     2.058900243160   107.01692411   179.99811739
 H      1   2   3     2.071233463424   112.22813642   298.56960327

---------------------
BASIS SET INFORMATION
---------------------
There are 3 groups of distinct atoms

 Group   1 Type C   : 11s6p2d1f contracted to 5s3p2d1f pattern {62111/411/11/1}
 Group   2 Type O   : 11s6p2d1f contracted to 5s3p2d1f pattern {62111/411/11/1}
 Group   3 Type H   : 5s1p contracted to 3s1p pattern {311/1}

Atom   0C    basis set group =>   1
Atom   1O    basis set group =>   2
Atom   2H    basis set group =>   3
Atom   3H    basis set group =>   3
Atom   4H    basis set group =>   3
Atom   5H    basis set group =>   3


           ************************************************************
           *        Program running with 4 parallel MPI-processes     *
           *              working on a common directory               *
           ************************************************************
------------------------------------------------------------------------------
                           ORCA GTO INTEGRAL CALCULATION
------------------------------------------------------------------------------

                         BASIS SET STATISTICS AND STARTUP INFO

 # of primitive gaussian shells          ...   64
 # of primitive gaussian functions       ...  124
 # of contracted shells                  ...   38
 # of contracted basis functions         ...   86
 Highest angular momentum                ...    3
 Maximum contraction depth               ...    6
 Integral package used                   ... LIBINT
 Integral threshhold            Thresh   ...  2.500e-11
 Primitive cut-off              TCut     ...  2.500e-12


------------------------------ INTEGRAL EVALUATION ----------------------------


 * One electron integrals 
 Pre-screening matrix                    ... done
 Shell pair data                         ... done (   0.000 sec)



           ************************************************************
           *        Program running with 4 parallel MPI-processes     *
           *              working on a common directory               *
           ************************************************************
-------------------------------------------------------------------------------
                                 ORCA SCF
-------------------------------------------------------------------------------

------------
SCF SETTINGS
------------
Hamiltonian:
 Density Functional     Method          .... DFT(GTOs)
 Exchange Functional    Exchange        .... WB97X-D3
 Correlation Functional Correlation     .... WB97X-D3
 Gradients option       PostSCFGGA      .... off
 Hybrid DFT is turned on
   Fraction HF Exchange ScalHFX         ....  0.195728
   Scaling of DF-GGA-X  ScalDFX         ....  0.000000
   Scaling of DF-GGA-C  ScalDFC         ....  1.000000
   Scaling of DF-LDA-C  ScalLDAC        ....  1.000000
   Perturbative correction              ....  0.000000
   Density functional embedding theory  .... OFF
 Long-range corrected/Screened/Range-Separated Hybrid DFT is turned on
   Amount of maximum screened exact exchange              ....  0.804272
   Range separation parameter mu (erf(mu*r12)/r12)        ....  0.250000


General Settings:
 Integral files         IntName         .... 0_geo_opt
 Hartree-Fock type      HFTyp           .... RHF
 Total Charge           Charge          ....    0
 Multiplicity           Mult            ....    1
 Number of Electrons    NEL             ....   18
 Basis Dimension        Dim             ....   86
 Nuclear Repulsion      ENuc            ....     40.4218921878 Eh

Convergence Acceleration:
 DIIS                   CNVDIIS         .... on
   Start iteration      DIISMaxIt       ....    12
   Startup error        DIISStart       ....  0.200000
   # of expansion vecs  DIISMaxEq       ....     5
   Bias factor          DIISBfac        ....   1.050
   Max. coefficient     DIISMaxC        ....  10.000
 Newton-Raphson         CNVNR           .... off
 SOSCF                  CNVSOSCF        .... on
   Start iteration      SOSCFMaxIt      ....   150
   Startup grad/error   SOSCFStart      ....  0.003300
 Level Shifting         CNVShift        .... on
   Level shift para.    LevelShift      ....    0.2500
   Turn off err/grad.   ShiftErr        ....    0.0010
 Zerner damping         CNVZerner       .... off
 Static damping         CNVDamp         .... on
   Fraction old density DampFac         ....    0.7000
   Max. Damping (<1)    DampMax         ....    0.9800
   Min. Damping (>=0)   DampMin         ....    0.0000
   Turn off err/grad.   DampErr         ....    0.1000
 Fernandez-Rico         CNVRico         .... off

SCF Procedure:
 Maximum # iterations   MaxIter         ....   125
 SCF integral mode      SCFMode         .... Direct
   Integral package                     .... LIBINT
 Reset frequency        DirectResetFreq ....    20
 Integral Threshold     Thresh          ....  2.500e-11 Eh
 Primitive CutOff       TCut            ....  2.500e-12 Eh

Convergence Tolerance:
 Convergence Check Mode ConvCheckMode   .... Total+1el-Energy
 Convergence forced     ConvForced      .... 0
 Energy Change          TolE            ....  1.000e-08 Eh
 1-El. energy change                    ....  1.000e-05 Eh
 Orbital Gradient       TolG            ....  1.000e-05
 Orbital Rotation angle TolX            ....  1.000e-05
 DIIS Error             TolErr          ....  5.000e-07


Diagonalization of the overlap matrix:
Smallest eigenvalue                        ... 1.650e-03
Time for diagonalization                   ...    0.219 sec
Threshold for overlap eigenvalues          ... 1.000e-08
Number of eigenvalues below threshold      ... 0
Time for construction of square roots      ...    0.005 sec
Total time needed                          ...    0.224 sec

-------------------
DFT GRID GENERATION
-------------------

General Integration Accuracy     IntAcc      ...  5.010
Radial Grid Type                 RadialGrid  ... Gauss-Chebyshev
Angular Grid (max. acc.)         AngularGrid ... Lebedev-434
Angular grid pruning method      GridPruning ... 3 (G Style)
Weight generation scheme         WeightScheme... Becke
Basis function cutoff            BFCut       ...    1.0000e-11
Integration weight cutoff        WCut        ...    1.0000e-14
Grids for H and He will be reduced by one unit

# of grid points (after initial pruning)     ...  48308 (   0.0 sec)
# of grid points (after weights+screening)   ...  46676 (   0.0 sec)
nearest neighbour list constructed           ...    0.0 sec
Grid point re-assignment to atoms done       ...    0.0 sec
Grid point division into batches done        ...    0.3 sec
Reduced shell lists constructed in    0.3 sec

Total number of grid points                  ...    46676
Total number of batches                      ...      733
Average number of points per batch           ...       63
Average number of grid points per atom       ...     7779
Average number of shells per batch           ...    33.14 (87.20%)
Average number of basis functions per batch  ...    76.84 (89.35%)
Average number of large shells per batch     ...    30.59 (92.32%)
Average number of large basis fcns per batch ...    72.25 (94.03%)
Maximum spatial batch extension              ...  15.76, 14.99, 16.58 au
Average spatial batch extension              ...   0.40,  0.41,  0.42 au

Time for grid setup =    0.458 sec

------------------------------
INITIAL GUESS: MODEL POTENTIAL
------------------------------
Loading Hartree-Fock densities                     ... done
Calculating cut-offs                               ... done
Setting up the integral package                    ... done
Initializing the effective Hamiltonian             ... done
Starting the Coulomb interaction                   ... done (   0.0 sec)
Reading the grid                                   ... done
Mapping shells                                     ... done
Starting the XC term evaluation                    ... done (   0.1 sec)
  promolecular density results
     # of electrons  =     17.998045188
     EX              =    -14.429959183
     EC              =     -0.575067182
     EX+EC           =    -15.005026366
Transforming the Hamiltonian                       ... done (   0.0 sec)
Diagonalizing the Hamiltonian                      ... done (   0.0 sec)
Back transforming the eigenvectors                 ... done (   0.0 sec)
Now organizing SCF variables                       ... done
                      ------------------
                      INITIAL GUESS DONE (   0.6 sec)
                      ------------------
--------------
SCF ITERATIONS
--------------
ITER       Energy         Delta-E        Max-DP      RMS-DP      [F,P]     Damp
               ***  Starting incremental Fock matrix formation  ***
  0   -115.6512815088   0.000000000000 0.03695601  0.00147405  0.2523314 0.7000
  1   -115.6883179511  -0.037036442237 0.02202020  0.00104028  0.1262266 0.7000
                               ***Turning on DIIS***
  2   -115.7053669076  -0.017048956543 0.03154335  0.00188006  0.0490767 0.0000
  3   -115.7330814117  -0.027714504067 0.01774030  0.00068009  0.0611227 0.0000
  4   -115.7376007086  -0.004519296979 0.00406499  0.00013178  0.0065655 0.0000
                      *** Initiating the SOSCF procedure ***
                           *** Shutting down DIIS ***
                      *** Re-Reading the Fockian *** 
                      *** Removing any level shift *** 
ITER      Energy       Delta-E        Grad      Rot      Max-DP    RMS-DP
  5   -115.73769486  -0.0000941536  0.000489  0.000489  0.000677  0.000043
               *** Restarting incremental Fock matrix formation ***
  6   -115.73770300  -0.0000081356  0.000152  0.000203  0.000490  0.000026
  7   -115.73770372  -0.0000007224  0.000056  0.000109  0.000208  0.000011
  8   -115.73770378  -0.0000000575  0.000019  0.000017  0.000029  0.000001
  9   -115.73770378  -0.0000000055  0.000011  0.000008  0.000015  0.000001
 10   -115.73770378  -0.0000000015  0.000003  0.000003  0.000003  0.000000
                  ***Gradient check signals convergence***
              ***Rediagonalizing the Fockian in SOSCF/NRSCF***

               *****************************************************
               *                     SUCCESS                       *
               *           SCF CONVERGED AFTER  11 CYCLES          *
               *****************************************************

Setting up the final grid:

General Integration Accuracy     IntAcc      ...  5.340
Radial Grid Type                 RadialGrid  ... Gauss-Chebyshev
Angular Grid (max. acc.)         AngularGrid ... Lebedev-590
Angular grid pruning method      GridPruning ... 3 (G Style)
Weight generation scheme         WeightScheme... Becke
Basis function cutoff            BFCut       ...    1.0000e-11
Integration weight cutoff        WCut        ...    1.0000e-14
Grids for H and He will be reduced by one unit

# of grid points (after initial pruning)     ...  77324 (   0.0 sec)
# of grid points (after weights+screening)   ...  74512 (   0.0 sec)
nearest neighbour list constructed           ...    0.0 sec
Grid point re-assignment to atoms done       ...    0.0 sec
Grid point division into batches done        ...    0.8 sec
Reduced shell lists constructed in    0.8 sec

Total number of grid points                  ...    74512
Total number of batches                      ...     1167
Average number of points per batch           ...       63
Average number of grid points per atom       ...    12419
Average number of shells per batch           ...    32.92 (86.64%)
Average number of basis functions per batch  ...    76.34 (88.77%)
Average number of large shells per batch     ...    30.31 (92.05%)
Average number of large basis fcns per batch ...    71.52 (93.67%)
Maximum spatial batch extension              ...  13.18, 14.25, 15.48 au
Average spatial batch extension              ...   0.34,  0.36,  0.37 au

Final grid set up in    0.9 sec
Final integration                            ... done (   0.2 sec)
Change in XC energy                          ...    -0.000107120
Integrated number of electrons               ...    18.000000746
Previous integrated no of electrons          ...    18.000002293

----------------
TOTAL SCF ENERGY
----------------

Total Energy       :         -115.73781090 Eh           -3149.38595 eV

Components:
Nuclear Repulsion  :           40.42189219 Eh            1099.93561 eV
Electronic Energy  :         -156.15970309 Eh           -4249.32155 eV
One Electron Energy:         -237.26421896 Eh           -6456.28763 eV
Two Electron Energy:           81.10451587 Eh            2206.96608 eV

Virial components:
Potential Energy   :         -230.98643934 Eh           -6285.46056 eV
Kinetic Energy     :          115.24862843 Eh            3136.07461 eV
Virial Ratio       :            2.00424458


DFT components:
N(Alpha)           :        9.000000373248 electrons
N(Beta)            :        9.000000373248 electrons
N(Total)           :       18.000000746496 electrons
E(XC)              :      -10.655210600093 Eh       
DFET-embed. en.    :        0.000000000000 Eh       

---------------
SCF CONVERGENCE
---------------

  Last Energy change         ...   -6.0140e-11  Tolerance :   1.0000e-08
  Last MAX-Density change    ...    1.8477e-06  Tolerance :   1.0000e-07
  Last RMS-Density change    ...    7.8681e-08  Tolerance :   5.0000e-09
  Last Orbital Gradient      ...    1.3496e-06  Tolerance :   1.0000e-05
  Last Orbital Rotation      ...    7.7948e-07  Tolerance :   1.0000e-05

             **** THE GBW FILE WAS UPDATED (0_geo_opt.gbw) ****
             **** DENSITY FILE WAS UPDATED (0_geo_opt.scfp.tmp) ****
             **** ENERGY FILE WAS UPDATED (0_geo_opt.en.tmp) ****
----------------
ORBITAL ENERGIES
----------------

  NO   OCC          E(Eh)            E(eV) 
   0   2.0000     -19.228089      -523.2229 
   1   2.0000     -10.315213      -280.6912 
   2   2.0000      -1.136483       -30.9253 
   3   2.0000      -0.795388       -21.6436 
   4   2.0000      -0.611406       -16.6372 
   5   2.0000      -0.541660       -14.7393 
   6   2.0000      -0.526195       -14.3185 
   7   2.0000      -0.433874       -11.8063 
   8   2.0000      -0.373658       -10.1678 
   9   0.0000       0.116647         3.1741 
  10   0.0000       0.156594         4.2611 
  11   0.0000       0.202542         5.5115 
  12   0.0000       0.205086         5.5807 
  13   0.0000       0.226271         6.1571 
  14   0.0000       0.304327         8.2812 
  15   0.0000       0.313372         8.5273 
  16   0.0000       0.404079        10.9955 
  17   0.0000       0.452495        12.3130 
  18   0.0000       0.484991        13.1973 
  19   0.0000       0.535870        14.5818 
  20   0.0000       0.543696        14.7947 
  21   0.0000       0.567605        15.4453 
  22   0.0000       0.598501        16.2861 
  23   0.0000       0.603399        16.4193 
  24   0.0000       0.671328        18.2678 
  25   0.0000       0.778890        21.1947 
  26   0.0000       0.832101        22.6426 
  27   0.0000       0.861304        23.4373 
  28   0.0000       0.989622        26.9290 
  29   0.0000       1.013917        27.5901 
  30   0.0000       1.109434        30.1892 
  31   0.0000       1.382622        37.6230 
  32   0.0000       1.512900        41.1681 
  33   0.0000       1.553368        42.2693 
  34   0.0000       1.602737        43.6127 
  35   0.0000       1.612791        43.8863 
  36   0.0000       1.624106        44.1942 
  37   0.0000       1.660663        45.1890 
  38   0.0000       1.687633        45.9228 
  39   0.0000       1.774662        48.2910 
  40   0.0000       1.952111        53.1197 
  41   0.0000       2.030733        55.2591 
  42   0.0000       2.055096        55.9220 
  43   0.0000       2.094021        56.9812 
  44   0.0000       2.114436        57.5367 
  45   0.0000       2.268412        61.7266 
  46   0.0000       2.332899        63.4814 
  47   0.0000       2.345653        63.8285 
  48   0.0000       2.380714        64.7825 
  49   0.0000       2.429392        66.1071 
  50   0.0000       2.497489        67.9601 
  51   0.0000       2.596212        70.6465 
  52   0.0000       2.639884        71.8349 
  53   0.0000       2.707071        73.6631 
  54   0.0000       2.841580        77.3233 
  55   0.0000       2.870869        78.1203 
  56   0.0000       2.888232        78.5928 
  57   0.0000       2.992656        81.4343 
  58   0.0000       3.095821        84.2416 
  59   0.0000       3.172502        86.3282 
  60   0.0000       3.298635        89.7604 
  61   0.0000       3.408365        92.7463 
  62   0.0000       3.441406        93.6454 
  63   0.0000       3.487939        94.9117 
  64   0.0000       3.611291        98.2682 
  65   0.0000       3.644954        99.1842 
  66   0.0000       3.666741        99.7771 
  67   0.0000       4.005240       108.9881 
  68   0.0000       4.223845       114.9367 
  69   0.0000       4.273315       116.2828 
  70   0.0000       4.455999       121.2539 
  71   0.0000       4.564618       124.2096 
  72   0.0000       5.345665       145.4629 
  73   0.0000       5.424816       147.6167 
  74   0.0000       5.554077       151.1341 
  75   0.0000       5.824402       158.4900 
  76   0.0000       5.833025       158.7247 
  77   0.0000       5.984130       162.8365 
  78   0.0000       6.379278       173.5890 
  79   0.0000       6.530734       177.7103 
  80   0.0000       6.744816       183.5358 
  81   0.0000       6.803342       185.1283 
  82   0.0000       7.039436       191.5528 
  83   0.0000       7.215434       196.3419 
  84   0.0000      22.403515       609.6306 
  85   0.0000      43.663788      1188.1521 

                    ********************************
                    * MULLIKEN POPULATION ANALYSIS *
                    ********************************

-----------------------
MULLIKEN ATOMIC CHARGES
-----------------------
   0 C :   -0.151086
   1 O :   -0.477824
   2 H :    0.312976
   3 H :    0.098792
   4 H :    0.118346
   5 H :    0.098795
Sum of atomic charges:   -0.0000000

--------------------------------
MULLIKEN REDUCED ORBITAL CHARGES
--------------------------------
  0 C s       :     3.223285  s :     3.223285
      pz      :     1.047358  p :     2.826287
      px      :     0.702221
      py      :     1.076708
      dz2     :     0.011104  d :     0.094112
      dxz     :     0.032429
      dyz     :     0.002645
      dx2y2   :     0.012740
      dxy     :     0.035194
      f0      :     0.001354  f :     0.007402
      f+1     :     0.000954
      f-1     :     0.000175
      f+2     :     0.001459
      f-2     :     0.000122
      f+3     :     0.001359
      f-3     :     0.001979
  1 O s       :     3.792912  s :     3.792912
      pz      :     1.759526  p :     4.652694
      px      :     1.313491
      py      :     1.579677
      dz2     :     0.003131  d :     0.030535
      dxz     :     0.006464
      dyz     :     0.005833
      dx2y2   :     0.008930
      dxy     :     0.006176
      f0      :     0.000269  f :     0.001682
      f+1     :     0.000233
      f-1     :     0.000087
      f+2     :     0.000287
      f-2     :     0.000235
      f+3     :     0.000367
      f-3     :     0.000205
  2 H s       :     0.639324  s :     0.639324
      pz      :     0.017008  p :     0.047700
      px      :     0.012723
      py      :     0.017968
  3 H s       :     0.881843  s :     0.881843
      pz      :     0.012073  p :     0.019365
      px      :     0.003006
      py      :     0.004286
  4 H s       :     0.861435  s :     0.861435
      pz      :     0.006298  p :     0.020219
      px      :     0.004192
      py      :     0.009729
  5 H s       :     0.881841  s :     0.881841
      pz      :     0.004930  p :     0.019364
      px      :     0.004975
      py      :     0.009459


                     *******************************
                     * LOEWDIN POPULATION ANALYSIS *
                     *******************************

----------------------
LOEWDIN ATOMIC CHARGES
----------------------
   0 C :   -0.384416
   1 O :   -0.076838
   2 H :    0.165683
   3 H :    0.093439
   4 H :    0.108694
   5 H :    0.093438

-------------------------------
LOEWDIN REDUCED ORBITAL CHARGES
-------------------------------
  0 C s       :     2.863177  s :     2.863177
      pz      :     1.096791  p :     3.052228
      px      :     0.845733
      py      :     1.109705
      dz2     :     0.072315  d :     0.412176
      dxz     :     0.113764
      dyz     :     0.020703
      dx2y2   :     0.082052
      dxy     :     0.123341
      f0      :     0.007796  f :     0.056835
      f+1     :     0.007143
      f-1     :     0.000852
      f+2     :     0.012482
      f-2     :     0.004820
      f+3     :     0.011709
      f-3     :     0.012032
  1 O s       :     3.366864  s :     3.366864
      pz      :     1.699366  p :     4.633958
      px      :     1.380896
      py      :     1.553695
      dz2     :     0.006116  d :     0.071386
      dxz     :     0.017801
      dyz     :     0.008085
      dx2y2   :     0.019312
      dxy     :     0.020072
      f0      :     0.000482  f :     0.004629
      f+1     :     0.000620
      f-1     :     0.000072
      f+2     :     0.001047
      f-2     :     0.000559
      f+3     :     0.000889
      f-3     :     0.000961
  2 H s       :     0.675203  s :     0.675203
      pz      :     0.055765  p :     0.159114
      px      :     0.033910
      py      :     0.069439
  3 H s       :     0.846724  s :     0.846724
      pz      :     0.036192  p :     0.059836
      px      :     0.009714
      py      :     0.013930
  4 H s       :     0.831697  s :     0.831697
      pz      :     0.019216  p :     0.059609
      px      :     0.011611
      py      :     0.028783
  5 H s       :     0.846726  s :     0.846726
      pz      :     0.015607  p :     0.059836
      px      :     0.015205
      py      :     0.029024


                      *****************************
                      * MAYER POPULATION ANALYSIS *
                      *****************************

  NA   - Mulliken gross atomic population
  ZA   - Total nuclear charge
  QA   - Mulliken gross atomic charge
  VA   - Mayer's total valence
  BVA  - Mayer's bonded valence
  FA   - Mayer's free valence

  ATOM       NA         ZA         QA         VA         BVA        FA
  0 C      6.1511     6.0000    -0.1511     3.9347     3.9347     0.0000
  1 O      8.4778     8.0000    -0.4778     1.8880     1.8880    -0.0000
  2 H      0.6870     1.0000     0.3130     0.9137     0.9137    -0.0000
  3 H      0.9012     1.0000     0.0988     0.9596     0.9596     0.0000
  4 H      0.8817     1.0000     0.1183     0.9598     0.9598     0.0000
  5 H      0.9012     1.0000     0.0988     0.9596     0.9596    -0.0000

  Mayer bond orders larger than 0.1
B(  0-C ,  1-O ) :   0.9985 B(  0-C ,  3-H ) :   0.9755 B(  0-C ,  4-H ) :   0.9750 
B(  0-C ,  5-H ) :   0.9755 B(  1-O ,  2-H ) :   0.9002 

-------
TIMINGS
-------

Total SCF time: 0 days 0 hours 0 min 9 sec 

Total time                  ....       9.137 sec
Sum of individual times     ....       8.558 sec  ( 93.7%)

Fock matrix formation       ....       6.934 sec  ( 75.9%)
  XC integration            ....       1.957 sec  ( 28.2% of F)
    Basis function eval.    ....       0.414 sec  ( 21.2% of XC)
    Density eval.           ....       0.277 sec  ( 14.1% of XC)
    XC-Functional eval.     ....       0.687 sec  ( 35.1% of XC)
    XC-Potential eval.      ....       0.276 sec  ( 14.1% of XC)
Diagonalization             ....       0.045 sec  (  0.5%)
Density matrix formation    ....       0.008 sec  (  0.1%)
Population analysis         ....       0.011 sec  (  0.1%)
Initial guess               ....       0.166 sec  (  1.8%)
Orbital Transformation      ....       0.000 sec  (  0.0%)
Orbital Orthonormalization  ....       0.000 sec  (  0.0%)
DIIS solution               ....       0.019 sec  (  0.2%)
SOSCF solution              ....       0.021 sec  (  0.2%)
Grid generation             ....       1.356 sec  ( 14.8%)


-------------------------------------------------------------------------------
                          DFT DISPERSION CORRECTION                            
                                                                               
                              DFTD3 V3.1  Rev 1                                
                              USING zero damping                               
-------------------------------------------------------------------------------
The omegaB97X-D3 functional is recognized. Fit by Chai et al.
Active option DFTDOPT                   ...         3   

molecular C6(AA) [au] = 208.716952 


            DFT-D V3
 parameters
 s6 scaling factor         :     1.0000 
 rs6 scaling factor        :     1.2810 
 s8 scaling factor         :     1.0000 
 rs8 scaling factor        :     1.0940 
 Damping factor alpha6     :    14.0000 
 Damping factor alpha8     :    16.0000 
 ad hoc parameters k1-k3   :    16.0000     1.3333    -4.0000 

 Edisp/kcal,au: -0.150448119889  -0.000239754315 
 E6   /kcal   :  -0.029676003 
 E8   /kcal   :  -0.120772117 
 % E8         :  80.274926121 

-------------------------   ----------------
Dispersion correction           -0.000239754
-------------------------   ----------------


-------------------------   --------------------
FINAL SINGLE POINT ENERGY      -115.738050659302
-------------------------   --------------------



           ************************************************************
           *        Program running with 4 parallel MPI-processes     *
           *              working on a common directory               *
           ************************************************************
------------------------------------------------------------------------------
                         ORCA SCF GRADIENT CALCULATION
------------------------------------------------------------------------------

Gradient of the Kohn-Sham DFT energy:
Kohn-Sham wavefunction type      ... RKS
Hartree-Fock exchange scaling    ...    0.196
Number of operators              ...    1
Number of atoms                  ...    6
Basis set dimensions             ...   86
Integral neglect threshold       ... 2.5e-11
Integral primitive cutoff        ... 2.5e-12

Nuclear repulsion gradient       ... done
One Electron Gradient            ... done
Pre-screening matrix             ... done
Starting the two electron gradient:
Two electron gradient done
Exchange-correlation gradient    ... done
Dispersion correction            ... done

------------------
CARTESIAN GRADIENT
------------------

   1   C   :   -0.000615703   -0.000019056   -0.000126327
   2   O   :    0.000679803    0.000039057    0.000124298
   3   H   :    0.000045253   -0.000004679    0.000012089
   4   H   :   -0.000045951   -0.000001149   -0.000020309
   5   H   :   -0.000016480   -0.000020815    0.000006497
   6   H   :   -0.000046922    0.000006643    0.000003752

Difference to translation invariance:
           :   -0.0000000000   -0.0000000000    0.0000000000

Norm of the cartesian gradient     ...    0.0009392913
RMS gradient                       ...    0.0002213931
MAX gradient                       ...    0.0006798030

-------
TIMINGS
-------

Total SCF gradient time            ...        1.664 sec

One electron gradient       ....       0.006 sec  (  0.4%)
Prescreening matrices       ....       0.025 sec  (  1.5%)
Two electron gradient       ....       0.841 sec  ( 50.5%)
XC gradient                 ....       0.433 sec  ( 26.0%)
------------------------------------------------------------------------------
                         ORCA GEOMETRY RELAXATION STEP
------------------------------------------------------------------------------

Reading the OPT-File                    .... done
Getting information on internals        .... done
Copying old internal coords+grads       .... done
Making the new internal coordinates     .... (new redundants).... done
Validating the new internal coordinates .... (new redundants).... done
Calculating the B-matrix                .... done
Calculating the G,G- and P matrices     .... done
Transforming gradient to internals      .... done
Projecting the internal gradient        .... done
Number of atoms                         ....   6
Number of internal coordinates          ....  15
Current Energy                          ....  -115.738050659 Eh
Current gradient norm                   ....     0.000939291 Eh/bohr
Maximum allowed component of the step   ....  0.300
Current trust radius                    ....  0.300
Evaluating the initial hessian          ....  (Almloef) done
Projecting the Hessian                  .... done
Forming the augmented Hessian           .... done
Diagonalizing the augmented Hessian     .... done
Last element of RFO vector              ....  0.999999920
Lowest eigenvalues of augmented Hessian:
 -0.000000051  0.021015415  0.181763550  0.192266988  0.313280738
Length of the computed step             ....  0.000400765
The final length of the internal step   ....  0.000400765
Converting the step to cartesian space:
 Initial RMS(Int)=    0.0001034770
Transforming coordinates:
 Iter   0:  RMS(Cart)=    0.0001477184 RMS(Int)=    1.6223021811
 Iter   1:  RMS(Cart)=    0.0000000126 RMS(Int)=    0.0000000176
Imposing constraints:
 Iter   0:  RMS(Cart)=    0.0000000013 RMS(Int)=    0.0000000000
CONVERGED
done
Storing new coordinates                 .... done

                                .--------------------.
          ----------------------|Geometry convergence|-------------------------
          Item                value                   Tolerance       Converged
          ---------------------------------------------------------------------
          RMS gradient        0.0000337539            0.0001000000      YES
          MAX gradient        0.0000849297            0.0003000000      YES
          RMS step            0.0001034770            0.0020000000      YES
          MAX step            0.0002364960            0.0040000000      YES
          ........................................................
          Max(Bonds)      0.0000      Max(Angles)    0.01
          Max(Dihed)        0.01      Max(Improp)    0.00
          ---------------------------------------------------------------------

                    ***********************HURRAY********************
                    ***        THE OPTIMIZATION HAS CONVERGED     ***
                    *************************************************


    ---------------------------------------------------------------------------
                         Redundant Internal Coordinates

                          --- Optimized Parameters ---  
                            (Angstroem and degrees)

        Definition                    OldVal   dE/dq     Step     FinalVal
    ----------------------------------------------------------------------------
     1. B(O   1,C   0)                1.4126  0.000739  0.0000    1.4126 C 
     2. B(H   2,O   1)                0.9575  0.000008 -0.0000    0.9575   
     3. B(H   3,C   0)                1.0960  0.000029 -0.0000    1.0960   
     4. B(H   4,C   0)                1.0895  0.000026 -0.0000    1.0895   
     5. B(H   5,C   0)                1.0960  0.000029 -0.0000    1.0960   
     6. A(O   1,C   0,H   4)          107.02 -0.000009    0.00    107.02   
     7. A(O   1,C   0,H   3)          112.23  0.000047   -0.01    112.22   
     8. A(O   1,C   0,H   5)          112.23  0.000047   -0.01    112.22   
     9. A(H   3,C   0,H   5)          108.77 -0.000037    0.01    108.78   
    10. A(H   4,C   0,H   5)          108.22 -0.000026    0.01    108.22   
    11. A(H   3,C   0,H   4)          108.22 -0.000027    0.01    108.22   
    12. A(C   0,O   1,H   2)          108.75  0.000085   -0.01    108.74   
    13. D(H   2,O   1,C   0,H   5)    -61.43 -0.000012    0.01    -61.43   
    14. D(H   2,O   1,C   0,H   3)     61.43  0.000010   -0.00     61.43   
    15. D(H   2,O   1,C   0,H   4)    180.00 -0.000001    0.00    180.00   
    ----------------------------------------------------------------------------
                 *******************************************************
                 *** FINAL ENERGY EVALUATION AT THE STATIONARY POINT ***
                 ***               (AFTER    1 CYCLES)               ***
                 *******************************************************
---------------------------------
CARTESIAN COORDINATES (ANGSTROEM)
---------------------------------
  C      3.010798   -1.180950    0.598411
  O      4.395145   -1.128069    0.874414
  H      4.772455   -0.378980    0.412540
  H      2.806090   -1.318962   -0.469425
  H      2.611104   -2.040277    1.135793
  H      2.484427   -0.284489    0.945571

----------------------------
CARTESIAN COORDINATES (A.U.)
----------------------------
  NO LB      ZA    FRAG     MASS         X           Y           Z
   0 C     6.0000    0    12.011    5.689584   -2.231672    1.130833
   1 O     8.0000    0    15.999    8.305621   -2.131741    1.652403
   2 H     1.0000    0     1.008    9.018633   -0.716169    0.779588
   3 H     1.0000    0     1.008    5.302742   -2.492477   -0.887084
   4 H     1.0000    0     1.008    4.934271   -3.855566    2.146338
   5 H     1.0000    0     1.008    4.694886   -0.537607    1.786870

--------------------------------
INTERNAL COORDINATES (ANGSTROEM)
--------------------------------
 C      0   0   0     0.000000000000     0.00000000     0.00000000
 O      1   0   0     1.412582729361     0.00000000     0.00000000
 H      2   1   0     0.957509115887   108.73639086     0.00000000
 H      1   2   3     1.096004460750   112.21755417    61.42598058
 H      1   2   3     1.089485644628   107.01877578   180.00017966
 H      1   2   3     1.096005774424   112.21938476   298.57478280

---------------------------
INTERNAL COORDINATES (A.U.)
---------------------------
 C      0   0   0     0.000000000000     0.00000000     0.00000000
 O      1   0   0     2.669394500000     0.00000000     0.00000000
 H      2   1   0     1.809429999759   108.73639086     0.00000000
 H      1   2   3     2.071148272374   112.21755417    61.42598058
 H      1   2   3     2.058829495185   107.01877578   180.00017966
 H      1   2   3     2.071150754857   112.21938476   298.57478280

---------------------
BASIS SET INFORMATION
---------------------
There are 3 groups of distinct atoms

 Group   1 Type C   : 11s6p2d1f contracted to 5s3p2d1f pattern {62111/411/11/1}
 Group   2 Type O   : 11s6p2d1f contracted to 5s3p2d1f pattern {62111/411/11/1}
 Group   3 Type H   : 5s1p contracted to 3s1p pattern {311/1}

Atom   0C    basis set group =>   1
Atom   1O    basis set group =>   2
Atom   2H    basis set group =>   3
Atom   3H    basis set group =>   3
Atom   4H    basis set group =>   3
Atom   5H    basis set group =>   3


           ************************************************************
           *        Program running with 4 parallel MPI-processes     *
           *              working on a common directory               *
           ************************************************************
------------------------------------------------------------------------------
                           ORCA GTO INTEGRAL CALCULATION
------------------------------------------------------------------------------

                         BASIS SET STATISTICS AND STARTUP INFO

 # of primitive gaussian shells          ...   64
 # of primitive gaussian functions       ...  124
 # of contracted shells                  ...   38
 # of contracted basis functions         ...   86
 Highest angular momentum                ...    3
 Maximum contraction depth               ...    6
 Integral package used                   ... LIBINT
 Integral threshhold            Thresh   ...  2.500e-11
 Primitive cut-off              TCut     ...  2.500e-12


------------------------------ INTEGRAL EVALUATION ----------------------------


 * One electron integrals 
 Pre-screening matrix                    ... done
 Shell pair data                         ... done (   0.000 sec)



           ************************************************************
           *        Program running with 4 parallel MPI-processes     *
           *              working on a common directory               *
           ************************************************************
-------------------------------------------------------------------------------
                                 ORCA SCF
-------------------------------------------------------------------------------

------------
SCF SETTINGS
------------
Hamiltonian:
 Density Functional     Method          .... DFT(GTOs)
 Exchange Functional    Exchange        .... WB97X-D3
 Correlation Functional Correlation     .... WB97X-D3
 Gradients option       PostSCFGGA      .... off
 Hybrid DFT is turned on
   Fraction HF Exchange ScalHFX         ....  0.195728
   Scaling of DF-GGA-X  ScalDFX         ....  0.000000
   Scaling of DF-GGA-C  ScalDFC         ....  1.000000
   Scaling of DF-LDA-C  ScalLDAC        ....  1.000000
   Perturbative correction              ....  0.000000
   Density functional embedding theory  .... OFF
 Long-range corrected/Screened/Range-Separated Hybrid DFT is turned on
   Amount of maximum screened exact exchange              ....  0.804272
   Range separation parameter mu (erf(mu*r12)/r12)        ....  0.250000


General Settings:
 Integral files         IntName         .... 0_geo_opt
 Hartree-Fock type      HFTyp           .... RHF
 Total Charge           Charge          ....    0
 Multiplicity           Mult            ....    1
 Number of Electrons    NEL             ....   18
 Basis Dimension        Dim             ....   86
 Nuclear Repulsion      ENuc            ....     40.4227467116 Eh

Convergence Acceleration:
 DIIS                   CNVDIIS         .... on
   Start iteration      DIISMaxIt       ....    12
   Startup error        DIISStart       ....  0.200000
   # of expansion vecs  DIISMaxEq       ....     5
   Bias factor          DIISBfac        ....   1.050
   Max. coefficient     DIISMaxC        ....  10.000
 Newton-Raphson         CNVNR           .... off
 SOSCF                  CNVSOSCF        .... on
   Start iteration      SOSCFMaxIt      ....   150
   Startup grad/error   SOSCFStart      ....  0.003300
 Level Shifting         CNVShift        .... on
   Level shift para.    LevelShift      ....    0.2500
   Turn off err/grad.   ShiftErr        ....    0.0010
 Zerner damping         CNVZerner       .... off
 Static damping         CNVDamp         .... on
   Fraction old density DampFac         ....    0.7000
   Max. Damping (<1)    DampMax         ....    0.9800
   Min. Damping (>=0)   DampMin         ....    0.0000
   Turn off err/grad.   DampErr         ....    0.1000
 Fernandez-Rico         CNVRico         .... off

SCF Procedure:
 Maximum # iterations   MaxIter         ....   125
 SCF integral mode      SCFMode         .... Direct
   Integral package                     .... LIBINT
 Reset frequency        DirectResetFreq ....    20
 Integral Threshold     Thresh          ....  2.500e-11 Eh
 Primitive CutOff       TCut            ....  2.500e-12 Eh

Convergence Tolerance:
 Convergence Check Mode ConvCheckMode   .... Total+1el-Energy
 Convergence forced     ConvForced      .... 0
 Energy Change          TolE            ....  1.000e-08 Eh
 1-El. energy change                    ....  1.000e-05 Eh
 Orbital Gradient       TolG            ....  1.000e-05
 Orbital Rotation angle TolX            ....  1.000e-05
 DIIS Error             TolErr          ....  5.000e-07


Diagonalization of the overlap matrix:
Smallest eigenvalue                        ... 1.650e-03
Time for diagonalization                   ...    0.002 sec
Threshold for overlap eigenvalues          ... 1.000e-08
Number of eigenvalues below threshold      ... 0
Time for construction of square roots      ...    0.003 sec
Total time needed                          ...    0.005 sec

---------------------
INITIAL GUESS: MOREAD
---------------------
Guess MOs are being read from file: 0_geo_opt.gbw
Input Geometry matches current geometry (good)
Input basis set matches current basis set (good)
MOs were renormalized
MOs were reorthogonalized (Cholesky)
                      ------------------
                      INITIAL GUESS DONE (   0.0 sec)
                      ------------------
-------------------
DFT GRID GENERATION
-------------------

General Integration Accuracy     IntAcc      ...  5.010
Radial Grid Type                 RadialGrid  ... Gauss-Chebyshev
Angular Grid (max. acc.)         AngularGrid ... Lebedev-434
Angular grid pruning method      GridPruning ... 3 (G Style)
Weight generation scheme         WeightScheme... Becke
Basis function cutoff            BFCut       ...    1.0000e-11
Integration weight cutoff        WCut        ...    1.0000e-14
Grids for H and He will be reduced by one unit

# of grid points (after initial pruning)     ...  48308 (   0.0 sec)
# of grid points (after weights+screening)   ...  46677 (   0.0 sec)
nearest neighbour list constructed           ...    0.0 sec
Grid point re-assignment to atoms done       ...    0.0 sec
Grid point division into batches done        ...    0.3 sec
Reduced shell lists constructed in    0.3 sec

Total number of grid points                  ...    46677
Total number of batches                      ...      733
Average number of points per batch           ...       63
Average number of grid points per atom       ...     7780
Average number of shells per batch           ...    33.12 (87.16%)
Average number of basis functions per batch  ...    76.83 (89.33%)
Average number of large shells per batch     ...    30.57 (92.31%)
Average number of large basis fcns per batch ...    72.22 (94.00%)
Maximum spatial batch extension              ...  15.76, 14.99, 16.58 au
Average spatial batch extension              ...   0.41,  0.42,  0.42 au

Time for grid setup =    0.371 sec

--------------
SCF ITERATIONS
--------------
ITER       Energy         Delta-E        Max-DP      RMS-DP      [F,P]     Damp
               ***  Starting incremental Fock matrix formation  ***
                      *** Initiating the SOSCF procedure ***
                      *** Re-Reading the Fockian *** 
                      *** Removing any level shift *** 
ITER      Energy       Delta-E        Grad      Rot      Max-DP    RMS-DP
  0   -115.73770391 -115.7377039066  0.000020  0.000020  0.000021  0.000001
               *** Restarting incremental Fock matrix formation ***
  1   -115.73770391  -0.0000000077  0.000009  0.000009  0.000011  0.000000
                 **** Energy Check signals convergence ****
              ***Rediagonalizing the Fockian in SOSCF/NRSCF***

               *****************************************************
               *                     SUCCESS                       *
               *           SCF CONVERGED AFTER   2 CYCLES          *
               *****************************************************

Setting up the final grid:

General Integration Accuracy     IntAcc      ...  5.340
Radial Grid Type                 RadialGrid  ... Gauss-Chebyshev
Angular Grid (max. acc.)         AngularGrid ... Lebedev-590
Angular grid pruning method      GridPruning ... 3 (G Style)
Weight generation scheme         WeightScheme... Becke
Basis function cutoff            BFCut       ...    1.0000e-11
Integration weight cutoff        WCut        ...    1.0000e-14
Grids for H and He will be reduced by one unit

# of grid points (after initial pruning)     ...  77324 (   0.0 sec)
# of grid points (after weights+screening)   ...  74512 (   0.0 sec)
nearest neighbour list constructed           ...    0.0 sec
Grid point re-assignment to atoms done       ...    0.0 sec
Grid point division into batches done        ...    0.8 sec
Reduced shell lists constructed in    0.8 sec

Total number of grid points                  ...    74512
Total number of batches                      ...     1167
Average number of points per batch           ...       63
Average number of grid points per atom       ...    12419
Average number of shells per batch           ...    32.92 (86.63%)
Average number of basis functions per batch  ...    76.34 (88.76%)
Average number of large shells per batch     ...    30.31 (92.09%)
Average number of large basis fcns per batch ...    71.52 (93.68%)
Maximum spatial batch extension              ...  13.18, 14.25, 15.48 au
Average spatial batch extension              ...   0.34,  0.36,  0.37 au

Final grid set up in    0.9 sec
Final integration                            ... done (   0.2 sec)
Change in XC energy                          ...    -0.000107133
Integrated number of electrons               ...    18.000000748
Previous integrated no of electrons          ...    18.000002295

----------------
TOTAL SCF ENERGY
----------------

Total Energy       :         -115.73781105 Eh           -3149.38595 eV

Components:
Nuclear Repulsion  :           40.42274671 Eh            1099.95886 eV
Electronic Energy  :         -156.16055776 Eh           -4249.34481 eV
One Electron Energy:         -237.26589836 Eh           -6456.33333 eV
Two Electron Energy:           81.10534060 Eh            2206.98852 eV

Virial components:
Potential Energy   :         -230.98671992 Eh           -6285.46820 eV
Kinetic Energy     :          115.24890887 Eh            3136.08225 eV
Virial Ratio       :            2.00424214


DFT components:
N(Alpha)           :        9.000000373788 electrons
N(Beta)            :        9.000000373788 electrons
N(Total)           :       18.000000747576 electrons
E(XC)              :      -10.655260113470 Eh       
DFET-embed. en.    :        0.000000000000 Eh       

---------------
SCF CONVERGENCE
---------------

  Last Energy change         ...   -8.3138e-10  Tolerance :   1.0000e-08
  Last MAX-Density change    ...    5.8670e-06  Tolerance :   1.0000e-07
  Last RMS-Density change    ...    2.7035e-07  Tolerance :   5.0000e-09
  Last Orbital Gradient      ...    2.4271e-06  Tolerance :   1.0000e-05
  Last Orbital Rotation      ...    4.4579e-06  Tolerance :   1.0000e-05

             **** THE GBW FILE WAS UPDATED (0_geo_opt.gbw) ****
             **** DENSITY FILE WAS UPDATED (0_geo_opt.scfp.tmp) ****
             **** ENERGY FILE WAS UPDATED (0_geo_opt.en.tmp) ****
----------------
ORBITAL ENERGIES
----------------

  NO   OCC          E(Eh)            E(eV) 
   0   2.0000     -19.228073      -523.2225 
   1   2.0000     -10.315201      -280.6909 
   2   2.0000      -1.136487       -30.9254 
   3   2.0000      -0.795388       -21.6436 
   4   2.0000      -0.611399       -16.6370 
   5   2.0000      -0.541679       -14.7398 
   6   2.0000      -0.526198       -14.3186 
   7   2.0000      -0.433887       -11.8067 
   8   2.0000      -0.373652       -10.1676 
   9   0.0000       0.116644         3.1740 
  10   0.0000       0.156610         4.2616 
  11   0.0000       0.202549         5.5116 
  12   0.0000       0.205085         5.5806 
  13   0.0000       0.226265         6.1570 
  14   0.0000       0.304332         8.2813 
  15   0.0000       0.313358         8.5269 
  16   0.0000       0.404078        10.9955 
  17   0.0000       0.452482        12.3127 
  18   0.0000       0.485015        13.1979 
  19   0.0000       0.535889        14.5823 
  20   0.0000       0.543686        14.7944 
  21   0.0000       0.567616        15.4456 
  22   0.0000       0.598500        16.2860 
  23   0.0000       0.603430        16.4202 
  24   0.0000       0.671333        18.2679 
  25   0.0000       0.778918        21.1954 
  26   0.0000       0.832054        22.6413 
  27   0.0000       0.861305        23.4373 
  28   0.0000       0.989600        26.9284 
  29   0.0000       1.013924        27.5903 
  30   0.0000       1.109440        30.1894 
  31   0.0000       1.382597        37.6224 
  32   0.0000       1.512833        41.1663 
  33   0.0000       1.553352        42.2689 
  34   0.0000       1.602764        43.6134 
  35   0.0000       1.612819        43.8870 
  36   0.0000       1.624097        44.1939 
  37   0.0000       1.660653        45.1887 
  38   0.0000       1.687693        45.9245 
  39   0.0000       1.774695        48.2919 
  40   0.0000       1.952149        53.1207 
  41   0.0000       2.030751        55.2595 
  42   0.0000       2.055079        55.9216 
  43   0.0000       2.094075        56.9827 
  44   0.0000       2.114432        57.5366 
  45   0.0000       2.268435        61.7273 
  46   0.0000       2.332896        63.4813 
  47   0.0000       2.345686        63.8294 
  48   0.0000       2.380707        64.7823 
  49   0.0000       2.429386        66.1070 
  50   0.0000       2.497523        67.9611 
  51   0.0000       2.596250        70.6475 
  52   0.0000       2.639907        71.8355 
  53   0.0000       2.707122        73.6645 
  54   0.0000       2.841571        77.3231 
  55   0.0000       2.870927        78.1219 
  56   0.0000       2.888200        78.5919 
  57   0.0000       2.992636        81.4338 
  58   0.0000       3.095855        84.2425 
  59   0.0000       3.172553        86.3296 
  60   0.0000       3.298748        89.7635 
  61   0.0000       3.408499        92.7500 
  62   0.0000       3.441337        93.6435 
  63   0.0000       3.487870        94.9098 
  64   0.0000       3.611386        98.2708 
  65   0.0000       3.644971        99.1847 
  66   0.0000       3.666700        99.7760 
  67   0.0000       4.005312       108.9901 
  68   0.0000       4.223895       114.9380 
  69   0.0000       4.273359       116.2840 
  70   0.0000       4.456139       121.2577 
  71   0.0000       4.564596       124.2090 
  72   0.0000       5.345717       145.4644 
  73   0.0000       5.424935       147.6200 
  74   0.0000       5.554057       151.1336 
  75   0.0000       5.824418       158.4905 
  76   0.0000       5.832895       158.7211 
  77   0.0000       5.984218       162.8388 
  78   0.0000       6.379276       173.5889 
  79   0.0000       6.530777       177.7115 
  80   0.0000       6.744894       183.5379 
  81   0.0000       6.803377       185.1293 
  82   0.0000       7.039437       191.5528 
  83   0.0000       7.215448       196.3423 
  84   0.0000      22.403688       609.6353 
  85   0.0000      43.663793      1188.1522 

                    ********************************
                    * MULLIKEN POPULATION ANALYSIS *
                    ********************************

-----------------------
MULLIKEN ATOMIC CHARGES
-----------------------
   0 C :   -0.151083
   1 O :   -0.477814
   2 H :    0.312970
   3 H :    0.098791
   4 H :    0.118341
   5 H :    0.098795
Sum of atomic charges:   -0.0000000

--------------------------------
MULLIKEN REDUCED ORBITAL CHARGES
--------------------------------
  0 C s       :     3.223286  s :     3.223286
      pz      :     1.047350  p :     2.826286
      px      :     0.702229
      py      :     1.076707
      dz2     :     0.011105  d :     0.094109
      dxz     :     0.032428
      dyz     :     0.002644
      dx2y2   :     0.012742
      dxy     :     0.035191
      f0      :     0.001354  f :     0.007402
      f+1     :     0.000954
      f-1     :     0.000175
      f+2     :     0.001459
      f-2     :     0.000122
      f+3     :     0.001359
      f-3     :     0.001979
  1 O s       :     3.792933  s :     3.792933
      pz      :     1.759512  p :     4.652661
      px      :     1.313523
      py      :     1.579626
      dz2     :     0.003132  d :     0.030538
      dxz     :     0.006464
      dyz     :     0.005835
      dx2y2   :     0.008933
      dxy     :     0.006175
      f0      :     0.000269  f :     0.001682
      f+1     :     0.000233
      f-1     :     0.000087
      f+2     :     0.000287
      f-2     :     0.000235
      f+3     :     0.000367
      f-3     :     0.000205
  2 H s       :     0.639330  s :     0.639330
      pz      :     0.017010  p :     0.047700
      px      :     0.012722
      py      :     0.017969
  3 H s       :     0.881843  s :     0.881843
      pz      :     0.012074  p :     0.019366
      px      :     0.003006
      py      :     0.004286
  4 H s       :     0.861440  s :     0.861440
      pz      :     0.006298  p :     0.020220
      px      :     0.004193
      py      :     0.009729
  5 H s       :     0.881840  s :     0.881840
      pz      :     0.004930  p :     0.019365
      px      :     0.004974
      py      :     0.009460


                     *******************************
                     * LOEWDIN POPULATION ANALYSIS *
                     *******************************

----------------------
LOEWDIN ATOMIC CHARGES
----------------------
   0 C :   -0.384390
   1 O :   -0.076845
   2 H :    0.165683
   3 H :    0.093434
   4 H :    0.108684
   5 H :    0.093433

-------------------------------
LOEWDIN REDUCED ORBITAL CHARGES
-------------------------------
  0 C s       :     2.863161  s :     2.863161
      pz      :     1.096783  p :     3.052218
      px      :     0.845733
      py      :     1.109702
      dz2     :     0.072324  d :     0.412172
      dxz     :     0.113752
      dyz     :     0.020703
      dx2y2   :     0.082057
      dxy     :     0.123335
      f0      :     0.007798  f :     0.056839
      f+1     :     0.007143
      f-1     :     0.000852
      f+2     :     0.012483
      f-2     :     0.004820
      f+3     :     0.011710
      f-3     :     0.012034
  1 O s       :     3.366879  s :     3.366879
      pz      :     1.699357  p :     4.633947
      px      :     1.380938
      py      :     1.553652
      dz2     :     0.006116  d :     0.071388
      dxz     :     0.017800
      dyz     :     0.008088
      dx2y2   :     0.019317
      dxy     :     0.020067
      f0      :     0.000482  f :     0.004630
      f+1     :     0.000620
      f-1     :     0.000072
      f+2     :     0.001047
      f-2     :     0.000559
      f+3     :     0.000889
      f-3     :     0.000961
  2 H s       :     0.675201  s :     0.675201
      pz      :     0.055769  p :     0.159116
      px      :     0.033906
      py      :     0.069441
  3 H s       :     0.846724  s :     0.846724
      pz      :     0.036195  p :     0.059842
      px      :     0.009715
      py      :     0.013932
  4 H s       :     0.831701  s :     0.831701
      pz      :     0.019217  p :     0.059614
      px      :     0.011614
      py      :     0.028784
  5 H s       :     0.846726  s :     0.846726
      pz      :     0.015609  p :     0.059842
      px      :     0.015204
      py      :     0.029029


                      *****************************
                      * MAYER POPULATION ANALYSIS *
                      *****************************

  NA   - Mulliken gross atomic population
  ZA   - Total nuclear charge
  QA   - Mulliken gross atomic charge
  VA   - Mayer's total valence
  BVA  - Mayer's bonded valence
  FA   - Mayer's free valence

  ATOM       NA         ZA         QA         VA         BVA        FA
  0 C      6.1511     6.0000    -0.1511     3.9348     3.9348     0.0000
  1 O      8.4778     8.0000    -0.4778     1.8880     1.8880    -0.0000
  2 H      0.6870     1.0000     0.3130     0.9137     0.9137    -0.0000
  3 H      0.9012     1.0000     0.0988     0.9596     0.9596    -0.0000
  4 H      0.8817     1.0000     0.1183     0.9598     0.9598    -0.0000
  5 H      0.9012     1.0000     0.0988     0.9596     0.9596    -0.0000

  Mayer bond orders larger than 0.1
B(  0-C ,  1-O ) :   0.9985 B(  0-C ,  3-H ) :   0.9755 B(  0-C ,  4-H ) :   0.9750 
B(  0-C ,  5-H ) :   0.9755 B(  1-O ,  2-H ) :   0.9003 

-------
TIMINGS
-------

Total SCF time: 0 days 0 hours 0 min 3 sec 

Total time                  ....       3.606 sec
Sum of individual times     ....       3.256 sec  ( 90.3%)

Fock matrix formation       ....       1.943 sec  ( 53.9%)
  XC integration            ....       0.642 sec  ( 33.1% of F)
    Basis function eval.    ....       0.139 sec  ( 21.6% of XC)
    Density eval.           ....       0.088 sec  ( 13.7% of XC)
    XC-Functional eval.     ....       0.221 sec  ( 34.5% of XC)
    XC-Potential eval.      ....       0.090 sec  ( 14.0% of XC)
Diagonalization             ....       0.002 sec  (  0.1%)
Density matrix formation    ....       0.002 sec  (  0.0%)
Population analysis         ....       0.029 sec  (  0.8%)
Initial guess               ....       0.003 sec  (  0.1%)
Orbital Transformation      ....       0.000 sec  (  0.0%)
Orbital Orthonormalization  ....       0.001 sec  (  0.0%)
DIIS solution               ....       0.000 sec  (  0.0%)
SOSCF solution              ....       0.007 sec  (  0.2%)
Grid generation             ....       1.269 sec  ( 35.2%)


-------------------------------------------------------------------------------
                          DFT DISPERSION CORRECTION                            
                                                                               
                              DFTD3 V3.1  Rev 1                                
                              USING zero damping                               
-------------------------------------------------------------------------------
The omegaB97X-D3 functional is recognized. Fit by Chai et al.
Active option DFTDOPT                   ...         3   

molecular C6(AA) [au] = 208.716707 


            DFT-D V3
 parameters
 s6 scaling factor         :     1.0000 
 rs6 scaling factor        :     1.2810 
 s8 scaling factor         :     1.0000 
 rs8 scaling factor        :     1.0940 
 Damping factor alpha6     :    14.0000 
 Damping factor alpha8     :    16.0000 
 ad hoc parameters k1-k3   :    16.0000     1.3333    -4.0000 

 Edisp/kcal,au: -0.150382733228  -0.000239650114 
 E6   /kcal   :  -0.029660728 
 E8   /kcal   :  -0.120722006 
 % E8         :  80.276507237 

-------------------------   ----------------
Dispersion correction           -0.000239650
-------------------------   ----------------


-------------------------   --------------------
FINAL SINGLE POINT ENERGY      -115.738050697831
-------------------------   --------------------

                                *** OPTIMIZATION RUN DONE ***

                            ***************************************
                            *     ORCA property calculations      *
                            ***************************************

                                    ---------------------
                                    Active property flags
                                    ---------------------
   (+) Dipole Moment


------------------------------------------------------------------------------
                       ORCA ELECTRIC PROPERTIES CALCULATION
------------------------------------------------------------------------------

Dipole Moment Calculation                       ... on
Quadrupole Moment Calculation                   ... off
Polarizability Calculation                      ... off
GBWName                                         ... 0_geo_opt.gbw
Electron density file                           ... 0_geo_opt.scfp.tmp
The origin for moment calculation is the CENTER OF MASS  = ( 7.033311, -2.140096  1.369314)

-------------
DIPOLE MOMENT
-------------
                                X             Y             Z
Electronic contribution:      1.75533      -0.02841       0.41977
Nuclear contribution   :     -2.06660       0.47596      -0.81771
                        -----------------------------------------
Total Dipole Moment    :     -0.31127       0.44755      -0.39794
                        -----------------------------------------
Magnitude (a.u.)       :      0.67494
Magnitude (Debye)      :      1.71556



--------------------
Rotational spectrum 
--------------------
 
Rotational constants in cm-1:     4.292666     0.832859     0.804026 
Rotational constants in MHz : 128690.880017 24968.498211 24104.090724 

 Dipole components along the rotational axes: 
x,y,z [a.u.] :    -0.334426     0.586259    -0.000005 
x,y,z [Debye]:    -0.850044     1.490153    -0.000013 

 
------------------------------------------------------------------------------
                      ORCA CHELPG CHARGES GENERATION
------------------------------------------------------------------------------

GBW file                           ... 0_geo_opt.gbw

Reading the GBW file               ... done

Grid spacing                       ...     0.300000
Point Cut-Off                      ...     2.800000
Van-der-Waals Radii                ...        COSMO
Total charge                       ...            0


Number of points X direction       ...           26
Number of points Y direction       ...           24
Number of points Z direction       ...           24
Maximum number of possible points  ...        14976
Final number of points             ...         5948


CHELPG Charges            
--------------------------------
  0   C   :       0.092700
  1   O   :      -0.606898
  2   H   :       0.403810
  3   H   :       0.014733
  4   H   :       0.081379
  5   H   :       0.014275
--------------------------------
Total charge:     0.000000
--------------------------------

CHELPG charges calculated...

Timings for individual parts in CHELPG calculation:
Grid generation                 ...        0.002 sec (=   0.000 min)
Potential calculation           ...        0.688 sec (=   0.011 min)
Fit to the potential            ...        0.001 sec (=   0.000 min)
------------------------------------------------------------------------------


Timings for individual modules:

Sum of individual times         ...       32.850 sec (=   0.548 min)
GTO integral calculation        ...        6.453 sec (=   0.108 min)  19.6 %
SCF iterations                  ...       16.860 sec (=   0.281 min)  51.3 %
SCF Gradient evaluation         ...        3.172 sec (=   0.053 min)   9.7 %
Geometry relaxation             ...        2.516 sec (=   0.042 min)   7.7 %
CHELPG charge generation        ...        3.849 sec (=   0.064 min)  11.7 %
                             ****ORCA TERMINATED NORMALLY****
TOTAL RUN TIME: 0 days 0 hours 0 minutes 38 seconds 680 msec
