LAMMPS data file via vdw_self_gen.py, on 2021-08-05 13:23:03.544877

9000 atoms
7 atom types
8500 bonds
6 bond types
14500 angles
9 angle types
14000 dihedrals
6 dihedral types

-58.5667992987215626  58.5667992987215626 xlo xhi
-58.5667992987215626  58.5667992987215626 ylo yhi
-58.5667992987215626  58.5667992987215626 zlo zhi

Masses

1  1.007940
2  1.007940
3  12.011000
4  12.011000
5  12.011000
6  15.999400
7  15.999400

Atoms

1         0    4   -0.1186820000000000   46.7085845094606071 -3.8482350628528779   31.6436495569202734 0 0 0
2         0    3    0.2337370000000000   47.4682689363439039 -5.1627749070885258   31.6287543943525549 0 0 0
3         0    6   -0.1585280000000000   46.5982790594931089 -6.2836239132063145   31.4028067243891122 0 0 0
4         0    5    0.4170560000000000   45.7738779987598363 -6.5881148854518177   32.4354923907381902 0 0 0
5         0    7   -0.4637960000000000   45.6387614938029458 -5.9266919517666796   33.4624437569593880 0 0 0
6         0    6   -0.1585280000000000   45.2036560814587816 -7.7962298921179283   32.2007085578244698 0 0 0
7         0    3    0.2337370000000000   44.7377527010429219 -8.4551709145612719   33.3905164292299261 0 0 0
8         0    4   -0.1186820000000000   43.2347442621225042 -8.6429465679238024   33.3740750108518895 0 0 0
9         0    1    0.0285690000000000   47.3946235196767560 -3.0069440858508596   31.7675971017795327 0 0 0
10        0    1    0.0285690000000000   45.9805393956371233 -3.8043619236947599   32.4586558241956595 0 0 0
11        0    1    0.0285690000000000   46.1455422544423044 -3.7260593919078349   30.7139210490788557 0 0 0
12        0    2   -0.0094320000000000   48.0494632382878422 -5.3094700526312888   32.5470083234277752 0 0 0
13        0    2   -0.0094320000000000   48.1874445828428932 -5.1497725023222847   30.8000122815375619 0 0 0
14        0    2   -0.0094320000000000   45.0291742010611600 -7.9329152716436280   34.3035224651726267 0 0 0
15        0    2   -0.0094320000000000   45.2326211034948855 -9.4299548384827059   33.4122287142081120 0 0 0
16        0    1    0.0285690000000000   42.7178097205342908 -7.6788615642040874   33.4044218577348531 0 0 0
17        0    1    0.0285690000000000   42.9298300297867783 -9.2255943522545749   34.2500380329787149 0 0 0
18        0    1    0.0285690000000000   42.9042170938532195 -9.1658765194818841   32.4721405158361165 0 0 0
19        1    4   -0.1186820000000000  -30.7891213989590291  17.6596622300512252 -4.8695639400374091  0 0 0
20        1    3    0.2337370000000000  -31.9653036087830102  17.2084193766120102 -5.7171089789076834  0 0 0
21        1    6   -0.1585280000000000  -32.1565523950287755  18.0526754282545596 -6.8637967528568353  0 0 0
22        1    5    0.4170560000000000  -32.6251732094520577  19.2954057931623346 -6.5902874860568845  0 0 0
23        1    7   -0.4637960000000000  -32.7773849882036856  19.7718961425846373 -5.4677214982340399  0 0 0
24        1    6   -0.1585280000000000  -33.0011951506495933  19.8882267020996295 -7.7508861342401403  0 0 0
25        1    3    0.2337370000000000  -33.9558387493743581  20.9485659681941634 -7.5741144114111485  0 0 0
26        1    4   -0.1186820000000000  -33.3938632393128358  22.2858981892596617 -8.0103373364060531  0 0 0
27        1    1    0.0285690000000000  -30.6319951353810858  16.9762663818596593 -4.0316710606258663  0 0 0
28        1    1    0.0285690000000000  -30.9415355509422021  18.6606536848478655 -4.4560475685364134  0 0 0
29        1    1    0.0285690000000000  -29.8809121355864917  17.7068678245535907 -5.4772366641019223  0 0 0
30        1    2   -0.0094320000000000  -32.8902763221953478  17.1442054436641520 -5.1316189184814007  0 0 0
31        1    2   -0.0094320000000000  -31.7638037410048817  16.1994133604050745 -6.0985546829647745  0 0 0
32        1    2   -0.0094320000000000  -34.3176213928874532  21.0235152777208789 -6.5471025376949061  0 0 0
33        1    2   -0.0094320000000000  -34.8177422110943695  20.6887407639502747 -8.1947456572525699  0 0 0
34        1    1    0.0285690000000000  -32.5613145393634440  22.5905595986708008 -7.3687407079640135  0 0 0
35        1    1    0.0285690000000000  -34.1764638335984046  23.0495329875734072 -7.9458350075473287  0 0 0
36        1    1    0.0285690000000000  -33.0218953853985795  22.2502906388654544 -9.0382292541237472  0 0 0
37        2    4   -0.1186820000000000  -31.0487163770023926 -48.0639521901129925 -18.6964982884157287 0 0 0
38        2    3    0.2337370000000000  -31.9324972022376947 -47.9554138357708979 -19.9263389996393947 0 0 0
39        2    6   -0.1585280000000000  -31.9299139557904610 -46.6272938594575379 -20.4743607923221305 0 0 0
40        2    5    0.4170560000000000  -32.5783450768020870 -45.6975977912404190 -19.7300531619398818 0 0 0
41        2    7   -0.4637960000000000  -33.0451997765231766 -45.8779355826944055 -18.6076045680070337 0 0 0
42        2    6   -0.1585280000000000  -32.7243207039660007 -44.5685400027934264 -20.4674390711633265 0 0 0
43        2    3    0.2337370000000000  -33.7993343533256478 -43.7239758317779277 -20.0225019783880072 0 0 0
44        2    4   -0.1186820000000000  -33.2925341817416509 -42.3802931563594001 -19.5405944794190383 0 0 0
45        2    1    0.0285690000000000  -31.0268534707536467 -49.0915672205187548 -18.3259414263627889 0 0 0
46        2    1    0.0285690000000000  -31.4003129519671162 -47.4255439733808402 -17.8810079125792392 0 0 0
47        2    1    0.0285690000000000  -30.0311517165302924 -47.7391994854799719 -18.9319476808376059 0 0 0
48        2    2   -0.0094320000000000  -32.9591179442734727 -48.2822845841218111 -19.7221285040853864 0 0 0
49        2    2   -0.0094320000000000  -31.5404059199189106 -48.6194160860796103 -20.7070832602744517 0 0 0
50        2    2   -0.0094320000000000  -34.4032855563241853 -44.1869255553440965 -19.2400839528117586 0 0 0
51        2    2   -0.0094320000000000  -34.4545114095377087 -43.5845040005134834 -20.8867128847627406 0 0 0
52        2    1    0.0285690000000000  -32.6754318147349423 -42.4915817616737428 -18.6437100605768400 0 0 0
53        2    1    0.0285690000000000  -34.1433876236130445 -41.7353044154259578 -19.2960535005940201 0 0 0
54        2    1    0.0285690000000000  -32.6826729521731778 -41.8838608493565943 -20.3007352701500103 0 0 0
55        3    4   -0.1186820000000000   5.5963645456141844   9.2206497770694540  -31.5292861086969829 0 0 0
56        3    3    0.2337370000000000   6.8108504059428672   8.9969783724016548  -32.4126617333299265 0 0 0
57        3    6   -0.1585280000000000   6.6397792662518658   7.8688601447666446  -33.2857717834052167 0 0 0
58        3    5    0.4170560000000000   6.6640033623435562   6.6594464877319073  -32.6729721865169651 0 0 0
59        3    7   -0.4637960000000000   6.6997973185991588   6.4729271234806971  -31.4587666046014078 0 0 0
60        3    6   -0.1585280000000000   6.7521665821888357   5.6901465879740298  -33.6176961162953276 0 0 0
61        3    3    0.2337370000000000   7.2898493088395444   4.4513158558207859  -33.1246365820257722 0 0 0
62        3    4   -0.1186820000000000   6.2791804076552795   3.3267413800168670  -33.2165332862611038 0 0 0
63        3    1    0.0285690000000000   5.7280329034537569   10.1108692723105911 -30.9096445032213332 0 0 0
64        3    1    0.0285690000000000   5.4148954076309836   8.3752111001773155  -30.8595756105154955 0 0 0
65        3    1    0.0285690000000000   4.6977641153515624   9.3326557549924694  -32.1427276311270660 0 0 0
66        3    2   -0.0094320000000000   7.7298925932985005   8.8886523273979776  -31.8243391292814124 0 0 0
67        3    2   -0.0094320000000000   6.9507329027439759   9.8750602572742920  -33.0557801152373401 0 0 0
68        3    2   -0.0094320000000000   7.6557395601596578   4.5287360456276549  -32.0992644997555416 0 0 0
69        3    2   -0.0094320000000000   8.1553899357204447   4.2237280580848013  -33.7528189400559029 0 0 0
70        3    1    0.0285690000000000   5.4267483814658224   3.5093056033904126  -32.5549956147180950 0 0 0
71        3    1    0.0285690000000000   6.7522917682317942   2.3851289771683861  -32.9177121539840343 0 0 0
72        3    1    0.0285690000000000   5.8901198319513188   3.2171854717571859  -34.2328103881867136 0 0 0
73        4    4   -0.1186820000000000  -18.8971049859116107 -21.1971243872545223 -8.9592305755391877  0 0 0
74        4    3    0.2337370000000000  -20.1132181415315685 -21.3953042372611790 -8.0720153614116228  0 0 0
75        4    6   -0.1585280000000000  -20.5562225834789842 -20.1614816035486122 -7.4840816892568052  0 0 0
76        4    5    0.4170560000000000  -19.7406848226082339 -19.6566269274260286 -6.5255351524673380  0 0 0
77        4    7   -0.4637960000000000  -18.6348584919032589 -20.0981870853191751 -6.2213335269277144  0 0 0
78        4    6   -0.1585280000000000  -20.3877101335576185 -18.6527910742521996 -5.8825031319787700  0 0 0
79        4    3    0.2337370000000000  -19.8765121437035646 -18.3877315188458788 -4.5651831066785498  0 0 0
80        4    4   -0.1186820000000000  -19.2923850410456232 -16.9939450417342854 -4.4616496924526690  0 0 0
81        4    1    0.0285690000000000  -18.6076834693763224 -22.1377713477524551 -9.4337845839222272  0 0 0
82        4    1    0.0285690000000000  -18.0337897492512838 -20.8311836354466138 -8.3962173215953921  0 0 0
83        4    1    0.0285690000000000  -19.1083499073583809 -20.4497148564474180 -9.7293559875479367  0 0 0
84        4    2   -0.0094320000000000  -19.9332662880060134 -22.1463556554203933 -7.2935324404083781  0 0 0
85        4    2   -0.0094320000000000  -20.9439554844580726 -21.7692122340772656 -8.6837869197439783  0 0 0
86        4    2   -0.0094320000000000  -19.1314381768276185 -19.1190221803842206 -4.2468496005398322  0 0 0
87        4    2   -0.0094320000000000  -20.7260982539378844 -18.4848708243624493 -3.8837601440329736  0 0 0
88        4    1    0.0285690000000000  -18.4079645155185432 -16.8901483705421498 -5.0977540320667218  0 0 0
89        4    1    0.0285690000000000  -18.9968996075092633 -16.7977900886050193 -3.4253225535960783  0 0 0
90        4    1    0.0285690000000000  -20.0126539963455308 -16.2315347236495029 -4.7717027772769622  0 0 0
91        5    4   -0.1186820000000000   3.7233772006118042   33.4587318723864016 -5.7282887851746338  0 0 0
92        5    3    0.2337370000000000   4.0298316667479490   32.1392502390008801 -6.4141540603879950  0 0 0
93        5    6   -0.1585280000000000   5.3234485502821576   31.6316937898033999 -6.0492170255267856  0 0 0
94        5    5    0.4170560000000000   6.3750340039411348   32.3220608914688512 -6.5555300168581212  0 0 0
95        5    7   -0.4637960000000000   6.3039638721597751   33.3783342907774880 -7.1797106141066749  0 0 0
96        5    6   -0.1585280000000000   7.5084655691885027   31.6040020812951177 -6.3566763406719060  0 0 0
97        5    3    0.2337370000000000   8.5737696239095627   31.9459208742676353 -7.2595222919875670  0 0 0
98        5    4   -0.1186820000000000   9.7677639205654287   32.5192758581123726 -6.5245351725401335  0 0 0
99        5    1    0.0285690000000000   2.7171089630962397   33.8010820612335863 -5.9812781283565482  0 0 0
100       5    1    0.0285690000000000   4.4240699532342020   34.2457885290553179 -6.0211731333661929  0 0 0
101       5    1    0.0285690000000000   3.8099513163757668   33.3502825325007421 -4.6433545765895943  0 0 0
102       5    2   -0.0094320000000000   3.9432661627600889   32.2155832169786294 -7.5046476415668888  0 0 0
103       5    2   -0.0094320000000000   3.2950273374348802   31.3906326265743090 -6.0919267639224159  0 0 0
104       5    2   -0.0094320000000000   8.2586571843029120   32.6410971475702709 -8.0397091723836773  0 0 0
105       5    2   -0.0094320000000000   8.8583984281832393   31.0165414079676189 -7.7603317455701015  0 0 0
106       5    1    0.0285690000000000   9.5191675718965278   33.4775152472646695 -6.0580812366520016  0 0 0
107       5    1    0.0285690000000000   10.5881582271422872  32.6823851662199303 -7.2317203541898554  0 0 0
108       5    1    0.0285690000000000   10.1141390456106670  31.8478151547384059 -5.7337415375920200  0 0 0
109       6    4   -0.1186820000000000  -34.9585169274106988 -19.1777053876762409 -34.3330534426694385 0 0 0
110       6    3    0.2337370000000000  -33.6648393181167620 -18.3961283635079980 -34.4775971900396954 0 0 0
111       6    6   -0.1585280000000000  -32.5247702086746173 -19.1609927111480971 -34.0539674161747286 0 0 0
112       6    5    0.4170560000000000  -32.4368245353455791 -19.3681224845059567 -32.7167485252928287 0 0 0
113       6    7   -0.4637960000000000  -33.2913656763893400 -19.0636916233025353 -31.8876241891944474 0 0 0
114       6    6   -0.1585280000000000  -31.2083502074750072 -19.8662016661567691 -32.4293701909163588 0 0 0
115       6    3    0.2337370000000000  -30.8033273670675172 -19.6518385723258042 -31.0666827856206851 0 0 0
116       6    4   -0.1186820000000000  -30.6217970478145247 -20.9598353353921745 -30.3245536899103953 0 0 0
117       6    1    0.0285690000000000  -35.8049495805413116 -18.5961816086887630 -34.7061015408905575 0 0 0
118       6    1    0.0285690000000000  -35.1678030889671192 -19.4355461967477119 -33.2909751463987860 0 0 0
119       6    1    0.0285690000000000  -34.8937990295461162 -20.1214236030514435 -34.8821855738227953 0 0 0
120       6    2   -0.0094320000000000  -33.7031650558563740 -17.4396236866377912 -33.9426892525849127 0 0 0
121       6    2   -0.0094320000000000  -33.5085492224810153 -18.1578476817083541 -35.5373103046548167 0 0 0
122       6    2   -0.0094320000000000  -31.4970447320432427 -19.0142343729768051 -30.5157975240610106 0 0 0
123       6    2   -0.0094320000000000  -29.8508472780683363 -19.1168400228789999 -31.1128140066096037 0 0 0
124       6    1    0.0285690000000000  -31.5743257090935963 -21.4886188720324292 -30.2212131527522700 0 0 0
125       6    1    0.0285690000000000  -30.2279284483583837 -20.7595255048934710 -29.3223033000536333 0 0 0
126       6    1    0.0285690000000000  -29.9297895539660885 -21.6264380986980456 -30.8470057555686701 0 0 0
127       7    4   -0.1186820000000000  -44.5240289062026804 -20.1573536222051679  35.3205209989262769 0 0 0
128       7    3    0.2337370000000000  -44.3897725835291226 -21.0828465976185591  34.1243624439333999 0 0 0
129       7    6   -0.1585280000000000  -44.2814611451428490 -20.3543070339619092  32.8907758168975519 0 0 0
130       7    5    0.4170560000000000  -45.4189635324067353 -19.7364549272875820  32.4868715710086917 0 0 0
131       7    7   -0.4637960000000000  -46.4600771012658313 -19.6585710708564925  33.1352406922235332 0 0 0
132       7    6   -0.1585280000000000  -45.2582899736515216 -19.3125530610923946  31.2084703945960733 0 0 0
133       7    3    0.2337370000000000  -46.4970756674814893 -19.1178346159170260  30.5053297730482278 0 0 0
134       7    4   -0.1186820000000000  -46.6943618144083601 -17.6688891909971808  30.1101086760220547 0 0 0
135       7    1    0.0285690000000000  -44.5554237481537996 -20.7300370642519809  36.2504839360932749 0 0 0
136       7    1    0.0285690000000000  -45.4351708710488751 -19.5542675914748614  35.2723824983869392 0 0 0
137       7    1    0.0285690000000000  -43.6854841261374958 -19.4557957507887345  35.3521086338339359 0 0 0
138       7    2   -0.0094320000000000  -45.2141621572273138 -21.8039696545375818  34.0708841477987008 0 0 0
139       7    2   -0.0094320000000000  -43.4667730047171190 -21.6673520778279141  34.2274220563822453 0 0 0
140       7    2   -0.0094320000000000  -47.3632348784188792 -19.4610267888072777  31.0738760092288899 0 0 0
141       7    2   -0.0094320000000000  -46.4397372102490493 -19.7417137643868266  29.6091953150416174 0 0 0
142       7    1    0.0285690000000000  -46.8062918447701932 -17.0323158954570069  30.9931988489423134 0 0 0
143       7    1    0.0285690000000000  -47.6001308328939388 -17.5764533634406632  29.5011748136563519 0 0 0
144       7    1    0.0285690000000000  -45.8447507843966093 -17.2890537214202027  29.5355863611955414 0 0 0
145       8    4   -0.1186820000000000   32.9834539457137979  29.6504561095706762  31.7153178868504178 0 0 0
146       8    3    0.2337370000000000   31.6416537316133315  30.3592570500040644  31.6650117373188742 0 0 0
147       8    6   -0.1585280000000000   31.7861327806756684  31.7656283892116491  31.4091158785451974 0 0 0
148       8    5    0.4170560000000000   32.3077247153024487  32.4851471440111794  32.4333356605373311 0 0 0
149       8    7   -0.4637960000000000   32.7588893223022524  32.0202801541065227  33.4777087044194985 0 0 0
150       8    6   -0.1585280000000000   32.1520564917111358  33.8058436654165604  32.1662280885524936 0 0 0
151       8    3    0.2337370000000000   32.1793842221766297  34.6384544545376798  33.3379466856510973 0 0 0
152       8    4   -0.1186820000000000   33.3528615502276296  35.5960874591178253  33.3166306637648759 0 0 0
153       8    1    0.0285690000000000   32.8476833868142606  28.5762564071677296  31.8617568847079440 0 0 0
154       8    1    0.0285690000000000   33.6116918049760542  30.0188541992394349  32.5312895747893975 0 0 0
155       8    1    0.0285690000000000   33.5386416794595732  29.8252222832136695  30.7892714848551350 0 0 0
156       8    2   -0.0094320000000000   31.0582263661067266  30.1953406608925867  32.5789266606890209 0 0 0
157       8    2   -0.0094320000000000   31.0513505060677808  29.9471066723093031  30.8368388503703841 0 0 0
158       8    2   -0.0094320000000000   32.1969593822021238  34.0620772021283500  34.2646277772652326 0 0 0
159       8    2   -0.0094320000000000   31.2419060166534095  35.2012010789924332  33.3333960556125390 0 0 0
160       8    1    0.0285690000000000   34.3025951338840116  35.0553121646386785  33.3729364961111870 0 0 0
161       8    1    0.0285690000000000   33.2888911498714251  36.2713917488298279  34.1766505763104149 0 0 0
162       8    1    0.0285690000000000   33.3678908014573850  36.1940761438274663  32.4010033208645538 0 0 0
163       9    4   -0.1186820000000000  -5.6829866748694666  -22.3149675000438918  5.6539190734887237  0 0 0
164       9    3    0.2337370000000000  -5.4448332468117346  -21.0610337536701344  4.8315502992703543  0 0 0
165       9    6   -0.1585280000000000  -5.2547827941185501  -19.9029369588046023  5.6603626236558613  0 0 0
166       9    5    0.4170560000000000  -6.3677886196415603  -19.4650273804296532  6.2993029809031587  0 0 0
167       9    7   -0.4637960000000000  -7.4559253397352245  -20.0360827754723942  6.3141384073003968  0 0 0
168       9    6   -0.1585280000000000  -6.1175337958097522  -18.2415340997291722  6.8286942046022974  0 0 0
169       9    3    0.2337370000000000  -7.3025284069605956  -17.4639823488968347  7.0697606853104915  0 0 0
170       9    4   -0.1186820000000000  -7.4913545742564978  -17.1744297841280975  8.5445719866233585  0 0 0
171       9    1    0.0285690000000000  -5.7757957212134787  -23.1899487071876678  5.0061711337298043  0 0 0
172       9    1    0.0285690000000000  -6.5969294630347690  -22.2466936375451390  6.2507917696812507  0 0 0
173       9    1    0.0285690000000000  -4.8599428566858087  -22.4677379234557932  6.3579067473014153  0 0 0
174       9    2   -0.0094320000000000  -6.2518153519977604  -20.8859952675999949  4.1099978265396526  0 0 0
175       9    2   -0.0094320000000000  -4.5234944075677177  -21.1863074469938155  4.2487661130903041  0 0 0
176       9    2   -0.0094320000000000  -8.2038260633318352  -17.9347214022128334  6.6731188478766637  0 0 0
177       9    2   -0.0094320000000000  -7.1682769805591366  -16.5269290436057084  6.5225152970684777  0 0 0
178       9    1    0.0285690000000000  -7.6792434790484476  -18.0953827824457463  9.1050588108626336  0 0 0
179       9    1    0.0285690000000000  -8.3498806620048107  -16.5076070133649289  8.6788950853343110  0 0 0
180       9    1    0.0285690000000000  -6.6066601597959522  -16.6994779667429682  8.9780767048039944  0 0 0
181       10   4   -0.1186820000000000  -35.5460515913521959 -19.8793147298788426  19.3606126641024474 0 0 0
182       10   3    0.2337370000000000  -34.5869591993517673 -20.9193318058763360  19.9118508718135168 0 0 0
183       10   6   -0.1585280000000000  -33.4332212071681312 -20.3171837765980570  20.5205738187510960 0 0 0
184       10   5    0.4170560000000000  -32.5625298833985042 -19.7406119041063768  19.6555576101378051 0 0 0
185       10   7   -0.4637960000000000  -32.7423877805328303 -19.5969163659386787  18.4483423829106457 0 0 0
186       10   6   -0.1585280000000000  -31.4158785863091019 -19.4461352567586623  20.3175943610436924 0 0 0
187       10   3    0.2337370000000000  -30.2699416747714629 -19.3201701201981280  19.4585987958939839 0 0 0
188       10   4   -0.1186820000000000  -29.6992281948394243 -17.9173463746440795  19.4891936718299377 0 0 0
189       10   1    0.0285690000000000  -36.4375942324811319 -20.3566842172014688  18.9470269812963750 0 0 0
190       10   1    0.0285690000000000  -35.0910442447504423 -19.2824603196176412  18.5650355884584926 0 0 0
191       10   1    0.0285690000000000  -35.8390327892905134 -19.1795086435990498  20.1485035404681909 0 0 0
192       10   2   -0.0094320000000000  -34.2812370355874805 -21.6408057101952878  19.1447094737844203 0 0 0
193       10   2   -0.0094320000000000  -35.0952189927683449 -21.4922593608010857  20.6977402799391790 0 0 0
194       10   2   -0.0094320000000000  -30.4833135052221778 -19.6036940822015353  18.4264437233200908 0 0 0
195       10   2   -0.0094320000000000  -29.5281988718528723 -20.0301191177354880  19.8345773758878110 0 0 0
196       10   1    0.0285690000000000  -30.4065317354452311 -17.1959702755980395  19.0685508649597608 0 0 0
197       10   1    0.0285690000000000  -28.7790371588494587 -17.8843571656720570  18.8959630967791270 0 0 0
198       10   1    0.0285690000000000  -29.4705863032445485 -17.5979265657085406  20.5099206909528249 0 0 0
199       11   4   -0.1186820000000000   7.1864540184348931  -29.7445324672533964  7.4809533422042049  0 0 0
200       11   3    0.2337370000000000   6.6845490799018510  -30.0681783392703608  6.0849941455933179  0 0 0
201       11   6   -0.1585280000000000   5.8113800763787857  -31.2091329692428445  6.0790230878225788  0 0 0
202       11   5    0.4170560000000000   6.4196092724384890  -32.3990461938541827  6.3091432945746035  0 0 0
203       11   7   -0.4637960000000000   7.5965191894708965  -32.5512927394955867  6.6286271161228019  0 0 0
204       11   6   -0.1585280000000000   5.5491673444320675  -33.3995298429924645  6.0242193217759041  0 0 0
205       11   3    0.2337370000000000   6.1878600256213678  -34.6537486177868246  5.7311000188486494  0 0 0
206       11   4   -0.1186820000000000   5.8269303409172490  -35.7166357061755946  6.7482357933329622  0 0 0
207       11   1    0.0285690000000000   7.8080294507996566  -28.8460378220881601  7.4693611081682532  0 0 0
208       11   1    0.0285690000000000   7.7871060445958484  -30.5570436123344109  7.8995850877609390  0 0 0
209       11   1    0.0285690000000000   6.3430120051392249  -29.5960301783381752  8.1613144332394612  0 0 0
210       11   2   -0.0094320000000000   7.5096272580509824  -30.2150048167549841  5.3777568826811093  0 0 0
211       11   2   -0.0094320000000000   6.0972955235098798  -29.2197669436398222  5.7114603092822804  0 0 0
212       11   2   -0.0094320000000000   7.2738865783774029  -34.5684584662717569  5.6637993081287998  0 0 0
213       11   2   -0.0094320000000000   5.8322530893304982  -34.9523875460138100  4.7411867121347395  0 0 0
214       11   1    0.0285690000000000   6.2187397015236039  -35.4627281380716113  7.7379925905315341  0 0 0
215       11   1    0.0285690000000000   6.2577339478715395  -36.6761383418067055  6.4424167451163266  0 0 0
216       11   1    0.0285690000000000   4.7434456506488631  -35.8323002458249391  6.8424293001246745  0 0 0
217       12   4   -0.1186820000000000  -3.7864584327393649  -20.5872931044617005  46.3701330193351708 0 0 0
218       12   3    0.2337370000000000  -4.0014615337475767  -19.3948536916175378  45.4551361834648446 0 0 0
219       12   6   -0.1585280000000000  -5.2100948528958080  -18.6855460700291047  45.7718780779172434 0 0 0
220       12   5    0.4170560000000000  -6.3572969416872347  -19.3364011079246403  45.4570660169688665 0 0 0
221       12   7   -0.4637960000000000  -6.4349934083643445  -20.4925822431822802  45.0477075954843968 0 0 0
222       12   6   -0.1585280000000000  -7.3964004463293680  -18.4710288359296442  45.5629578958011692 0 0 0
223       12   3    0.2337370000000000  -8.5477713134695446  -18.8551453283472519  44.7924310316661973 0 0 0
224       12   4   -0.1186820000000000  -9.7431490551330064  -19.1418264326495198  45.6775583574626438 0 0 0
225       12   1    0.0285690000000000  -2.8389410644609088  -21.0820362473568359  46.1438078444895439 0 0 0
226       12   1    0.0285690000000000  -4.5811929507255673  -21.3316631594102475  46.2675658558902327 0 0 0
227       12   1    0.0285690000000000  -3.7903200314994376  -20.2672245566386202  47.4160201005009299 0 0 0
228       12   2   -0.0094320000000000  -3.9947080515862310  -19.6846359272844218  44.3975553558348253 0 0 0
229       12   2   -0.0094320000000000  -3.1748512272118474  -18.6862858166091712  45.5924064651540988 0 0 0
230       12   2   -0.0094320000000000  -8.3567288534594404  -19.7158589602958294  44.1490553318210814 0 0 0
231       12   2   -0.0094320000000000  -8.7686419530460675  -18.0108623612955689  44.1336652997709535 0 0 0
232       12   1    0.0285690000000000  -9.5632299869841066  -20.0166947690243653  46.3098847516018992 0 0 0
233       12   1    0.0285690000000000  -10.6204177240800295 -19.3421186332745236  45.0530224796680088 0 0 0
234       12   1    0.0285690000000000  -9.9669407700232497  -18.2987385469980985  46.3373385192698137 0 0 0
235       13   4   -0.1186820000000000  -44.9298285088478622  8.2584273325055140   47.9507630543000900 0 0 0
236       13   3    0.2337370000000000  -46.3051255753884732  7.7015762489670214   47.6285330961540865 0 0 0
237       13   6   -0.1585280000000000  -46.2276515130922903  6.4346394333549508   46.9554015303973813 0 0 0
238       13   5    0.4170560000000000  -45.7751260720612905  6.4895302236009167   45.6782957113808621 0 0 0
239       13   7   -0.4637960000000000  -45.3309485349184342  7.4895117056056595   45.1187340732699980 0 0 0
240       13   6   -0.1585280000000000  -45.9923966576704899  5.2900328225507707   45.0834698292918574 0 0 0
241       13   3    0.2337370000000000  -46.0435410295856613  5.3586982074504599   43.6483456813736481 0 0 0
242       13   4   -0.1186820000000000  -44.9221515907730335  4.5653321182707352   43.0098941493376259 0 0 0
243       13   1    0.0285690000000000  -45.0129322033007426  9.1964418896693303   48.5048438172914089 0 0 0
244       13   1    0.0285690000000000  -44.3461870428485980  8.4581875344500919   47.0476195127269392 0 0 0
245       13   1    0.0285690000000000  -44.3576538252846575  7.5360371527852426   48.5399210412043232 0 0 0
246       13   2   -0.0094320000000000  -46.9057044690414600  8.4086045842885309   47.0438002630148375 0 0 0
247       13   2   -0.0094320000000000  -46.8482325756297229  7.5277838161465898   48.5660975681683169 0 0 0
248       13   2   -0.0094320000000000  -46.0228109706789965  6.3837740648390540   43.2741168474273792 0 0 0
249       13   2   -0.0094320000000000  -47.0088881402412113  4.9354617148610505   43.3575782748618224 0 0 0
250       13   1    0.0285690000000000  -43.9472536205487856  5.0029810521944036   43.2457744242402313 0 0 0
251       13   1    0.0285690000000000  -45.0469547395866243  4.5672447641283718   41.9216924852918282 0 0 0
252       13   1    0.0285690000000000  -44.9118031126035220  3.5293339317743975   43.3603088223692623 0 0 0
253       14   4   -0.1186820000000000  -34.5519821354525121  34.8018103039976907 -19.6592685201477799 0 0 0
254       14   3    0.2337370000000000  -33.1886245973736465  34.9050568911220864 -18.9990006487420224 0 0 0
255       14   6   -0.1585280000000000  -32.2176373122124460  34.0591219792712678 -19.6360367912545364 0 0 0
256       14   5    0.4170560000000000  -32.3924884325086708  32.7298766046488154 -19.4327503766175376 0 0 0
257       14   7   -0.4637960000000000  -33.3522818604130222  32.2127562121250577 -18.8655211891741494 0 0 0
258       14   6   -0.1585280000000000  -31.2862562302908955  32.0711070304485162 -19.8594719666318511 0 0 0
259       14   3    0.2337370000000000  -31.1173281758471489  30.7767858983325269 -19.2568874321640102 0 0 0
260       14   4   -0.1186820000000000  -31.1915919502553933  29.6668981012297159 -20.2850889461450414 0 0 0
261       14   1    0.0285690000000000  -35.2610463534396814  35.4886069166519675 -19.1909509216989917 0 0 0
262       14   1    0.0285690000000000  -34.9689830068434873  33.7935206517712601 -19.5839557969712104 0 0 0
263       14   1    0.0285690000000000  -34.4738734770516828  35.0294498762959279 -20.7262351721133804 0 0 0
264       14   2   -0.0094320000000000  -33.2371597436720023  34.6891624958726226 -17.9249752718194522 0 0 0
265       14   2   -0.0094320000000000  -32.8220854018153148  35.9347752859903693 -19.0965978207776743 0 0 0
266       14   2   -0.0094320000000000  -31.8392552511515348  30.5844981905843731 -18.4612089768245227 0 0 0
267       14   2   -0.0094320000000000  -30.1281072297548178  30.7846514751108629 -18.7911086113550816 0 0 0
268       14   1    0.0285690000000000  -32.1906709988575841  29.6072940059240928 -20.7276841926931148 0 0 0
269       14   1    0.0285690000000000  -30.9695222992968588  28.7081093976774824 -19.8042858285763366 0 0 0
270       14   1    0.0285690000000000  -30.4790985309789235  29.8245116701610051 -21.0997673286227290 0 0 0
271       15   4   -0.1186820000000000   22.1044171555399700  31.0096908223129013 -19.0674844162534569 0 0 0