
                                 *****************
                                 * O   R   C   A *
                                 *****************

           --- An Ab Initio, DFT and Semiempirical electronic structure package ---

                  #######################################################
                  #                        -***-                        #
                  #          Department of theory and spectroscopy      #
                  #               Directorship: Frank Neese             #
                  #        Max Planck Institute fuer Kohlenforschung    #
                  #                Kaiser Wilhelm Platz 1               #
                  #                 D-45470 Muelheim/Ruhr               #
                  #                      Germany                        #
                  #                                                     #
                  #                  All rights reserved                #
                  #                        -***-                        #
                  #######################################################


                         Program Version 4.1.2  - RELEASE  -


 With contributions from (in alphabetic order):
   Daniel Aravena         : Magnetic Properties
   Michael Atanasov       : Ab Initio Ligand Field Theory
   Alexander A. Auer      : GIAO ZORA
   Ute Becker             : Parallelization
   Giovanni Bistoni       : ED, Open-shell LED
   Martin Brehm           : Molecular dynamics
   Dmytro Bykov           : SCF Hessian
   Vijay G. Chilkuri      : MRCI spin determinant printing
   Dipayan Datta          : RHF DLPNO-CCSD density
   Achintya Kumar Dutta   : EOM-CC, STEOM-CC
   Dmitry Ganyushin       : Spin-Orbit,Spin-Spin,Magnetic field MRCI
   Miquel Garcia          : C-PCM Hessian
   Yang Guo               : DLPNO-NEVPT2, CIM, IAO-localization
   Andreas Hansen         : Spin unrestricted coupled pair/coupled cluster methods
   Benjamin Helmich-Paris : CASSCF linear response (MC-RPA)
   Lee Huntington         : MR-EOM, pCC
   Robert Izsak           : Overlap fitted RIJCOSX, COSX-SCS-MP3, EOM
   Christian Kollmar      : KDIIS, OOCD, Brueckner-CCSD(T), CCSD density
   Simone Kossmann        : Meta GGA functionals, TD-DFT gradient, OOMP2, MP2 Hessian
   Martin Krupicka        : AUTO-CI
   Lucas Lang             : DCDCAS
   Dagmar Lenk            : GEPOL surface, SMD
   Dimitrios Liakos       : Extrapolation schemes; parallel MDCI
   Dimitrios Manganas     : ROCIS; embedding schemes
   Dimitrios Pantazis     : SARC Basis sets
   Taras Petrenko         : DFT Hessian,TD-DFT gradient, ASA, ECA, R-Raman, ABS, FL, XAS/XES, NRVS
   Peter Pinski           : DLPNO-MP2, DLPNO-MP2 Gradient
   Christoph Reimann      : Effective Core Potentials
   Marius Retegan         : Local ZFS, SOC
   Christoph Riplinger    : Optimizer, TS searches, QM/MM, DLPNO-CCSD(T), (RO)-DLPNO pert. Triples
   Tobias Risthaus        : Range-separated hybrids, TD-DFT gradient, RPA, STAB
   Michael Roemelt        : Restricted open shell CIS
   Masaaki Saitow         : Open-shell DLPNO
   Barbara Sandhoefer     : DKH picture change effects
   Avijit Sen             : IP-ROCIS
   Kantharuban Sivalingam : CASSCF convergence, NEVPT2, FIC-MRCI
   Bernardo de Souza      : ESD, SOC TD-DFT
   Georgi Stoychev        : AutoAux, RI-MP2 NMR
   Willem Van den Heuvel  : Paramagnetic NMR
   Boris Wezisla          : Elementary symmetry handling
   Frank Wennmohs         : Technical directorship


 We gratefully acknowledge several colleagues who have allowed us to
 interface, adapt or use parts of their codes:
   Stefan Grimme, W. Hujo, H. Kruse,             : VdW corrections, initial TS optimization,
                  C. Bannwarth                     DFT functionals, gCP, sTDA/sTD-DF
   Ed Valeev                                     : LibInt (2-el integral package), F12 methods
   Garnet Chan, S. Sharma, J. Yang, R. Olivares  : DMRG
   Ulf Ekstrom                                   : XCFun DFT Library
   Mihaly Kallay                                 : mrcc  (arbitrary order and MRCC methods)
   Andreas Klamt, Michael Diedenhofen            : otool_cosmo (COSMO solvation model)
   Jiri Pittner, Ondrej Demel                    : Mk-CCSD
   Frank Weinhold                                : gennbo (NPA and NBO analysis)
   Christopher J. Cramer and Donald G. Truhlar   : smd solvation model
   Lars Goerigk                                  : TD-DFT with DH, B97 family of functionals
   V. Asgeirsson, H. Jonsson                     : NEB implementation
   FAccTs GmbH                                   : IRC, NEB, NEB-TS, Multilevel


 Your calculation uses the libint2 library for the computation of 2-el integrals
 For citations please refer to: http://libint.valeyev.net

 This ORCA versions uses:
   CBLAS   interface :  Fast vector & matrix operations
   LAPACKE interface :  Fast linear algebra routines
   SCALAPACK package :  Parallel linear algebra routines


Your calculation utilizes the atom-pairwise dispersion correction
with the zero-damping scheme (D30)
Cite in your paper:
S.Grimme, J.Antony, S.Ehrlich and H.Krieg, J.Chem.Phys., 132, (2010), 154104 
   

XCFun DFT library Copyright 2009-2010 Ulf Ekstrom and contributors.
See http://admol.org/xcfun for more information. This is free soft-
ware; see the source code for copying conditions. There is ABSOLUTELY
NO WARRANTY; not even for MERCHANTABILITY or FITNESS FOR A PARTICULAR
PURPOSE. For details see the documentation. Scientific users of this 
library should cite U. Ekstrom, L. Visscher, R. Bast, A. J. Thorvald-
sen and K. Ruud; J.Chem.Theor.Comp. 2010, DOI: 10.1021/ct100117s
XCFun Version 0.99 
----- Orbital basis set information -----
Your calculation utilizes the basis: def2-TZVP
   F. Weigend and R. Ahlrichs, Phys. Chem. Chem. Phys. 7, 3297 (2005).

================================================================================
                                        WARNINGS
                       Please study these warnings very carefully!
================================================================================


INFO   : the flag for use of LIBINT has been found!

Your calculation utilizes the atom-pairwise dispersion correction
with the zero-damping scheme (D30)
Cite in your paper:
S.Grimme, J.Antony, S.Ehrlich and H.Krieg, J.Chem.Phys., 132, (2010), 154104 
   

XCFun DFT library Copyright 2009-2010 Ulf Ekstrom and contributors.
See http://admol.org/xcfun for more information. This is free soft-
ware; see the source code for copying conditions. There is ABSOLUTELY
NO WARRANTY; not even for MERCHANTABILITY or FITNESS FOR A PARTICULAR
PURPOSE. For details see the documentation. Scientific users of this 
library should cite U. Ekstrom, L. Visscher, R. Bast, A. J. Thorvald-
sen and K. Ruud; J.Chem.Theor.Comp. 2010, DOI: 10.1021/ct100117s
XCFun Version 0.99 
----- Orbital basis set information -----
Your calculation utilizes the basis: def2-TZVP
   F. Weigend and R. Ahlrichs, Phys. Chem. Chem. Phys. 7, 3297 (2005).

================================================================================
                                        WARNINGS
                       Please study these warnings very carefully!
================================================================================


WARNING: MOInp is set but Guess=PModel. MOInp will be ignored!
         To read the initial guess from a file you must also specify
         'MORead' in the simple input or 'Guess MORead' in the %scf block


INFO   : the flag for use of LIBINT has been found!

Your calculation utilizes the atom-pairwise dispersion correction
with the zero-damping scheme (D30)
Cite in your paper:
S.Grimme, J.Antony, S.Ehrlich and H.Krieg, J.Chem.Phys., 132, (2010), 154104 
   

XCFun DFT library Copyright 2009-2010 Ulf Ekstrom and contributors.
See http://admol.org/xcfun for more information. This is free soft-
ware; see the source code for copying conditions. There is ABSOLUTELY
NO WARRANTY; not even for MERCHANTABILITY or FITNESS FOR A PARTICULAR
PURPOSE. For details see the documentation. Scientific users of this 
library should cite U. Ekstrom, L. Visscher, R. Bast, A. J. Thorvald-
sen and K. Ruud; J.Chem.Theor.Comp. 2010, DOI: 10.1021/ct100117s
XCFun Version 0.99 
----- Orbital basis set information -----
Your calculation utilizes the basis: def2-TZVP
   F. Weigend and R. Ahlrichs, Phys. Chem. Chem. Phys. 7, 3297 (2005).

================================================================================
                                        WARNINGS
                       Please study these warnings very carefully!
================================================================================


WARNING: MOInp is set but Guess=PModel. MOInp will be ignored!
         To read the initial guess from a file you must also specify
         'MORead' in the simple input or 'Guess MORead' in the %scf block


INFO   : the flag for use of LIBINT has been found!

================================================================================
                                       INPUT FILE
================================================================================
NAME = 7-167.in
|  1> #Run DFT-D3 single point of the dimer
|  2> ! wB97X-D3 def2-TZVP TIGHTSCF CHELPG PMODEL PAL8
|  3> 
|  4> %base "7-167_DFT_AB"
|  5> 
|  6> %scf
|  7> MaxIter 1000
|  8> end
|  9> 
| 10> * xyz 0 1
| 11>   C                      0.571452             5.757147             -9.310984           
| 12>   O                      0.521628             4.402486             -9.201155           
| 13>   H                      0.086074             4.339337             -8.344764           
| 14>   H                      0.854972             6.019808             -10.346947          
| 15>   H                      -0.502939            6.082742             -9.134544           
| 16>   H                      1.119985             6.190823             -8.585950           
| 17>   C                      -1.555646            5.231252             -6.405208           
| 18>   O                      -0.346762            4.541400             -6.399865           
| 19>   H                      0.267018             4.970165             -5.812395           
| 20>   H                      -1.461585            6.358154             -6.598062           
| 21>   H                      -2.193016            4.839029             -7.166690           
| 22>   H                      -2.062145            5.051455             -5.484070           
| 23> *
| 24> 
| 25> #Run DFT-D3 single point of the molecule with dimer basis set
| 26> $new_job
| 27> %base "7-167_DFT_A"
| 28> ! wB97X-D3 def2-TZVP TIGHTSCF CHELPG PMODEL
| 29> 
| 30> %scf
| 31> MaxIter 1000
| 32> end
| 33> 
| 34> * xyz 0 1
| 35>   C                      0.571452             5.757147             -9.310984           
| 36>   O                      0.521628             4.402486             -9.201155           
| 37>   H                      0.086074             4.339337             -8.344764           
| 38>   H                      0.854972             6.019808             -10.346947          
| 39>   H                      -0.502939            6.082742             -9.134544           
| 40>   H                      1.119985             6.190823             -8.585950           
| 41>   C                    : -1.555646            5.231252             -6.405208           
| 42>   O                    : -0.346762            4.541400             -6.399865           
| 43>   H                    : 0.267018             4.970165             -5.812395           
| 44>   H                    : -1.461585            6.358154             -6.598062           
| 45>   H                    : -2.193016            4.839029             -7.166690           
| 46>   H                    : -2.062145            5.051455             -5.484070           
| 47> *
| 48> 
| 49> #Run DFT-D3 single point of the particle with dimer basis set
| 50> $new_job
| 51> %base "7-167_DFT_B"
| 52> ! wB97X-D3 def2-TZVP TIGHTSCF CHELPG PMODEL
| 53> 
| 54> %scf
| 55> MaxIter 1000
| 56> end
| 57> 
| 58> * xyz 0 1
| 59>   C                    : 0.571452             5.757147             -9.310984           
| 60>   O                    : 0.521628             4.402486             -9.201155           
| 61>   H                    : 0.086074             4.339337             -8.344764           
| 62>   H                    : 0.854972             6.019808             -10.346947          
| 63>   H                    : -0.502939            6.082742             -9.134544           
| 64>   H                    : 1.119985             6.190823             -8.585950           
| 65>   C                      -1.555646            5.231252             -6.405208           
| 66>   O                      -0.346762            4.541400             -6.399865           
| 67>   H                      0.267018             4.970165             -5.812395           
| 68>   H                      -1.461585            6.358154             -6.598062           
| 69>   H                      -2.193016            4.839029             -7.166690           
| 70>   H                      -2.062145            5.051455             -5.484070           
| 71> *
| 72> 
| 73>                          ****END OF INPUT****
================================================================================


                 $$$$$$$$$$$$$$$$$$$$$$$$$$$$$$$$$$$$$$$$$$$$$$ 
                 $ THERE ARE  3 JOBS TO BE PROCESSED THIS RUN $
                 $$$$$$$$$$$$$$$$$$$$$$$$$$$$$$$$$$$$$$$$$$$$$$ 




                 $$$$$$$$$$$$$$$$  JOB NUMBER  1 $$$$$$$$$$$$$$


                       ****************************
                       * Single Point Calculation *
                       ****************************

---------------------------------
CARTESIAN COORDINATES (ANGSTROEM)
---------------------------------
  C      0.571452    5.757147   -9.310984
  O      0.521628    4.402486   -9.201155
  H      0.086074    4.339337   -8.344764
  H      0.854972    6.019808  -10.346947
  H     -0.502939    6.082742   -9.134544
  H      1.119985    6.190823   -8.585950
  C     -1.555646    5.231252   -6.405208
  O     -0.346762    4.541400   -6.399865
  H      0.267018    4.970165   -5.812395
  H     -1.461585    6.358154   -6.598062
  H     -2.193016    4.839029   -7.166690
  H     -2.062145    5.051455   -5.484070

----------------------------
CARTESIAN COORDINATES (A.U.)
----------------------------
  NO LB      ZA    FRAG     MASS         X           Y           Z
   0 C     6.0000    0    12.011    1.079888   10.879431  -17.595210
   1 O     8.0000    0    15.999    0.985734    8.319493  -17.387663
   2 H     1.0000    0     1.008    0.162656    8.200159  -15.769319
   3 H     1.0000    0     1.008    1.615663   11.375788  -19.552896
   4 H     1.0000    0     1.008   -0.950417   11.494717  -17.261787
   5 H     1.0000    0     1.008    2.116465   11.698960  -16.225094
   6 C     6.0000    0    12.011   -2.939745    9.885634  -12.104089
   7 O     8.0000    0    15.999   -0.655285    8.582002  -12.093992
   8 H     1.0000    0     1.008    0.504591    9.392251  -10.983835
   9 H     1.0000    0     1.008   -2.761995   12.015170  -12.468530
  10 H     1.0000    0     1.008   -4.144200    9.144440  -13.543081
  11 H     1.0000    0     1.008   -3.896889    9.545867  -10.363390

--------------------------------
INTERNAL COORDINATES (ANGSTROEM)
--------------------------------
 C      0   0   0     0.000000000000     0.00000000     0.00000000
 O      1   0   0     1.360018847347     0.00000000     0.00000000
 H      2   1   0     0.962860648276    98.84280847     0.00000000
 H      1   2   3     1.105709604141   108.76389651   191.91460091
 H      1   2   3     1.136423863928   103.78071949   307.45261143
 H      1   2   3     1.007292224839   112.99579787    62.09631330
 C      3   2   1     2.693071555448   153.45747288    28.80557382
 O      7   3   2     1.391878175348    46.30311431   216.09392381
 H      8   7   3     0.951675530065   109.82967692   129.75832402
 H      7   3   2     1.147147878279    98.87509203   331.78876030
 H      7   3   2     1.067677027454    74.25201983    76.90912693
 H      7   3   2     1.066472415609   148.84178781   171.32179693

---------------------------
INTERNAL COORDINATES (A.U.)
---------------------------
 C      0   0   0     0.000000000000     0.00000000     0.00000000
 O      1   0   0     2.570063158456     0.00000000     0.00000000
 H      2   1   0     1.819542930371    98.84280847     0.00000000
 H      1   2   3     2.089488335473   108.76389651   191.91460091
 H      1   2   3     2.147529874877   103.78071949   307.45261143
 H      1   2   3     1.903506441774   112.99579787    62.09631330
 C      3   2   1     5.089167698849   153.45747288    28.80557382
 O      7   3   2     2.630268563189    46.30311431   216.09392381
 H      8   7   3     1.798406120178   109.82967692   129.75832402
 H      7   3   2     2.167795325057    98.87509203   331.78876030
 H      7   3   2     2.017617181367    74.25201983    76.90912693
 H      7   3   2     2.015340794882   148.84178781   171.32179693

---------------------
BASIS SET INFORMATION
---------------------
There are 3 groups of distinct atoms

 Group   1 Type C   : 11s6p2d1f contracted to 5s3p2d1f pattern {62111/411/11/1}
 Group   2 Type O   : 11s6p2d1f contracted to 5s3p2d1f pattern {62111/411/11/1}
 Group   3 Type H   : 5s1p contracted to 3s1p pattern {311/1}

Atom   0C    basis set group =>   1
Atom   1O    basis set group =>   2
Atom   2H    basis set group =>   3
Atom   3H    basis set group =>   3
Atom   4H    basis set group =>   3
Atom   5H    basis set group =>   3
Atom   6C    basis set group =>   1
Atom   7O    basis set group =>   2
Atom   8H    basis set group =>   3
Atom   9H    basis set group =>   3
Atom  10H    basis set group =>   3
Atom  11H    basis set group =>   3


           ************************************************************
           *        Program running with 8 parallel MPI-processes     *
           *              working on a common directory               *
           ************************************************************
------------------------------------------------------------------------------
                           ORCA GTO INTEGRAL CALCULATION
------------------------------------------------------------------------------

                         BASIS SET STATISTICS AND STARTUP INFO

 # of primitive gaussian shells          ...  128
 # of primitive gaussian functions       ...  248
 # of contracted shells                  ...   76
 # of contracted basis functions         ...  172
 Highest angular momentum                ...    3
 Maximum contraction depth               ...    6
 Integral package used                   ... LIBINT
 Integral threshhold            Thresh   ...  2.500e-11
 Primitive cut-off              TCut     ...  2.500e-12


------------------------------ INTEGRAL EVALUATION ----------------------------


 * One electron integrals 
 Pre-screening matrix                    ... done
 Shell pair data                         ... done (   0.001 sec)



           ************************************************************
           *        Program running with 8 parallel MPI-processes     *
           *              working on a common directory               *
           ************************************************************
-------------------------------------------------------------------------------
                                 ORCA SCF
-------------------------------------------------------------------------------

------------
SCF SETTINGS
------------
Hamiltonian:
 Density Functional     Method          .... DFT(GTOs)
 Exchange Functional    Exchange        .... WB97X-D3
 Correlation Functional Correlation     .... WB97X-D3
 Gradients option       PostSCFGGA      .... off
 Hybrid DFT is turned on
   Fraction HF Exchange ScalHFX         ....  0.195728
   Scaling of DF-GGA-X  ScalDFX         ....  0.000000
   Scaling of DF-GGA-C  ScalDFC         ....  1.000000
   Scaling of DF-LDA-C  ScalLDAC        ....  1.000000
   Perturbative correction              ....  0.000000
   Density functional embedding theory  .... OFF
 Long-range corrected/Screened/Range-Separated Hybrid DFT is turned on
   Amount of maximum screened exact exchange              ....  0.804272
   Range separation parameter mu (erf(mu*r12)/r12)        ....  0.250000


General Settings:
 Integral files         IntName         .... 7-167_DFT_AB
 Hartree-Fock type      HFTyp           .... RHF
 Total Charge           Charge          ....    0
 Multiplicity           Mult            ....    1
 Number of Electrons    NEL             ....   36
 Basis Dimension        Dim             ....  172
 Nuclear Repulsion      ENuc            ....    133.8645380926 Eh

Convergence Acceleration:
 DIIS                   CNVDIIS         .... on
   Start iteration      DIISMaxIt       ....    12
   Startup error        DIISStart       ....  0.200000
   # of expansion vecs  DIISMaxEq       ....     5
   Bias factor          DIISBfac        ....   1.050
   Max. coefficient     DIISMaxC        ....  10.000
 Newton-Raphson         CNVNR           .... off
 SOSCF                  CNVSOSCF        .... on
   Start iteration      SOSCFMaxIt      ....   150
   Startup grad/error   SOSCFStart      ....  0.003300
 Level Shifting         CNVShift        .... on
   Level shift para.    LevelShift      ....    0.2500
   Turn off err/grad.   ShiftErr        ....    0.0010
 Zerner damping         CNVZerner       .... off
 Static damping         CNVDamp         .... on
   Fraction old density DampFac         ....    0.7000
   Max. Damping (<1)    DampMax         ....    0.9800
   Min. Damping (>=0)   DampMin         ....    0.0000
   Turn off err/grad.   DampErr         ....    0.1000
 Fernandez-Rico         CNVRico         .... off

SCF Procedure:
 Maximum # iterations   MaxIter         ....  1000
 SCF integral mode      SCFMode         .... Direct
   Integral package                     .... LIBINT
 Reset frequency        DirectResetFreq ....    20
 Integral Threshold     Thresh          ....  2.500e-11 Eh
 Primitive CutOff       TCut            ....  2.500e-12 Eh

Convergence Tolerance:
 Convergence Check Mode ConvCheckMode   .... Total+1el-Energy
 Convergence forced     ConvForced      .... 0
 Energy Change          TolE            ....  1.000e-08 Eh
 1-El. energy change                    ....  1.000e-05 Eh
 Orbital Gradient       TolG            ....  1.000e-05
 Orbital Rotation angle TolX            ....  1.000e-05
 DIIS Error             TolErr          ....  5.000e-07


Diagonalization of the overlap matrix:
Smallest eigenvalue                        ... 1.285e-03
Time for diagonalization                   ...    0.003 sec
Threshold for overlap eigenvalues          ... 1.000e-08
Number of eigenvalues below threshold      ... 0
Time for construction of square roots      ...    0.005 sec
Total time needed                          ...    0.008 sec

-------------------
DFT GRID GENERATION
-------------------

General Integration Accuracy     IntAcc      ...  4.340
Radial Grid Type                 RadialGrid  ... Gauss-Chebyshev
Angular Grid (max. acc.)         AngularGrid ... Lebedev-110
Angular grid pruning method      GridPruning ... 3 (G Style)
Weight generation scheme         WeightScheme... Becke
Basis function cutoff            BFCut       ...    1.0000e-11
Integration weight cutoff        WCut        ...    1.0000e-14
Grids for H and He will be reduced by one unit

# of grid points (after initial pruning)     ...  13096 (   0.0 sec)
# of grid points (after weights+screening)   ...  12393 (   0.0 sec)
nearest neighbour list constructed           ...    0.0 sec
Grid point re-assignment to atoms done       ...    0.0 sec
Grid point division into batches done        ...    0.0 sec
Reduced shell lists constructed in    0.0 sec

Total number of grid points                  ...    12393
Total number of batches                      ...      199
Average number of points per batch           ...       62
Average number of grid points per atom       ...     1033
Average number of shells per batch           ...    52.27 (68.78%)
Average number of basis functions per batch  ...   117.42 (68.27%)
Average number of large shells per batch     ...    42.35 (81.02%)
Average number of large basis fcns per batch ...    93.73 (79.82%)
Maximum spatial batch extension              ...  25.60, 16.67, 13.72 au
Average spatial batch extension              ...   0.50,  0.48,  0.38 au

Time for grid setup =    0.036 sec

------------------------------
INITIAL GUESS: MODEL POTENTIAL
------------------------------
Loading Hartree-Fock densities                     ... done
Calculating cut-offs                               ... done
Setting up the integral package                    ... done
Initializing the effective Hamiltonian             ... done
Starting the Coulomb interaction                   ... done (   0.0 sec)
Reading the grid                                   ... done
Mapping shells                                     ... done
Starting the XC term evaluation                    ... done (   0.0 sec)
  promolecular density results
     # of electrons  =     35.995101189
     EX              =    -28.906303564
     EC              =     -1.164341458
     EX+EC           =    -30.070645021
Transforming the Hamiltonian                       ... done (   0.0 sec)
Diagonalizing the Hamiltonian                      ... done (   0.0 sec)
Back transforming the eigenvectors                 ... done (   0.0 sec)
Now organizing SCF variables                       ... done
                      ------------------
                      INITIAL GUESS DONE (   0.1 sec)
                      ------------------
--------------
SCF ITERATIONS
--------------
ITER       Energy         Delta-E        Max-DP      RMS-DP      [F,P]     Damp
               ***  Starting incremental Fock matrix formation  ***
  0   -231.2901862105   0.000000000000 0.03866616  0.00107158  0.2493757 0.7000
  1   -231.3633495648  -0.073163354327 0.02278290  0.00076794  0.1255266 0.7000
                               ***Turning on DIIS***
  2   -231.3975384266  -0.034188861743 0.03434795  0.00140880  0.0507700 0.0000
  3   -231.4529471808  -0.055408754219 0.01858911  0.00049717  0.0625835 0.0000
  4   -231.4619012842  -0.008954103425 0.00437030  0.00010083  0.0068075 0.0000
                      *** Initiating the SOSCF procedure ***
                           *** Shutting down DIIS ***
                      *** Re-Reading the Fockian *** 
                      *** Removing any level shift *** 
ITER      Energy       Delta-E        Grad      Rot      Max-DP    RMS-DP
  5   -231.46208967  -0.0001883857  0.000442  0.000442  0.000932  0.000037
               *** Restarting incremental Fock matrix formation ***
  6   -231.46210838  -0.0000187128  0.000159  0.000307  0.000799  0.000024
  7   -231.46211034  -0.0000019588  0.000058  0.000171  0.000451  0.000011
  8   -231.46211053  -0.0000001855  0.000021  0.000020  0.000038  0.000001
  9   -231.46211055  -0.0000000206  0.000008  0.000006  0.000013  0.000001
                  ***Gradient check signals convergence***
              ***Rediagonalizing the Fockian in SOSCF/NRSCF***

               *****************************************************
               *                     SUCCESS                       *
               *           SCF CONVERGED AFTER  10 CYCLES          *
               *****************************************************

Setting up the final grid:

General Integration Accuracy     IntAcc      ...  4.670
Radial Grid Type                 RadialGrid  ... Gauss-Chebyshev
Angular Grid (max. acc.)         AngularGrid ... Lebedev-302
Angular grid pruning method      GridPruning ... 3 (G Style)
Weight generation scheme         WeightScheme... Becke
Basis function cutoff            BFCut       ...    1.0000e-11
Integration weight cutoff        WCut        ...    1.0000e-14
Grids for H and He will be reduced by one unit

# of grid points (after initial pruning)     ...  52000 (   0.0 sec)
# of grid points (after weights+screening)   ...  48623 (   0.0 sec)
nearest neighbour list constructed           ...    0.0 sec
Grid point re-assignment to atoms done       ...    0.0 sec
Grid point division into batches done        ...    0.2 sec
Reduced shell lists constructed in    0.2 sec

Total number of grid points                  ...    48623
Total number of batches                      ...      766
Average number of points per batch           ...       63
Average number of grid points per atom       ...     4052
Average number of shells per batch           ...    49.77 (65.49%)
Average number of basis functions per batch  ...   110.31 (64.13%)
Average number of large shells per batch     ...    40.06 (80.49%)
Average number of large basis fcns per batch ...    88.60 (80.32%)
Maximum spatial batch extension              ...  15.83, 15.98, 14.41 au
Average spatial batch extension              ...   0.29,  0.28,  0.27 au

Final grid set up in    0.3 sec
Final integration                            ... done (   0.1 sec)
Change in XC energy                          ...     0.000110074
Integrated number of electrons               ...    36.000053314
Previous integrated no of electrons          ...    36.002173360

----------------
TOTAL SCF ENERGY
----------------

Total Energy       :         -231.46200048 Eh           -6298.40124 eV

Components:
Nuclear Repulsion  :          133.86453809 Eh            3642.63927 eV
Electronic Energy  :         -365.32653857 Eh           -9941.04051 eV
One Electron Energy:         -580.28635532 Eh          -15790.39450 eV
Two Electron Energy:          214.95981675 Eh            5849.35399 eV

Virial components:
Potential Energy   :         -462.24268533 Eh          -12578.26293 eV
Kinetic Energy     :          230.78068485 Eh            6279.86170 eV
Virial Ratio       :            2.00295222


DFT components:
N(Alpha)           :       18.000026657033 electrons
N(Beta)            :       18.000026657033 electrons
N(Total)           :       36.000053314066 electrons
E(XC)              :      -21.365098163560 Eh       
DFET-embed. en.    :        0.000000000000 Eh       

---------------
SCF CONVERGENCE
---------------

  Last Energy change         ...   -2.0204e-09  Tolerance :   1.0000e-08
  Last MAX-Density change    ...    6.4474e-06  Tolerance :   1.0000e-07
  Last RMS-Density change    ...    1.7227e-07  Tolerance :   5.0000e-09
  Last Orbital Gradient      ...    2.4242e-06  Tolerance :   1.0000e-05
  Last Orbital Rotation      ...    2.4845e-06  Tolerance :   1.0000e-05

             **** THE GBW FILE WAS UPDATED (7-167_DFT_AB.gbw) ****
             **** DENSITY FILE WAS UPDATED (7-167_DFT_AB.scfp.tmp) ****
             **** ENERGY FILE WAS UPDATED (7-167_DFT_AB.en.tmp) ****
----------------
ORBITAL ENERGIES
----------------

  NO   OCC          E(Eh)            E(eV) 
   0   2.0000     -19.258554      -524.0519 
   1   2.0000     -19.202969      -522.5394 
   2   2.0000     -10.329264      -281.0736 
   3   2.0000     -10.292468      -280.0723 
   4   2.0000      -1.172842       -31.9147 
   5   2.0000      -1.137225       -30.9455 
   6   2.0000      -0.819014       -22.2865 
   7   2.0000      -0.774121       -21.0649 
   8   2.0000      -0.640653       -17.4330 
   9   2.0000      -0.612302       -16.6616 
  10   2.0000      -0.564305       -15.3555 
  11   2.0000      -0.556053       -15.1310 
  12   2.0000      -0.539946       -14.6927 
  13   2.0000      -0.512776       -13.9533 
  14   2.0000      -0.456482       -12.4215 
  15   2.0000      -0.422839       -11.5060 
  16   2.0000      -0.396410       -10.7869 
  17   2.0000      -0.347690        -9.4611 
  18   0.0000       0.093343         2.5400 
  19   0.0000       0.134781         3.6676 
  20   0.0000       0.162772         4.4293 
  21   0.0000       0.166163         4.5215 
  22   0.0000       0.191990         5.2243 
  23   0.0000       0.208409         5.6711 
  24   0.0000       0.214361         5.8330 
  25   0.0000       0.217811         5.9269 
  26   0.0000       0.231063         6.2875 
  27   0.0000       0.287269         7.8170 
  28   0.0000       0.301576         8.2063 
  29   0.0000       0.305155         8.3037 
  30   0.0000       0.311097         8.4654 
  31   0.0000       0.378397        10.2967 
  32   0.0000       0.418597        11.3906 
  33   0.0000       0.429968        11.7000 
  34   0.0000       0.445625        12.1261 
  35   0.0000       0.477938        13.0053 
  36   0.0000       0.490553        13.3486 
  37   0.0000       0.518902        14.1200 
  38   0.0000       0.519697        14.1417 
  39   0.0000       0.544438        14.8149 
  40   0.0000       0.549039        14.9401 
  41   0.0000       0.553727        15.0677 
  42   0.0000       0.580781        15.8038 
  43   0.0000       0.594611        16.1802 
  44   0.0000       0.614628        16.7249 
  45   0.0000       0.635356        17.2889 
  46   0.0000       0.679812        18.4986 
  47   0.0000       0.686374        18.6772 
  48   0.0000       0.704648        19.1745 
  49   0.0000       0.783362        21.3164 
  50   0.0000       0.791227        21.5304 
  51   0.0000       0.812147        22.0997 
  52   0.0000       0.839700        22.8494 
  53   0.0000       0.854742        23.2587 
  54   0.0000       0.889691        24.2097 
  55   0.0000       0.945195        25.7201 
  56   0.0000       1.001952        27.2645 
  57   0.0000       1.007304        27.4101 
  58   0.0000       1.020950        27.7815 
  59   0.0000       1.104034        30.0423 
  60   0.0000       1.116233        30.3742 
  61   0.0000       1.156358        31.4661 
  62   0.0000       1.373154        37.3654 
  63   0.0000       1.408777        38.3348 
  64   0.0000       1.498834        40.7854 
  65   0.0000       1.519945        41.3598 
  66   0.0000       1.539171        41.8830 
  67   0.0000       1.563021        42.5320 
  68   0.0000       1.588162        43.2161 
  69   0.0000       1.604749        43.6674 
  70   0.0000       1.628969        44.3265 
  71   0.0000       1.643446        44.7204 
  72   0.0000       1.653712        44.9998 
  73   0.0000       1.667026        45.3621 
  74   0.0000       1.685609        45.8677 
  75   0.0000       1.705856        46.4187 
  76   0.0000       1.739712        47.3400 
  77   0.0000       1.773573        48.2614 
  78   0.0000       1.804304        49.0976 
  79   0.0000       1.890784        51.4509 
  80   0.0000       1.953575        53.1595 
  81   0.0000       1.999112        54.3986 
  82   0.0000       2.014260        54.8108 
  83   0.0000       2.041104        55.5413 
  84   0.0000       2.056817        55.9688 
  85   0.0000       2.069190        56.3055 
  86   0.0000       2.090606        56.8883 
  87   0.0000       2.101685        57.1898 
  88   0.0000       2.177397        59.2500 
  89   0.0000       2.229606        60.6707 
  90   0.0000       2.258516        61.4573 
  91   0.0000       2.312939        62.9383 
  92   0.0000       2.324473        63.2521 
  93   0.0000       2.340415        63.6859 
  94   0.0000       2.378933        64.7340 
  95   0.0000       2.390188        65.0403 
  96   0.0000       2.406536        65.4852 
  97   0.0000       2.427211        66.0478 
  98   0.0000       2.485958        67.6464 
  99   0.0000       2.521033        68.6008 
 100   0.0000       2.549047        69.3631 
 101   0.0000       2.565966        69.8235 
 102   0.0000       2.585253        70.3483 
 103   0.0000       2.650728        72.1300 
 104   0.0000       2.656671        72.2917 
 105   0.0000       2.685854        73.0858 
 106   0.0000       2.718673        73.9789 
 107   0.0000       2.750894        74.8556 
 108   0.0000       2.846997        77.4707 
 109   0.0000       2.895039        78.7780 
 110   0.0000       2.899089        78.8882 
 111   0.0000       2.911217        79.2183 
 112   0.0000       2.939003        79.9744 
 113   0.0000       2.975963        80.9801 
 114   0.0000       3.001934        81.6868 
 115   0.0000       3.096104        84.2493 
 116   0.0000       3.129332        85.1535 
 117   0.0000       3.166848        86.1743 
 118   0.0000       3.191306        86.8398 
 119   0.0000       3.210896        87.3729 
 120   0.0000       3.283403        89.3459 
 121   0.0000       3.369063        91.6769 
 122   0.0000       3.376354        91.8753 
 123   0.0000       3.425805        93.2209 
 124   0.0000       3.460652        94.1691 
 125   0.0000       3.473867        94.5287 
 126   0.0000       3.498578        95.2011 
 127   0.0000       3.527532        95.9890 
 128   0.0000       3.604973        98.0963 
 129   0.0000       3.645878        99.2094 
 130   0.0000       3.669811        99.8606 
 131   0.0000       3.691505       100.4510 
 132   0.0000       3.715681       101.1088 
 133   0.0000       3.750768       102.0636 
 134   0.0000       4.010934       109.1431 
 135   0.0000       4.082004       111.0770 
 136   0.0000       4.188920       113.9863 
 137   0.0000       4.262831       115.9975 
 138   0.0000       4.305527       117.1593 
 139   0.0000       4.356292       118.5407 
 140   0.0000       4.424003       120.3832 
 141   0.0000       4.485271       122.0504 
 142   0.0000       4.580154       124.6323 
 143   0.0000       4.605902       125.3330 
 144   0.0000       5.332539       145.1058 
 145   0.0000       5.408359       147.1689 
 146   0.0000       5.445559       148.1812 
 147   0.0000       5.544950       150.8858 
 148   0.0000       5.562846       151.3727 
 149   0.0000       5.584961       151.9745 
 150   0.0000       5.818175       158.3206 
 151   0.0000       5.837750       158.8532 
 152   0.0000       5.842159       158.9732 
 153   0.0000       5.954527       162.0309 
 154   0.0000       5.992109       163.0536 
 155   0.0000       6.136453       166.9814 
 156   0.0000       6.355580       172.9441 
 157   0.0000       6.384213       173.7233 
 158   0.0000       6.566032       178.6708 
 159   0.0000       6.612627       179.9387 
 160   0.0000       6.738083       183.3525 
 161   0.0000       6.804663       185.1643 
 162   0.0000       6.827936       185.7976 
 163   0.0000       6.879072       187.1891 
 164   0.0000       7.026948       191.2130 
 165   0.0000       7.049041       191.8142 
 166   0.0000       7.205534       196.0726 
 167   0.0000       7.303305       198.7330 
 168   0.0000      22.485523       611.8622 
 169   0.0000      22.624771       615.6513 
 170   0.0000      43.689815      1188.8603 
 171   0.0000      43.808905      1192.1009 

                    ********************************
                    * MULLIKEN POPULATION ANALYSIS *
                    ********************************

-----------------------
MULLIKEN ATOMIC CHARGES
-----------------------
   0 C :   -0.164032
   1 O :   -0.454482
   2 H :    0.323051
   3 H :    0.109909
   4 H :    0.071254
   5 H :    0.094544
   6 C :   -0.203762
   7 O :   -0.494043
   8 H :    0.331063
   9 H :    0.118900
  10 H :    0.141656
  11 H :    0.125942
Sum of atomic charges:    0.0000000

--------------------------------
MULLIKEN REDUCED ORBITAL CHARGES
--------------------------------
  0 C s       :     3.211242  s :     3.211242
      pz      :     1.085727  p :     2.835653
      px      :     1.041913
      py      :     0.708013
      dz2     :     0.012560  d :     0.108214
      dxz     :     0.003954
      dyz     :     0.036436
      dx2y2   :     0.013118
      dxy     :     0.042147
      f0      :     0.001254  f :     0.008923
      f+1     :     0.000523
      f-1     :     0.000925
      f+2     :     0.001657
      f-2     :     0.000047
      f+3     :     0.003106
      f-3     :     0.001411
  1 O s       :     3.791897  s :     3.791897
      pz      :     1.495453  p :     4.627400
      px      :     1.788810
      py      :     1.343138
      dz2     :     0.008399  d :     0.033495
      dxz     :     0.005049
      dyz     :     0.005520
      dx2y2   :     0.008946
      dxy     :     0.005581
      f0      :     0.000183  f :     0.001689
      f+1     :     0.000499
      f-1     :     0.000080
      f+2     :     0.000249
      f-2     :     0.000041
      f+3     :     0.000289
      f-3     :     0.000348
  2 H s       :     0.624830  s :     0.624830
      pz      :     0.024477  p :     0.052119
      px      :     0.017127
      py      :     0.010515
  3 H s       :     0.870448  s :     0.870448
      pz      :     0.011988  p :     0.019643
      px      :     0.004430
      py      :     0.003225
  4 H s       :     0.910108  s :     0.910108
      pz      :     0.003501  p :     0.018638
      px      :     0.011246
      py      :     0.003891
  5 H s       :     0.883812  s :     0.883812
      pz      :     0.008582  p :     0.021643
      px      :     0.007520
      py      :     0.005541
  6 C s       :     3.237062  s :     3.237062
      pz      :     1.115875  p :     2.861365
      px      :     0.777281
      py      :     0.968209
      dz2     :     0.008372  d :     0.097377
      dxz     :     0.035863
      dyz     :     0.005827
      dx2y2   :     0.028661
      dxy     :     0.018654
      f0      :     0.001036  f :     0.007959
      f+1     :     0.001030
      f-1     :     0.000341
      f+2     :     0.000390
      f-2     :     0.001318
      f+3     :     0.002342
      f-3     :     0.001501
  7 O s       :     3.796876  s :     3.796876
      pz      :     1.702874  p :     4.665163
      px      :     1.303653
      py      :     1.658636
      dz2     :     0.003146  d :     0.030283
      dxz     :     0.007420
      dyz     :     0.004863
      dx2y2   :     0.004339
      dxy     :     0.010515
      f0      :     0.000222  f :     0.001721
      f+1     :     0.000259
      f-1     :     0.000129
      f+2     :     0.000142
      f-2     :     0.000421
      f+3     :     0.000210
      f-3     :     0.000339
  8 H s       :     0.621029  s :     0.621029
      pz      :     0.017884  p :     0.047908
      px      :     0.015258
      py      :     0.014765
  9 H s       :     0.863450  s :     0.863450
      pz      :     0.003771  p :     0.017651
      px      :     0.002138
      py      :     0.011742
 10 H s       :     0.837712  s :     0.837712
      pz      :     0.008784  p :     0.020632
      px      :     0.006750
      py      :     0.005098
 11 H s       :     0.853450  s :     0.853450
      pz      :     0.010443  p :     0.020607
      px      :     0.005810
      py      :     0.004355


                     *******************************
                     * LOEWDIN POPULATION ANALYSIS *
                     *******************************

----------------------
LOEWDIN ATOMIC CHARGES
----------------------
   0 C :   -0.431229
   1 O :   -0.042491
   2 H :    0.164324
   3 H :    0.108914
   4 H :    0.095717
   5 H :    0.067694
   6 C :   -0.404454
   7 O :   -0.042405
   8 H :    0.171961
   9 H :    0.107871
  10 H :    0.107754
  11 H :    0.096343

-------------------------------
LOEWDIN REDUCED ORBITAL CHARGES
-------------------------------
  0 C s       :     2.845124  s :     2.845124
      pz      :     1.097095  p :     3.051812
      px      :     1.085124
      py      :     0.869594
      dz2     :     0.068130  d :     0.464414
      dxz     :     0.026168
      dyz     :     0.123707
      dx2y2   :     0.097595
      dxy     :     0.148813
      f0      :     0.008314  f :     0.069880
      f+1     :     0.002887
      f-1     :     0.009133
      f+2     :     0.011517
      f-2     :     0.003591
      f+3     :     0.021719
      f-3     :     0.012719
  1 O s       :     3.342828  s :     3.342828
      pz      :     1.467663  p :     4.613336
      px      :     1.696332
      py      :     1.449341
      dz2     :     0.016418  d :     0.080502
      dxz     :     0.008300
      dyz     :     0.017389
      dx2y2   :     0.019987
      dxy     :     0.018407
      f0      :     0.000810  f :     0.005825
      f+1     :     0.001030
      f-1     :     0.000547
      f+2     :     0.001120
      f-2     :     0.000031
      f+3     :     0.001349
      f-3     :     0.000938
  2 H s       :     0.668208  s :     0.668208
      pz      :     0.083741  p :     0.167468
      px      :     0.052493
      py      :     0.031234
  3 H s       :     0.835034  s :     0.835034
      pz      :     0.033481  p :     0.056051
      px      :     0.013520
      py      :     0.009050
  4 H s       :     0.851879  s :     0.851879
      pz      :     0.011175  p :     0.052403
      px      :     0.030904
      py      :     0.010324
  5 H s       :     0.857377  s :     0.857377
      pz      :     0.030216  p :     0.074928
      px      :     0.026334
      py      :     0.018378
  6 C s       :     2.857126  s :     2.857126
      pz      :     1.125658  p :     3.062838
      px      :     0.896541
      py      :     1.040639
      dz2     :     0.050338  d :     0.423743
      dxz     :     0.133242
      dyz     :     0.022691
      dx2y2   :     0.121009
      dxy     :     0.096464
      f0      :     0.006900  f :     0.060747
      f+1     :     0.007109
      f-1     :     0.004380
      f+2     :     0.003366
      f-2     :     0.011352
      f+3     :     0.015491
      f-3     :     0.012149
  7 O s       :     3.343074  s :     3.343074
      pz      :     1.624106  p :     4.619240
      px      :     1.349231
      py      :     1.645903
      dz2     :     0.006369  d :     0.075168
      dxz     :     0.022698
      dyz     :     0.006961
      dx2y2   :     0.015395
      dxy     :     0.023745
      f0      :     0.000543  f :     0.004922
      f+1     :     0.000472
      f-1     :     0.000340
      f+2     :     0.000284
      f-2     :     0.001357
      f+3     :     0.001085
      f-3     :     0.000841
  8 H s       :     0.666609  s :     0.666609
      pz      :     0.062200  p :     0.161431
      px      :     0.047254
      py      :     0.051977
  9 H s       :     0.839684  s :     0.839684
      pz      :     0.011703  p :     0.052446
      px      :     0.007132
      py      :     0.033611
 10 H s       :     0.828297  s :     0.828297
      pz      :     0.027677  p :     0.063950
      px      :     0.019713
      py      :     0.016560
 11 H s       :     0.838797  s :     0.838797
      pz      :     0.033161  p :     0.064860
      px      :     0.017518
      py      :     0.014182


                      *****************************
                      * MAYER POPULATION ANALYSIS *
                      *****************************

  NA   - Mulliken gross atomic population
  ZA   - Total nuclear charge
  QA   - Mulliken gross atomic charge
  VA   - Mayer's total valence
  BVA  - Mayer's bonded valence
  FA   - Mayer's free valence

  ATOM       NA         ZA         QA         VA         BVA        FA
  0 C      6.1640     6.0000    -0.1640     3.9843     3.9843     0.0000
  1 O      8.4545     8.0000    -0.4545     1.8724     1.8724     0.0000
  2 H      0.6769     1.0000     0.3231     0.9287     0.9287     0.0000
  3 H      0.8901     1.0000     0.1099     0.9698     0.9698    -0.0000
  4 H      0.9287     1.0000     0.0713     0.9619     0.9619     0.0000
  5 H      0.9055     1.0000     0.0945     0.9475     0.9475     0.0000
  6 C      6.2038     6.0000    -0.2038     3.8810     3.8810     0.0000
  7 O      8.4940     8.0000    -0.4940     1.8788     1.8788    -0.0000
  8 H      0.6689     1.0000     0.3311     0.9034     0.9034     0.0000
  9 H      0.8811     1.0000     0.1189     0.9574     0.9574    -0.0000
 10 H      0.8583     1.0000     0.1417     0.9534     0.9534    -0.0000
 11 H      0.8741     1.0000     0.1259     0.9660     0.9660     0.0000

  Mayer bond orders larger than 0.1
B(  0-C ,  1-O ) :   1.0119 B(  0-C ,  3-H ) :   0.9741 B(  0-C ,  4-H ) :   0.9991 
B(  0-C ,  5-H ) :   0.9730 B(  1-O ,  2-H ) :   0.8853 B(  6-C ,  7-O ) :   0.9447 
B(  6-C ,  9-H ) :   0.9710 B(  6-C , 10-H ) :   0.9714 B(  6-C , 11-H ) :   0.9762 
B(  7-O ,  8-H ) :   0.8880 

-------
TIMINGS
-------

Total SCF time: 0 days 0 hours 0 min 20 sec 

Total time                  ....      20.450 sec
Sum of individual times     ....      20.129 sec  ( 98.4%)

Fock matrix formation       ....      19.533 sec  ( 95.5%)
  XC integration            ....       9.715 sec  ( 49.7% of F)
    Basis function eval.    ....       0.071 sec  (  0.7% of XC)
    Density eval.           ....       0.082 sec  (  0.8% of XC)
    XC-Functional eval.     ....       0.093 sec  (  1.0% of XC)
    XC-Potential eval.      ....       0.086 sec  (  0.9% of XC)
Diagonalization             ....       0.052 sec  (  0.3%)
Density matrix formation    ....       0.007 sec  (  0.0%)
Population analysis         ....       0.052 sec  (  0.3%)
Initial guess               ....       0.098 sec  (  0.5%)
Orbital Transformation      ....       0.000 sec  (  0.0%)
Orbital Orthonormalization  ....       0.000 sec  (  0.0%)
DIIS solution               ....       0.032 sec  (  0.2%)
SOSCF solution              ....       0.039 sec  (  0.2%)
Grid generation             ....       0.317 sec  (  1.6%)


-------------------------------------------------------------------------------
                          DFT DISPERSION CORRECTION                            
                                                                               
                              DFTD3 V3.1  Rev 1                                
                              USING zero damping                               
-------------------------------------------------------------------------------
The omegaB97X-D3 functional is recognized. Fit by Chai et al.
Active option DFTDOPT                   ...         3   

molecular C6(AA) [au] = 834.517071 


            DFT-D V3
 parameters
 s6 scaling factor         :     1.0000 
 rs6 scaling factor        :     1.2810 
 s8 scaling factor         :     1.0000 
 rs8 scaling factor        :     1.0940 
 Damping factor alpha6     :    14.0000 
 Damping factor alpha8     :    16.0000 
 ad hoc parameters k1-k3   :    16.0000     1.3333    -4.0000 

 Edisp/kcal,au: -1.470313122023  -0.002343092855 
 E6   /kcal   :  -0.622297520 
 E8   /kcal   :  -0.848015602 
 % E8         :  57.675850769 

-------------------------   ----------------
Dispersion correction           -0.002343093
-------------------------   ----------------


-------------------------   --------------------
FINAL SINGLE POINT ENERGY      -231.464343568642
-------------------------   --------------------


                            ***************************************
                            *     ORCA property calculations      *
                            ***************************************

                                    ---------------------
                                    Active property flags
                                    ---------------------
   (+) Dipole Moment


------------------------------------------------------------------------------
                       ORCA ELECTRIC PROPERTIES CALCULATION
------------------------------------------------------------------------------

Dipole Moment Calculation                       ... on
Quadrupole Moment Calculation                   ... off
Polarizability Calculation                      ... off
GBWName                                         ... 7-167_DFT_AB.gbw
Electron density file                           ... 7-167_DFT_AB.scfp.tmp
The origin for moment calculation is the CENTER OF MASS  = (-0.381762,  9.414932 -14.753957)

-------------
DIPOLE MOMENT
-------------
                                X             Y             Z
Electronic contribution:      1.71763      -2.82614       0.16837
Nuclear contribution   :     -2.12624       3.73215       0.92547
                        -----------------------------------------
Total Dipole Moment    :     -0.40861       0.90600       1.09384
                        -----------------------------------------
Magnitude (a.u.)       :      1.47794
Magnitude (Debye)      :      3.75661



--------------------
Rotational spectrum 
--------------------
 
Rotational constants in cm-1:     0.464897     0.093034     0.085850 
Rotational constants in MHz : 13937.247282  2789.099672  2573.704851 

 Dipole components along the rotational axes: 
x,y,z [a.u.] :     1.107372     0.764474    -0.611229 
x,y,z [Debye]:     2.814716     1.943139    -1.553620 

 
------------------------------------------------------------------------------
                      ORCA CHELPG CHARGES GENERATION
------------------------------------------------------------------------------

GBW file                           ... 7-167_DFT_AB.gbw

Reading the GBW file               ... done

Grid spacing                       ...     0.300000
Point Cut-Off                      ...     2.800000
Van-der-Waals Radii                ...        COSMO
Total charge                       ...            0


Number of points X direction       ...           29
Number of points Y direction       ...           25
Number of points Z direction       ...           34
Maximum number of possible points  ...        24650
Final number of points             ...         9167


CHELPG Charges            
--------------------------------
  0   C   :       0.032121
  1   O   :      -0.571383
  2   H   :       0.393713
  3   H   :       0.084844
  4   H   :      -0.012903
  5   H   :       0.028684
  6   C   :       0.137610
  7   O   :      -0.606288
  8   H   :       0.423920
  9   H   :      -0.005317
 10   H   :       0.083216
 11   H   :       0.011783
--------------------------------
Total charge:     0.000000
--------------------------------

CHELPG charges calculated...

Timings for individual parts in CHELPG calculation:
Grid generation                 ...        0.001 sec (=   0.000 min)
Potential calculation           ...        2.125 sec (=   0.035 min)
Fit to the potential            ...        0.003 sec (=   0.000 min)
------------------------------------------------------------------------------


Timings for individual modules:

Sum of individual times         ...       28.672 sec (=   0.478 min)
GTO integral calculation        ...        4.679 sec (=   0.078 min)  16.3 %
SCF iterations                  ...       21.818 sec (=   0.364 min)  76.1 %
CHELPG charge generation        ...        2.175 sec (=   0.036 min)   7.6 %


                 $$$$$$$$$$$$$$$$  JOB NUMBER  2 $$$$$$$$$$$$$$


                       ****************************
                       * Single Point Calculation *
                       ****************************

---------------------------------
CARTESIAN COORDINATES (ANGSTROEM)
---------------------------------
  C      0.571452    5.757147   -9.310984
  O      0.521628    4.402486   -9.201155
  H      0.086074    4.339337   -8.344764
  H      0.854972    6.019808  -10.346947
  H     -0.502939    6.082742   -9.134544
  H      1.119985    6.190823   -8.585950
  C     -1.555646    5.231252   -6.405208
  O     -0.346762    4.541400   -6.399865
  H      0.267018    4.970165   -5.812395
  H     -1.461585    6.358154   -6.598062
  H     -2.193016    4.839029   -7.166690
  H     -2.062145    5.051455   -5.484070

----------------------------
CARTESIAN COORDINATES (A.U.)
----------------------------
  NO LB      ZA    FRAG     MASS         X           Y           Z
   0 C     6.0000    0    12.011    1.079888   10.879431  -17.595210
   1 O     8.0000    0    15.999    0.985734    8.319493  -17.387663
   2 H     1.0000    0     1.008    0.162656    8.200159  -15.769319
   3 H     1.0000    0     1.008    1.615663   11.375788  -19.552896
   4 H     1.0000    0     1.008   -0.950417   11.494717  -17.261787
   5 H     1.0000    0     1.008    2.116465   11.698960  -16.225094
   6 C     0.0000    0     0.000   -2.939745    9.885634  -12.104089
   7 O     0.0000    0     0.000   -0.655285    8.582002  -12.093992
   8 H     0.0000    0     0.000    0.504591    9.392251  -10.983835
   9 H     0.0000    0     0.000   -2.761995   12.015170  -12.468530
  10 H     0.0000    0     0.000   -4.144200    9.144440  -13.543081
  11 H     0.0000    0     0.000   -3.896889    9.545867  -10.363390

--------------------------------
INTERNAL COORDINATES (ANGSTROEM)
--------------------------------
 C      0   0   0     0.000000000000     0.00000000     0.00000000
 O      1   0   0     1.360018847347     0.00000000     0.00000000
 H      2   1   0     0.962860648276    98.84280847     0.00000000
 H      1   2   3     1.105709604141   108.76389651   191.91460091
 H      1   2   3     1.136423863928   103.78071949   307.45261143
 H      1   2   3     1.007292224839   112.99579787    62.09631330
 C      3   2   1     2.693071555448   153.45747288    28.80557382
 O      7   3   2     1.391878175348    46.30311431   216.09392381
 H      8   7   3     0.951675530065   109.82967692   129.75832402
 H      7   3   2     1.147147878279    98.87509203   331.78876030
 H      7   3   2     1.067677027454    74.25201983    76.90912693
 H      7   3   2     1.066472415609   148.84178781   171.32179693

---------------------------
INTERNAL COORDINATES (A.U.)
---------------------------
 C      0   0   0     0.000000000000     0.00000000     0.00000000
 O      1   0   0     2.570063158456     0.00000000     0.00000000
 H      2   1   0     1.819542930371    98.84280847     0.00000000
 H      1   2   3     2.089488335473   108.76389651   191.91460091
 H      1   2   3     2.147529874877   103.78071949   307.45261143
 H      1   2   3     1.903506441774   112.99579787    62.09631330
 C      3   2   1     5.089167698849   153.45747288    28.80557382
 O      7   3   2     2.630268563189    46.30311431   216.09392381
 H      8   7   3     1.798406120178   109.82967692   129.75832402
 H      7   3   2     2.167795325057    98.87509203   331.78876030
 H      7   3   2     2.017617181367    74.25201983    76.90912693
 H      7   3   2     2.015340794882   148.84178781   171.32179693

---------------------
BASIS SET INFORMATION
---------------------
There are 3 groups of distinct atoms

 Group   1 Type C   : 11s6p2d1f contracted to 5s3p2d1f pattern {62111/411/11/1}
 Group   2 Type O   : 11s6p2d1f contracted to 5s3p2d1f pattern {62111/411/11/1}
 Group   3 Type H   : 5s1p contracted to 3s1p pattern {311/1}

Atom   0C    basis set group =>   1
Atom   1O    basis set group =>   2
Atom   2H    basis set group =>   3
Atom   3H    basis set group =>   3
Atom   4H    basis set group =>   3
Atom   5H    basis set group =>   3
Atom   6C    basis set group =>   1
Atom   7O    basis set group =>   2
Atom   8H    basis set group =>   3
Atom   9H    basis set group =>   3
Atom  10H    basis set group =>   3
Atom  11H    basis set group =>   3


           ************************************************************
           *        Program running with 8 parallel MPI-processes     *
           *              working on a common directory               *
           ************************************************************
------------------------------------------------------------------------------
                           ORCA GTO INTEGRAL CALCULATION
------------------------------------------------------------------------------

                         BASIS SET STATISTICS AND STARTUP INFO

 # of primitive gaussian shells          ...  128
 # of primitive gaussian functions       ...  248
 # of contracted shells                  ...   76
 # of contracted basis functions         ...  172
 Highest angular momentum                ...    3
 Maximum contraction depth               ...    6
 Integral package used                   ... LIBINT
 Integral threshhold            Thresh   ...  2.500e-11
 Primitive cut-off              TCut     ...  2.500e-12


------------------------------ INTEGRAL EVALUATION ----------------------------


 * One electron integrals 
 Pre-screening matrix                    ... done
 Shell pair data                         ... done (   0.001 sec)



           ************************************************************
           *        Program running with 8 parallel MPI-processes     *
           *              working on a common directory               *
           ************************************************************
-------------------------------------------------------------------------------
                                 ORCA SCF
-------------------------------------------------------------------------------

------------
SCF SETTINGS
------------
Hamiltonian:
 Density Functional     Method          .... DFT(GTOs)
 Exchange Functional    Exchange        .... WB97X-D3
 Correlation Functional Correlation     .... WB97X-D3
 Gradients option       PostSCFGGA      .... off
 Hybrid DFT is turned on
   Fraction HF Exchange ScalHFX         ....  0.195728
   Scaling of DF-GGA-X  ScalDFX         ....  0.000000
   Scaling of DF-GGA-C  ScalDFC         ....  1.000000
   Scaling of DF-LDA-C  ScalLDAC        ....  1.000000
   Perturbative correction              ....  0.000000
   Density functional embedding theory  .... OFF
 Long-range corrected/Screened/Range-Separated Hybrid DFT is turned on
   Amount of maximum screened exact exchange              ....  0.804272
   Range separation parameter mu (erf(mu*r12)/r12)        ....  0.250000


General Settings:
 Integral files         IntName         .... 7-167_DFT_A
 Hartree-Fock type      HFTyp           .... RHF
 Total Charge           Charge          ....    0
 Multiplicity           Mult            ....    1
 Number of Electrons    NEL             ....   18
 Basis Dimension        Dim             ....  172
 Nuclear Repulsion      ENuc            ....     41.6628653239 Eh

Convergence Acceleration:
 DIIS                   CNVDIIS         .... on
   Start iteration      DIISMaxIt       ....    12
   Startup error        DIISStart       ....  0.200000
   # of expansion vecs  DIISMaxEq       ....     5
   Bias factor          DIISBfac        ....   1.050
   Max. coefficient     DIISMaxC        ....  10.000
 Newton-Raphson         CNVNR           .... off
 SOSCF                  CNVSOSCF        .... on
   Start iteration      SOSCFMaxIt      ....   150
   Startup grad/error   SOSCFStart      ....  0.003300
 Level Shifting         CNVShift        .... on
   Level shift para.    LevelShift      ....    0.2500
   Turn off err/grad.   ShiftErr        ....    0.0010
 Zerner damping         CNVZerner       .... off
 Static damping         CNVDamp         .... on
   Fraction old density DampFac         ....    0.7000
   Max. Damping (<1)    DampMax         ....    0.9800
   Min. Damping (>=0)   DampMin         ....    0.0000
   Turn off err/grad.   DampErr         ....    0.1000
 Fernandez-Rico         CNVRico         .... off

SCF Procedure:
 Maximum # iterations   MaxIter         ....  1000
 SCF integral mode      SCFMode         .... Direct
   Integral package                     .... LIBINT
 Reset frequency        DirectResetFreq ....    20
 Integral Threshold     Thresh          ....  2.500e-11 Eh
 Primitive CutOff       TCut            ....  2.500e-12 Eh

Convergence Tolerance:
 Convergence Check Mode ConvCheckMode   .... Total+1el-Energy
 Convergence forced     ConvForced      .... 0
 Energy Change          TolE            ....  1.000e-08 Eh
 1-El. energy change                    ....  1.000e-05 Eh
 Orbital Gradient       TolG            ....  1.000e-05
 Orbital Rotation angle TolX            ....  1.000e-05
 DIIS Error             TolErr          ....  5.000e-07


Diagonalization of the overlap matrix:
Smallest eigenvalue                        ... 1.285e-03
Time for diagonalization                   ...    0.004 sec
Threshold for overlap eigenvalues          ... 1.000e-08
Number of eigenvalues below threshold      ... 0
Time for construction of square roots      ...    0.006 sec
Total time needed                          ...    0.009 sec

-------------------
DFT GRID GENERATION
-------------------

General Integration Accuracy     IntAcc      ...  4.340
Radial Grid Type                 RadialGrid  ... Gauss-Chebyshev
Angular Grid (max. acc.)         AngularGrid ... Lebedev-110
Angular grid pruning method      GridPruning ... 3 (G Style)
Weight generation scheme         WeightScheme... Becke
Basis function cutoff            BFCut       ...    1.0000e-11
Integration weight cutoff        WCut        ...    1.0000e-14
Grids for H and He will be reduced by one unit

# of grid points (after initial pruning)     ...  13096 (   0.0 sec)
# of grid points (after weights+screening)   ...  12393 (   0.0 sec)
nearest neighbour list constructed           ...    0.0 sec
Grid point re-assignment to atoms done       ...    0.0 sec
Grid point division into batches done        ...    0.0 sec
Reduced shell lists constructed in    0.0 sec

Total number of grid points                  ...    12393
Total number of batches                      ...      199
Average number of points per batch           ...       62
Average number of grid points per atom       ...     1033
Average number of shells per batch           ...    52.27 (68.78%)
Average number of basis functions per batch  ...   117.42 (68.27%)
Average number of large shells per batch     ...    42.35 (81.02%)
Average number of large basis fcns per batch ...    93.73 (79.82%)
Maximum spatial batch extension              ...  25.60, 16.67, 13.72 au
Average spatial batch extension              ...   0.50,  0.48,  0.38 au

Time for grid setup =    0.039 sec

------------------------------
INITIAL GUESS: MODEL POTENTIAL
------------------------------
Loading Hartree-Fock densities                     ... done
Calculating cut-offs                               ... done
Setting up the integral package                    ... done
Initializing the effective Hamiltonian             ... done
Starting the Coulomb interaction                   ... done (   0.0 sec)
Reading the grid                                   ... done
Mapping shells                                     ... done
Starting the XC term evaluation                    ... done (   0.0 sec)
  promolecular density results
     # of electrons  =     17.989721146
     EX              =    -14.457001092
     EC              =     -0.579931648
     EX+EC           =    -15.036932741
Transforming the Hamiltonian                       ... done (   0.0 sec)
Diagonalizing the Hamiltonian                      ... done (   0.0 sec)
Back transforming the eigenvectors                 ... done (   0.0 sec)
Now organizing SCF variables                       ... done
                      ------------------
                      INITIAL GUESS DONE (   0.1 sec)
                      ------------------
--------------
SCF ITERATIONS
--------------
ITER       Energy         Delta-E        Max-DP      RMS-DP      [F,P]     Damp
               ***  Starting incremental Fock matrix formation  ***
  0   -115.6278545679   0.000000000000 0.03797548  0.00077314  0.2557004 0.7000
  1   -115.6678055305  -0.039950962584 0.02275938  0.00055012  0.1291723 0.7000
                               ***Turning on DIIS***
  2   -115.6863157974  -0.018510266956 0.03386585  0.00099853  0.0514787 0.0000
  3   -115.7162194191  -0.029903621658 0.01832566  0.00036196  0.0619460 0.0000
  4   -115.7211603323  -0.004940913158 0.00425736  0.00007362  0.0068606 0.0000
                      *** Initiating the SOSCF procedure ***
                           *** Shutting down DIIS ***
                      *** Re-Reading the Fockian *** 
                      *** Removing any level shift *** 
ITER      Energy       Delta-E        Grad      Rot      Max-DP    RMS-DP
  5   -115.72126346  -0.0001031293  0.000433  0.000433  0.000806  0.000025
               *** Restarting incremental Fock matrix formation ***
  6   -115.72127300  -0.0000095358  0.000141  0.000228  0.000483  0.000015
  7   -115.72127393  -0.0000009293  0.000050  0.000140  0.000259  0.000008
  8   -115.72127401  -0.0000000851  0.000036  0.000023  0.000050  0.000001
  9   -115.72127403  -0.0000000201  0.000010  0.000008  0.000021  0.000001
 10   -115.72127403  -0.0000000026  0.000003  0.000006  0.000006  0.000000
                  ***Gradient check signals convergence***
              ***Rediagonalizing the Fockian in SOSCF/NRSCF***

               *****************************************************
               *                     SUCCESS                       *
               *           SCF CONVERGED AFTER  11 CYCLES          *
               *****************************************************

Setting up the final grid:

General Integration Accuracy     IntAcc      ...  4.670
Radial Grid Type                 RadialGrid  ... Gauss-Chebyshev
Angular Grid (max. acc.)         AngularGrid ... Lebedev-302
Angular grid pruning method      GridPruning ... 3 (G Style)
Weight generation scheme         WeightScheme... Becke
Basis function cutoff            BFCut       ...    1.0000e-11
Integration weight cutoff        WCut        ...    1.0000e-14
Grids for H and He will be reduced by one unit

# of grid points (after initial pruning)     ...  52000 (   0.0 sec)
# of grid points (after weights+screening)   ...  48623 (   0.0 sec)
nearest neighbour list constructed           ...    0.0 sec
Grid point re-assignment to atoms done       ...    0.0 sec
Grid point division into batches done        ...    0.2 sec
Reduced shell lists constructed in    0.2 sec

Total number of grid points                  ...    48623
Total number of batches                      ...      766
Average number of points per batch           ...       63
Average number of grid points per atom       ...     4052
Average number of shells per batch           ...    49.77 (65.49%)
Average number of basis functions per batch  ...   110.31 (64.13%)
Average number of large shells per batch     ...    40.06 (80.49%)
Average number of large basis fcns per batch ...    88.60 (80.32%)
Maximum spatial batch extension              ...  15.83, 15.98, 14.41 au
Average spatial batch extension              ...   0.29,  0.28,  0.27 au

Final grid set up in    0.3 sec
Final integration                            ... done (   0.1 sec)
Change in XC energy                          ...     0.000199861
Integrated number of electrons               ...    17.999976863
Previous integrated no of electrons          ...    17.998131667

----------------
TOTAL SCF ENERGY
----------------

Total Energy       :         -115.72107417 Eh           -3148.93052 eV

Components:
Nuclear Repulsion  :           41.66286532 Eh            1133.70420 eV
Electronic Energy  :         -157.38393950 Eh           -4282.63472 eV
One Electron Energy:         -239.60189254 Eh           -6519.89896 eV
Two Electron Energy:           82.21795305 Eh            2237.26424 eV

Virial components:
Potential Energy   :         -231.18299008 Eh           -6290.80898 eV
Kinetic Energy     :          115.46191591 Eh            3141.87846 eV
Virial Ratio       :            2.00224453


DFT components:
N(Alpha)           :        8.999988431710 electrons
N(Beta)            :        8.999988431710 electrons
N(Total)           :       17.999976863419 electrons
E(XC)              :      -10.691521954974 Eh       
DFET-embed. en.    :        0.000000000000 Eh       

---------------
SCF CONVERGENCE
---------------

  Last Energy change         ...   -1.9877e-10  Tolerance :   1.0000e-08
  Last MAX-Density change    ...    3.0192e-06  Tolerance :   1.0000e-07
  Last RMS-Density change    ...    7.2390e-08  Tolerance :   5.0000e-09
  Last Orbital Gradient      ...    9.7106e-07  Tolerance :   1.0000e-05
  Last Orbital Rotation      ...    3.0773e-06  Tolerance :   1.0000e-05

             **** THE GBW FILE WAS UPDATED (7-167_DFT_A.gbw) ****
             **** DENSITY FILE WAS UPDATED (7-167_DFT_A.scfp.tmp) ****
             **** ENERGY FILE WAS UPDATED (7-167_DFT_A.en.tmp) ****
----------------
ORBITAL ENERGIES
----------------

  NO   OCC          E(Eh)            E(eV) 
   0   2.0000     -19.229540      -523.2624 
   1   2.0000     -10.305365      -280.4232 
   2   2.0000      -1.161108       -31.5953 
   3   2.0000      -0.789517       -21.4839 
   4   2.0000      -0.626639       -17.0517 
   5   2.0000      -0.556287       -15.1374 
   6   2.0000      -0.530841       -14.4449 
   7   2.0000      -0.439488       -11.9591 
   8   2.0000      -0.367457        -9.9990 
   9   0.0000       0.065383         1.7792 
  10   0.0000       0.143046         3.8925 
  11   0.0000       0.146822         3.9952 
  12   0.0000       0.154837         4.2133 
  13   0.0000       0.195349         5.3157 
  14   0.0000       0.212634         5.7861 
  15   0.0000       0.221261         6.0208 
  16   0.0000       0.236507         6.4357 
  17   0.0000       0.252456         6.8697 
  18   0.0000       0.289768         7.8850 
  19   0.0000       0.300789         8.1849 
  20   0.0000       0.309928         8.4336 
  21   0.0000       0.334675         9.1070 
  22   0.0000       0.339393         9.2353 
  23   0.0000       0.406852        11.0710 
  24   0.0000       0.449787        12.2393 
  25   0.0000       0.453594        12.3429 
  26   0.0000       0.479150        13.0383 
  27   0.0000       0.500837        13.6285 
  28   0.0000       0.520179        14.1548 
  29   0.0000       0.541134        14.7250 
  30   0.0000       0.550842        14.9892 
  31   0.0000       0.569228        15.4895 
  32   0.0000       0.601905        16.3787 
  33   0.0000       0.640146        17.4193 
  34   0.0000       0.665230        18.1018 
  35   0.0000       0.680416        18.5151 
  36   0.0000       0.697324        18.9752 
  37   0.0000       0.761650        20.7255 
  38   0.0000       0.798792        21.7362 
  39   0.0000       0.806802        21.9542 
  40   0.0000       0.829207        22.5639 
  41   0.0000       0.857430        23.3319 
  42   0.0000       0.903638        24.5893 
  43   0.0000       0.951666        25.8962 
  44   0.0000       1.001615        27.2553 
  45   0.0000       1.063953        28.9516 
  46   0.0000       1.079808        29.3831 
  47   0.0000       1.119130        30.4531 
  48   0.0000       1.154313        31.4105 
  49   0.0000       1.164937        31.6996 
  50   0.0000       1.188369        32.3372 
  51   0.0000       1.231208        33.5029 
  52   0.0000       1.247981        33.9593 
  53   0.0000       1.340389        36.4738 
  54   0.0000       1.389974        37.8231 
  55   0.0000       1.400376        38.1062 
  56   0.0000       1.438304        39.1382 
  57   0.0000       1.493194        40.6319 
  58   0.0000       1.544588        42.0304 
  59   0.0000       1.573134        42.8072 
  60   0.0000       1.603630        43.6370 
  61   0.0000       1.659246        45.1504 
  62   0.0000       1.680394        45.7259 
  63   0.0000       1.725256        46.9466 
  64   0.0000       1.758129        47.8411 
  65   0.0000       1.807349        49.1805 
  66   0.0000       1.857756        50.5521 
  67   0.0000       1.929060        52.4924 
  68   0.0000       1.934897        52.6512 
  69   0.0000       1.975484        53.7556 
  70   0.0000       2.015336        54.8401 
  71   0.0000       2.046509        55.6883 
  72   0.0000       2.117367        57.6165 
  73   0.0000       2.146738        58.4157 
  74   0.0000       2.161078        58.8059 
  75   0.0000       2.192947        59.6731 
  76   0.0000       2.209284        60.1177 
  77   0.0000       2.255897        61.3861 
  78   0.0000       2.322968        63.2112 
  79   0.0000       2.333181        63.4891 
  80   0.0000       2.363146        64.3045 
  81   0.0000       2.376659        64.6722 
  82   0.0000       2.478544        67.4446 
  83   0.0000       2.505016        68.1650 
  84   0.0000       2.525262        68.7159 
  85   0.0000       2.547218        69.3133 
  86   0.0000       2.581713        70.2520 
  87   0.0000       2.615219        71.1637 
  88   0.0000       2.640652        71.8558 
  89   0.0000       2.671230        72.6879 
  90   0.0000       2.700172        73.4754 
  91   0.0000       2.747025        74.7503 
  92   0.0000       2.825667        76.8903 
  93   0.0000       2.874516        78.2195 
  94   0.0000       2.896733        78.8241 
  95   0.0000       2.948166        80.2237 
  96   0.0000       2.959058        80.5201 
  97   0.0000       3.025502        82.3281 
  98   0.0000       3.084267        83.9272 
  99   0.0000       3.123679        84.9996 
 100   0.0000       3.146735        85.6270 
 101   0.0000       3.165228        86.1302 
 102   0.0000       3.195554        86.9555 
 103   0.0000       3.237788        88.1047 
 104   0.0000       3.291996        89.5798 
 105   0.0000       3.346274        91.0568 
 106   0.0000       3.358698        91.3948 
 107   0.0000       3.430718        93.3546 
 108   0.0000       3.459307        94.1325 
 109   0.0000       3.466656        94.3325 
 110   0.0000       3.513469        95.6063 
 111   0.0000       3.618258        98.4578 
 112   0.0000       3.651195        99.3541 
 113   0.0000       3.694592       100.5349 
 114   0.0000       3.702988       100.7634 
 115   0.0000       3.734602       101.6237 
 116   0.0000       3.760707       102.3340 
 117   0.0000       4.054840       110.3378 
 118   0.0000       4.093188       111.3813 
 119   0.0000       4.140895       112.6795 
 120   0.0000       4.239973       115.3755 
 121   0.0000       4.272374       116.2572 
 122   0.0000       4.281973       116.5184 
 123   0.0000       4.301085       117.0385 
 124   0.0000       4.340733       118.1174 
 125   0.0000       4.466252       121.5329 
 126   0.0000       4.515716       122.8789 
 127   0.0000       4.547146       123.7341 
 128   0.0000       4.575336       124.5012 
 129   0.0000       4.588869       124.8695 
 130   0.0000       4.594343       125.0184 
 131   0.0000       5.014769       136.4588 
 132   0.0000       5.084807       138.3646 
 133   0.0000       5.188951       141.1985 
 134   0.0000       5.377873       146.3394 
 135   0.0000       5.421481       147.5260 
 136   0.0000       5.449552       148.2898 
 137   0.0000       5.539317       150.7325 
 138   0.0000       5.561631       151.3397 
 139   0.0000       5.721771       155.6973 
 140   0.0000       5.797022       157.7450 
 141   0.0000       5.933595       161.4613 
 142   0.0000       5.935095       161.5022 
 143   0.0000       6.114031       166.3713 
 144   0.0000       6.146081       167.2434 
 145   0.0000       6.367590       173.2709 
 146   0.0000       6.558766       178.4731 
 147   0.0000       6.591981       179.3769 
 148   0.0000       6.690957       182.0702 
 149   0.0000       6.805251       185.1803 
 150   0.0000       6.856120       186.5645 
 151   0.0000       6.857650       186.6061 
 152   0.0000       7.020984       191.0507 
 153   0.0000       7.173890       195.2115 
 154   0.0000       7.265257       197.6977 
 155   0.0000       7.285812       198.2570 
 156   0.0000       7.469390       203.2524 
 157   0.0000       8.157216       221.9691 
 158   0.0000       8.924861       242.8578 
 159   0.0000       9.360376       254.7088 
 160   0.0000       9.548223       259.8204 
 161   0.0000       9.598331       261.1839 
 162   0.0000       9.789202       266.3777 
 163   0.0000       9.871805       268.6255 
 164   0.0000       9.940645       270.4987 
[...]
  82   0.0000       2.419483        65.8375 
  83   0.0000       2.453949        66.7754 
  84   0.0000       2.542801        69.1931 
  85   0.0000       2.594106        70.5892 
  86   0.0000       2.643592        71.9358 
  87   0.0000       2.673586        72.7520 
  88   0.0000       2.688348        73.1537 
  89   0.0000       2.723275        74.1041 
  90   0.0000       2.730802        74.3089 
  91   0.0000       2.767760        75.3146 
  92   0.0000       2.857774        77.7640 
  93   0.0000       2.876657        78.2778 
  94   0.0000       2.918659        79.4207 
  95   0.0000       2.939192        79.9795 
  96   0.0000       2.968336        80.7725 
  97   0.0000       3.039962        82.7216 
  98   0.0000       3.084160        83.9243 
  99   0.0000       3.110883        84.6514 
 100   0.0000       3.128608        85.1338 
 101   0.0000       3.193727        86.9057 
 102   0.0000       3.204286        87.1931 
 103   0.0000       3.278466        89.2116 
 104   0.0000       3.308120        90.0185 
 105   0.0000       3.316341        90.2422 
 106   0.0000       3.381673        92.0200 
 107   0.0000       3.397179        92.4419 
 108   0.0000       3.458465        94.1096 
 109   0.0000       3.515047        95.6493 
 110   0.0000       3.527165        95.9790 
 111   0.0000       3.620572        98.5208 
 112   0.0000       3.627572        98.7113 
 113   0.0000       3.670054        99.8672 
 114   0.0000       3.704028       100.7917 
 115   0.0000       3.796435       103.3063 
 116   0.0000       3.809619       103.6650 
 117   0.0000       4.035805       109.8198 
 118   0.0000       4.174201       113.5858 
 119   0.0000       4.205465       114.4365 
 120   0.0000       4.241812       115.4256 
 121   0.0000       4.256434       115.8235 
 122   0.0000       4.312270       117.3428 
 123   0.0000       4.368329       118.8683 
 124   0.0000       4.385953       119.3478 
 125   0.0000       4.442354       120.8826 
 126   0.0000       4.523304       123.0854 
 127   0.0000       4.575269       124.4994 
 128   0.0000       4.584707       124.7562 
 129   0.0000       4.596672       125.0818 
 130   0.0000       4.671609       127.1209 
 131   0.0000       5.071104       137.9918 
 132   0.0000       5.151528       140.1802 
 133   0.0000       5.215128       141.9108 
 134   0.0000       5.300617       144.2371 
 135   0.0000       5.383380       146.4892 
 136   0.0000       5.432186       147.8173 
 137   0.0000       5.457396       148.5033 
 138   0.0000       5.576735       151.7507 
 139   0.0000       5.785272       157.4253 
 140   0.0000       5.866994       159.6490 
 141   0.0000       5.870759       159.7515 
 142   0.0000       5.945457       161.7841 
 143   0.0000       6.021502       163.8534 
 144   0.0000       6.370263       173.3437 
 145   0.0000       6.413925       174.5318 
 146   0.0000       6.575049       178.9162 
 147   0.0000       6.742197       183.4645 
 148   0.0000       6.767567       184.1549 
 149   0.0000       6.829720       185.8461 
 150   0.0000       6.860015       186.6705 
 151   0.0000       6.901475       187.7987 
 152   0.0000       7.057434       192.0425 
 153   0.0000       7.135025       194.1539 
 154   0.0000       7.238199       196.9614 
 155   0.0000       7.424982       202.0440 
 156   0.0000       7.648636       208.1300 
 157   0.0000       8.191599       222.9047 
 158   0.0000       8.958071       243.7615 
 159   0.0000       9.392766       255.5902 
 160   0.0000       9.578158       260.6349 
 161   0.0000       9.598269       261.1822 
 162   0.0000       9.869601       268.5655 
 163   0.0000       9.933773       270.3117 
 164   0.0000      10.041093       273.2320 
 165   0.0000      10.274757       279.5903 
 166   0.0000      11.351111       308.8794 
 167   0.0000      19.200430       522.4702 
 168   0.0000      22.504446       612.3771 
 169   0.0000      43.720638      1189.6990 
 170   0.0000      66.139210      1799.7394 
 171   0.0000     126.484521      3441.8188 

                    ********************************
                    * MULLIKEN POPULATION ANALYSIS *
                    ********************************

-----------------------
MULLIKEN ATOMIC CHARGES
-----------------------
   0 C :    0.002507
   1 O :   -0.001663
   2 H :   -0.000745
   3 H :   -0.000264
   4 H :   -0.000223
   5 H :   -0.006545
   6 C :   -0.167704
   7 O :   -0.474866
   8 H :    0.315412
   9 H :    0.098893
  10 H :    0.121706
  11 H :    0.113491
Sum of atomic charges:   -0.0000000

--------------------------------
MULLIKEN REDUCED ORBITAL CHARGES
--------------------------------
  0 C s       :    -0.003380  s :    -0.003380
      pz      :    -0.000441  p :     0.000982
      px      :    -0.000156
      py      :     0.001580
      dz2     :    -0.000068  d :    -0.000109
      dxz     :    -0.000021
      dyz     :    -0.000032
      dx2y2   :     0.000003
      dxy     :     0.000009
      f0      :     0.000000  f :    -0.000000
      f+1     :     0.000000
      f-1     :    -0.000002
      f+2     :    -0.000000
      f-2     :     0.000001
      f+3     :     0.000000
      f-3     :    -0.000000
  1 O s       :     0.000292  s :     0.000292
      pz      :     0.001387  p :     0.001263
      px      :     0.000148
      py      :    -0.000272
      dz2     :     0.000075  d :     0.000107
      dxz     :     0.000028
      dyz     :     0.000002
      dx2y2   :     0.000001
      dxy     :     0.000001
      f0      :     0.000001  f :     0.000001
      f+1     :     0.000001
      f-1     :     0.000000
      f+2     :     0.000000
      f-2     :     0.000000
      f+3     :    -0.000000
      f-3     :     0.000000
  2 H s       :     0.000468  s :     0.000468
      pz      :     0.000271  p :     0.000276
      px      :     0.000048
      py      :    -0.000043
  3 H s       :     0.000263  s :     0.000263
      pz      :     0.000000  p :     0.000000
      px      :    -0.000000
      py      :     0.000000
  4 H s       :     0.000216  s :     0.000216
      pz      :     0.000002  p :     0.000007
      px      :     0.000002
      py      :     0.000002
  5 H s       :     0.006529  s :     0.006529
      pz      :     0.000018  p :     0.000016
      px      :    -0.000002
      py      :    -0.000000
  6 C s       :     3.222176  s :     3.222176
      pz      :     1.089317  p :     2.837450
      px      :     0.783764
      py      :     0.964369
      dz2     :     0.008000  d :     0.100105
      dxz     :     0.037589
      dyz     :     0.005276
      dx2y2   :     0.029921
      dxy     :     0.019319
      f0      :     0.001078  f :     0.007972
      f+1     :     0.001010
      f-1     :     0.000321
      f+2     :     0.000385
      f-2     :     0.001331
      f+3     :     0.002363
      f-3     :     0.001484
  7 O s       :     3.792230  s :     3.792230
      pz      :     1.706392  p :     4.649893
      px      :     1.296367
      py      :     1.647135
      dz2     :     0.003471  d :     0.030985
      dxz     :     0.007583
      dyz     :     0.005088
      dx2y2   :     0.004325
      dxy     :     0.010519
      f0      :     0.000231  f :     0.001758
      f+1     :     0.000279
      f-1     :     0.000133
      f+2     :     0.000143
      f-2     :     0.000424
      f+3     :     0.000208
      f-3     :     0.000340
  8 H s       :     0.635993  s :     0.635993
      pz      :     0.018542  p :     0.048595
      px      :     0.015312
      py      :     0.014741
  9 H s       :     0.883590  s :     0.883590
      pz      :     0.003765  p :     0.017517
      px      :     0.002184
      py      :     0.011568
 10 H s       :     0.857541  s :     0.857541
      pz      :     0.008823  p :     0.020753
      px      :     0.006818
      py      :     0.005113
 11 H s       :     0.866129  s :     0.866129
      pz      :     0.010335  p :     0.020380
      px      :     0.005739
      py      :     0.004306


                     *******************************
                     * LOEWDIN POPULATION ANALYSIS *
                     *******************************

----------------------
LOEWDIN ATOMIC CHARGES
----------------------
   0 C :   -0.008839
   1 O :   -0.004542
   2 H :   -0.034311
   3 H :   -0.000126
   4 H :   -0.002127
   5 H :   -0.002325
   6 C :   -0.395305
   7 O :   -0.018805
   8 H :    0.165596
   9 H :    0.104182
  10 H :    0.105252
  11 H :    0.091350

-------------------------------
LOEWDIN REDUCED ORBITAL CHARGES
-------------------------------
  0 C s       :     0.000915  s :     0.000915
      pz      :     0.005426  p :     0.007535
      px      :     0.000856
      py      :     0.001253
      dz2     :     0.000286  d :     0.000383
      dxz     :     0.000028
      dyz     :     0.000052
      dx2y2   :     0.000010
      dxy     :     0.000006
      f0      :     0.000003  f :     0.000005
      f+1     :     0.000001
      f-1     :     0.000001
      f+2     :     0.000000
      f-2     :     0.000000
      f+3     :     0.000000
      f-3     :     0.000000
  1 O s       :     0.000250  s :     0.000250
      pz      :     0.003932  p :     0.004234
      px      :     0.000154
      py      :     0.000148
      dz2     :     0.000040  d :     0.000056
      dxz     :     0.000013
      dyz     :     0.000002
      dx2y2   :     0.000001
      dxy     :     0.000000
      f0      :     0.000000  f :     0.000002
      f+1     :     0.000001
      f-1     :     0.000000
      f+2     :     0.000000
      f-2     :     0.000000
      f+3     :     0.000000
      f-3     :     0.000000
  2 H s       :     0.031253  s :     0.031253
      pz      :     0.002870  p :     0.003058
      px      :     0.000052
      py      :     0.000136
  3 H s       :     0.000124  s :     0.000124
      pz      :     0.000002  p :     0.000002
      px      :     0.000000
      py      :     0.000000
  4 H s       :     0.002111  s :     0.002111
      pz      :     0.000010  p :     0.000016
      px      :     0.000003
      py      :     0.000003
  5 H s       :     0.002314  s :     0.002314
      pz      :     0.000008  p :     0.000011
      px      :     0.000002
      py      :     0.000001
  6 C s       :     2.855245  s :     2.855245
      pz      :     1.114944  p :     3.052009
      px      :     0.899297
      py      :     1.037768
      dz2     :     0.050358  d :     0.427327
      dxz     :     0.136194
      dyz     :     0.022334
      dx2y2   :     0.122192
      dxy     :     0.096249
      f0      :     0.006928  f :     0.060724
      f+1     :     0.007139
      f-1     :     0.004358
      f+2     :     0.003375
      f-2     :     0.011460
      f+3     :     0.015412
      f-3     :     0.012052
  7 O s       :     3.342334  s :     3.342334
      pz      :     1.615882  p :     4.596901
      px      :     1.342124
      py      :     1.638895
      dz2     :     0.006112  d :     0.074632
      dxz     :     0.022195
      dyz     :     0.007287
      dx2y2   :     0.015188
      dxy     :     0.023851
      f0      :     0.000538  f :     0.004937
      f+1     :     0.000493
      f-1     :     0.000341
      f+2     :     0.000284
      f-2     :     0.001356
      f+3     :     0.001068
      f-3     :     0.000856
  8 H s       :     0.672568  s :     0.672568
      pz      :     0.062694  p :     0.161836
      px      :     0.046989
      py      :     0.052153
  9 H s       :     0.843932  s :     0.843932
      pz      :     0.011590  p :     0.051887
      px      :     0.007250
      py      :     0.033047
 10 H s       :     0.831439  s :     0.831439
      pz      :     0.027556  p :     0.063309
      px      :     0.019231
      py      :     0.016521
 11 H s       :     0.844099  s :     0.844099
      pz      :     0.032818  p :     0.064551
      px      :     0.017531
      py      :     0.014203


                      *****************************
                      * MAYER POPULATION ANALYSIS *
                      *****************************

  NA   - Mulliken gross atomic population
  ZA   - Total nuclear charge
  QA   - Mulliken gross atomic charge
  VA   - Mayer's total valence
  BVA  - Mayer's bonded valence
  FA   - Mayer's free valence

  ATOM       NA         ZA         QA         VA         BVA        FA
  0 C     -0.0025     0.0000     0.0025    -0.0050    -0.0050     0.0000
  1 O      0.0017     0.0000    -0.0017     0.0033     0.0033    -0.0000
  2 H      0.0007     0.0000    -0.0007     0.0015     0.0015     0.0000
  3 H      0.0003     0.0000    -0.0003     0.0005     0.0005     0.0000
  4 H      0.0002     0.0000    -0.0002     0.0004     0.0004    -0.0000
  5 H      0.0065     0.0000    -0.0065     0.0130     0.0130     0.0000
  6 C      6.1677     6.0000    -0.1677     3.9154     3.9154     0.0000
  7 O      8.4749     8.0000    -0.4749     1.8907     1.8907    -0.0000
  8 H      0.6846     1.0000     0.3154     0.9123     0.9123    -0.0000
  9 H      0.9011     1.0000     0.0989     0.9604     0.9604    -0.0000
 10 H      0.8783     1.0000     0.1217     0.9563     0.9563    -0.0000
 11 H      0.8865     1.0000     0.1135     0.9597     0.9597     0.0000

  Mayer bond orders larger than 0.1
B(  6-C ,  7-O ) :   0.9819 B(  6-C ,  9-H ) :   0.9741 B(  6-C , 10-H ) :   0.9770 
B(  6-C , 11-H ) :   0.9755 B(  7-O ,  8-H ) :   0.8971 

-------
TIMINGS
-------

Total SCF time: 0 days 0 hours 0 min 12 sec 

Total time                  ....      12.691 sec
Sum of individual times     ....      12.046 sec  ( 94.9%)

Fock matrix formation       ....      11.201 sec  ( 88.3%)
  XC integration            ....       2.681 sec  ( 23.9% of F)
    Basis function eval.    ....       0.065 sec  (  2.4% of XC)
    Density eval.           ....       0.093 sec  (  3.5% of XC)
    XC-Functional eval.     ....       0.093 sec  (  3.5% of XC)
    XC-Potential eval.      ....       0.076 sec  (  2.8% of XC)
Diagonalization             ....       0.110 sec  (  0.9%)
Density matrix formation    ....       0.004 sec  (  0.0%)
Population analysis         ....       0.019 sec  (  0.2%)
Initial guess               ....       0.158 sec  (  1.2%)
Orbital Transformation      ....       0.000 sec  (  0.0%)
Orbital Orthonormalization  ....       0.000 sec  (  0.0%)
DIIS solution               ....       0.045 sec  (  0.4%)
SOSCF solution              ....       0.024 sec  (  0.2%)
Grid generation             ....       0.484 sec  (  3.8%)


-------------------------------------------------------------------------------
                          DFT DISPERSION CORRECTION                            
                                                                               
                              DFTD3 V3.1  Rev 1                                
                              USING zero damping                               
-------------------------------------------------------------------------------
The omegaB97X-D3 functional is recognized. Fit by Chai et al.
Active option DFTDOPT                   ...         3   

molecular C6(AA) [au] = 208.740686 


            DFT-D V3
 parameters
 s6 scaling factor         :     1.0000 
 rs6 scaling factor        :     1.2810 
 s8 scaling factor         :     1.0000 
 rs8 scaling factor        :     1.0940 
 Damping factor alpha6     :    14.0000 
 Damping factor alpha8     :    16.0000 
 ad hoc parameters k1-k3   :    16.0000     1.3333    -4.0000 

 Edisp/kcal,au: -0.149144713205  -0.000237677204 
 E6   /kcal   :  -0.029270598 
 E8   /kcal   :  -0.119874115 
 % E8         :  80.374364374 

-------------------------   ----------------
Dispersion correction           -0.000237677
-------------------------   ----------------


-------------------------   --------------------
FINAL SINGLE POINT ENERGY      -115.734677275030
-------------------------   --------------------


                            ***************************************
                            *     ORCA property calculations      *
                            ***************************************

                                    ---------------------
                                    Active property flags
                                    ---------------------
   (+) Dipole Moment


------------------------------------------------------------------------------
                       ORCA ELECTRIC PROPERTIES CALCULATION
------------------------------------------------------------------------------

Dipole Moment Calculation                       ... on
Quadrupole Moment Calculation                   ... off
Polarizability Calculation                      ... off
GBWName                                         ... 7-167_DFT_B.gbw
Electron density file                           ... 7-167_DFT_B.scfp.tmp
The origin for moment calculation is the CENTER OF MASS  = (-1.753139,  9.252179 -12.065779)

-------------
DIPOLE MOMENT
-------------
                                X             Y             Z
Electronic contribution:      1.52632      -1.01884      -0.06913
Nuclear contribution   :     -1.62275       1.52833       0.44872
                        -----------------------------------------
Total Dipole Moment    :     -0.09643       0.50949       0.37959
                        -----------------------------------------
Magnitude (a.u.)       :      0.64263
Magnitude (Debye)      :      1.63343



--------------------
Rotational spectrum 
--------------------
 
Rotational constants in cm-1:     4.351750     0.848086     0.821047 
Rotational constants in MHz : 130462.177985 25424.990898 24614.378657 

 Dipole components along the rotational axes: 
x,y,z [a.u.] :    -0.303815     0.552319    -0.124943 
x,y,z [Debye]:    -0.772237     1.403883    -0.317579 

 
------------------------------------------------------------------------------
                      ORCA CHELPG CHARGES GENERATION
------------------------------------------------------------------------------

GBW file                           ... 7-167_DFT_B.gbw

Reading the GBW file               ... done

Grid spacing                       ...     0.300000
Point Cut-Off                      ...     2.800000
Van-der-Waals Radii                ...        COSMO
Total charge                       ...            0


Number of points X direction       ...           29
Number of points Y direction       ...           25
Number of points Z direction       ...           34
Maximum number of possible points  ...        24650
Final number of points             ...         5960


CHELPG Charges            
--------------------------------
  0   C   :       0.003510
  1   O   :      -0.004272
  2   H   :      -0.000538
  3   H   :      -0.008375
  4   H   :       0.002472
  5   H   :      -0.006873
  6   C   :       0.095843
  7   O   :      -0.585555
  8   H   :       0.401087
  9   H   :       0.003983
 10   H   :       0.082894
 11   H   :       0.015825
--------------------------------
Total charge:     0.000000
--------------------------------

CHELPG charges calculated...

Timings for individual parts in CHELPG calculation:
Grid generation                 ...        0.001 sec (=   0.000 min)
Potential calculation           ...        1.386 sec (=   0.023 min)
Fit to the potential            ...        0.003 sec (=   0.000 min)
------------------------------------------------------------------------------


Timings for individual modules:

Sum of individual times         ...       15.188 sec (=   0.253 min)
GTO integral calculation        ...        0.714 sec (=   0.012 min)   4.7 %
SCF iterations                  ...       13.048 sec (=   0.217 min)  85.9 %
CHELPG charge generation        ...        1.426 sec (=   0.024 min)   9.4 %



                             ****ORCA TERMINATED NORMALLY****
TOTAL RUN TIME: 0 days 0 hours 1 minutes 4 seconds 977 msec
