6
Coordinates from ORCA-job scan-reverse_geo_opt Relaxed Surface Scan Step 1
  C       3.011359     -1.180929      0.598523
  O       4.394696     -1.128029      0.874280
  H       4.772183     -0.378986      0.412487
  H       2.806443     -1.318975     -0.469318
  H       2.611531     -2.040253      1.135873
  H       2.484787     -0.284517      0.945655
>
6
Coordinates from ORCA-job scan-reverse_geo_opt Relaxed Surface Scan Step 2
  C       3.009126     -1.174640      0.608330
  O       4.384662     -1.092297      0.915332
  H       4.785002     -0.423352      0.359679
  H       2.829625     -1.294443     -0.465837
  H       2.616568     -2.051852      1.121621
  H       2.456017     -0.295107      0.958375
>
6
Coordinates from ORCA-job scan-reverse_geo_opt Relaxed Surface Scan Step 3
  C       3.006693     -1.167554      0.616867
  O       4.374220     -1.050135      0.950062
  H       4.799275     -0.474336      0.314827
  H       2.848904     -1.270212     -0.461883
  H       2.625371     -2.062686      1.107792
  H       2.426537     -0.306767      0.969834
>
6
Coordinates from ORCA-job scan-reverse_geo_opt Relaxed Surface Scan Step 4
  C       3.004150     -1.159660      0.623810
  O       4.363312     -1.002412      0.977890
  H       4.814684     -0.530785      0.278939
  H       2.863552     -1.246882     -0.458031
  H       2.637852     -2.072559      1.094263
  H       2.397450     -0.319392      0.980629
>
6
Coordinates from ORCA-job scan-reverse_geo_opt Relaxed Surface Scan Step 5
  C       3.001612     -1.151082      0.628933
  O       4.351883     -0.950292      0.998277
  H       4.830617     -0.591442      0.252816
  H       2.873210     -1.224795     -0.454849
  H       2.653888     -2.081290      1.081073
  H       2.369789     -0.332790      0.991251
>
6
Coordinates from ORCA-job scan-reverse_geo_opt Relaxed Surface Scan Step 6
  C       2.999182     -1.141963      0.632075
  O       4.339911     -0.895111      1.010769
  H       4.846449     -0.655048      0.237025
  H       2.877760     -1.204106     -0.452822
  H       2.673363     -2.088708      1.068320
  H       2.344336     -0.346755      1.002132
>
6
Coordinates from ORCA-job scan-reverse_geo_opt Relaxed Surface Scan Step 7
  C       2.996930     -1.132513      0.633136
  O       4.327476     -0.838354      1.015039
  H       4.861633     -0.720278      0.231915
  H       2.877173     -1.184791     -0.452291
  H       2.696116     -2.094678      1.056142
  H       2.321672     -0.361076      1.013559
>
6
Coordinates from ORCA-job scan-reverse_geo_opt Relaxed Surface Scan Step 8
  C       2.994922     -1.122999      0.632091
  O       4.314823     -0.781574      1.010972
  H       4.875693     -0.785745      0.237565
  H       2.871453     -1.166712     -0.453396
  H       2.721885     -2.099121      1.044629
  H       2.302225     -0.375539      1.025638
>
6
Coordinates from ORCA-job scan-reverse_geo_opt Relaxed Surface Scan Step 9
  C       2.993237     -1.113690      0.628999
  O       4.302397     -0.726273      0.998698
  H       4.888224     -0.850057      0.253781
  H       2.860618     -1.149705     -0.456044
  H       2.750269     -2.102010      1.033750
  H       2.286256     -0.389956      1.038316
>
6
Coordinates from ORCA-job scan-reverse_geo_opt Relaxed Surface Scan Step 10
  C       2.991888     -1.104910      0.623914
  O       4.290684     -0.673942      0.978413
  H       4.899400     -0.911626      0.280282
  H       2.844427     -1.133702     -0.459968
  H       2.780600     -2.103393      1.023384
  H       2.274001     -0.404117      1.051475
>
6
Coordinates from ORCA-job scan-reverse_geo_opt Relaxed Surface Scan Step 11
  C       2.990876     -1.096797      0.617027
  O       4.280303     -0.625793      0.950584
  H       4.909134     -0.969133      0.316423
  H       2.823040     -1.118770     -0.464681
  H       2.812154     -2.103390      1.013116
  H       2.265494     -0.417807      1.065031
>
6
Coordinates from ORCA-job scan-reverse_geo_opt Relaxed Surface Scan Step 12
  C       2.990139     -1.089489      0.608547
  O       4.271809     -0.582916      0.915747
  H       4.917509     -1.021225      0.361402
  H       2.796781     -1.105046     -0.469617
  H       2.843980     -2.102231      1.002473
  H       2.260782     -0.430783      1.078948
>
6
Coordinates from ORCA-job scan-reverse_geo_opt Relaxed Surface Scan Step 13
  C       2.989600     -1.083021      0.598776
  O       4.265673     -0.546179      0.874487
  H       4.924429     -1.066722      0.414200
  H       2.766417     -1.092707     -0.474171
  H       2.875046     -2.100237      0.990910
  H       2.259834     -0.442824      1.093298
>
6
Coordinates from ORCA-job scan-reverse_geo_opt Relaxed Surface Scan Step 14
  C       2.989175     -1.077368      0.588119
  O       4.262237     -0.516258      0.827430
  H       4.929564     -1.104619      0.473592
  H       2.733147     -1.081866     -0.477783
  H       2.904323     -2.097831      0.977934
  H       2.262554     -0.453747      1.108207
>
6
Coordinates from ORCA-job scan-reverse_geo_opt Relaxed Surface Scan Step 15
  C       2.988782     -1.072550      0.577063
  O       4.261614     -0.493802      0.775233
  H       4.932557     -1.133905      0.538217
  H       2.698395     -1.072515     -0.480012
  H       2.930755     -2.095574      0.963187
  H       2.268897     -0.463345      1.123813
>
6
Coordinates from ORCA-job scan-reverse_geo_opt Relaxed Surface Scan Step 16
  C       2.988353     -1.068571      0.566098
  O       4.263682     -0.479501      0.718660
  H       4.933107     -1.153590      0.606650
  H       2.663612     -1.064552     -0.480621
  H       2.953374     -2.094061      0.946424
  H       2.278873     -0.471415      1.140289
>
6
Coordinates from ORCA-job scan-reverse_geo_opt Relaxed Surface Scan Step 17
  C       2.987967     -1.065554      0.555691
  O       4.268153     -0.473975      0.658886
  H       4.930784     -1.162826      0.677182
  H       2.630160     -1.057582     -0.479558
  H       2.971433     -2.093899      0.927735
  H       2.292502     -0.477853      1.157563
>
6
Coordinates from ORCA-job scan-reverse_geo_opt Relaxed Surface Scan Step 18
  C       2.987772     -1.063771      0.546158
  O       4.274517     -0.477790      0.597529
  H       4.925566     -1.160811      0.747936
  H       2.599065     -1.051012     -0.476970
  H       2.984195     -2.095664      0.907461
  H       2.309884     -0.482642      1.175387
>
6
Coordinates from ORCA-job scan-reverse_geo_opt Relaxed Surface Scan Step 19
  C       2.988004     -1.063620      0.537611
  O       4.282213     -0.491101      0.536696
  H       4.917558     -1.147163      0.816850
  H       2.570986     -1.044039     -0.473148
  H       2.991174     -2.099788      0.886242
  H       2.331065     -0.485978      1.193249
>
6
Coordinates from ORCA-job scan-reverse_geo_opt Relaxed Surface Scan Step 20
  C       2.988901     -1.065594      0.529962
  O       4.290755     -0.513469      0.478762
  H       4.907072     -1.122086      0.881838
  H       2.546193     -1.035737     -0.468436
  H       2.992164     -2.106508      0.864950
  H       2.355916     -0.488296      1.210424
>
6
Coordinates from ORCA-job scan-reverse_geo_opt Relaxed Surface Scan Step 21
  C       2.990563     -1.070103      0.523039
  O       4.299822     -0.543923      0.425938
  H       4.894732     -1.086341      0.941046
  H       2.524740     -1.025297     -0.463140
  H       2.987157     -2.115813      0.844410
  H       2.383986     -0.490212      1.226207
>
6
Coordinates from ORCA-job scan-reverse_geo_opt Relaxed Surface Scan Step 22
  C       2.992926     -1.077263      0.516718
  O       4.309349     -0.581146      0.379879
  H       4.881123     -1.041189      0.993048
  H       2.506662     -1.012288     -0.457469
  H       2.976434     -2.127385      0.825136
  H       2.414505     -0.492419      1.240189
>
6
Coordinates from ORCA-job scan-reverse_geo_opt Relaxed Surface Scan Step 23
  C       2.995815     -1.086809      0.510947
  O       4.319482     -0.623755      0.341561
  H       4.866541     -0.988225      1.036918
  H       2.492002     -0.996746     -0.451536
  H       2.960626     -2.140595      0.807255
  H       2.446534     -0.495561      1.252355
>
6
Coordinates from ORCA-job scan-reverse_geo_opt Relaxed Surface Scan Step 24
  C       2.998978     -1.098275      0.505777
  O       4.330360     -0.670553      0.311566
  H       4.851322     -0.929025      1.071986
  H       2.480880     -0.978980     -0.445411
  H       2.940438     -2.154706      0.790627
  H       2.479022     -0.500151      1.262954
>
6
Coordinates from ORCA-job scan-reverse_geo_opt Relaxed Surface Scan Step 25
  C       3.002151     -1.110968      0.501347
  O       4.342089     -0.720594      0.290176
  H       4.835743     -0.865116      1.097781
  H       2.473440     -0.959556     -0.439186
  H       2.916693     -2.168893      0.774873
  H       2.510884     -0.506563      1.272509
>
6
Coordinates from ORCA-job scan-reverse_geo_opt Relaxed Surface Scan Step 26
  C       3.005162     -1.124141      0.497826
  O       4.354666     -0.773059      0.277566
  H       4.820000     -0.798053      1.113892
  H       2.469769     -0.939062     -0.432958
  H       2.890381     -2.182370      0.759585
  H       2.541021     -0.515006      1.281588
>
6
Coordinates from ORCA-job scan-reverse_geo_opt Relaxed Surface Scan Step 27
  C       3.007844     -1.137004      0.495500
  O       4.367845     -0.827291      0.273952
  H       4.804575     -0.729203      1.119856
  H       2.470050     -0.918150     -0.426936
  H       2.862400     -2.194466      0.744214
  H       2.568286     -0.525575      1.290914
>
6
Coordinates from ORCA-job scan-reverse_geo_opt Relaxed Surface Scan Step 28
  C       3.010120     -1.148846      0.494620
  O       4.381212     -0.882522      0.279521
  H       4.789802     -0.660105      1.115251
  H       2.474350     -0.897339     -0.421334
  H       2.833871     -2.204665      0.728317
  H       2.591646     -0.538214      1.301125
>
6
Coordinates from ORCA-job scan-reverse_geo_opt Relaxed Surface Scan Step 29
  C       3.011944     -1.159111      0.495446
  O       4.394097     -0.937769      0.294453
  H       4.776219     -0.592349      1.099701
  H       2.482734     -0.876998     -0.416339
  H       2.805896     -2.212697      0.711511
  H       2.610110     -0.552766      1.312728
>
6
Coordinates from ORCA-job scan-reverse_geo_opt Relaxed Surface Scan Step 30
  C       3.013359     -1.167499      0.498192
  O       4.405721     -0.991688      0.318671
  H       4.764243     -0.527718      1.073058
  H       2.495206     -0.857272     -0.411944
  H       2.779594     -2.218571      0.693585
  H       2.622876     -0.568942      1.325937
>
6
Coordinates from ORCA-job scan-reverse_geo_opt Relaxed Surface Scan Step 31
  C       3.014479     -1.174041      0.502967
  O       4.415373     -1.042564      0.351624
  H       4.754089     -0.468130      1.035624
  H       2.511657     -0.838031     -0.407842
  H       2.755972     -2.222594      0.674577
  H       2.629431     -0.586331      1.340549
>
6
Coordinates from ORCA-job scan-reverse_geo_opt Relaxed Surface Scan Step 32
  C       3.015400     -1.179058      0.509765
  O       4.422540     -1.088503      0.392232
  H       4.745912     -0.415419      0.988236
  H       2.531847     -0.818947     -0.403468
  H       2.735778     -2.225291      0.654735
  H       2.629522     -0.604472      1.356000
>
6
Coordinates from ORCA-job scan-reverse_geo_opt Relaxed Surface Scan Step 33
  C       3.016161     -1.183060      0.518360
  O       4.427084     -1.127702      0.438893
  H       4.739748     -0.371172      0.932395
  H       2.555248     -0.799567     -0.398099
  H       2.719496     -2.227284      0.634551
  H       2.623263     -0.622905      1.371399
>
6
Coordinates from ORCA-job scan-reverse_geo_opt Relaxed Surface Scan Step 34
  C       3.016724     -1.186426      0.528449
  O       4.429228     -1.158851      0.489867
  H       4.735602     -0.336399      0.869937
  H       2.581092     -0.779674     -0.391121
  H       2.707239     -2.229024      0.614390
  H       2.611115     -0.641315      1.385979
>
6
Coordinates from ORCA-job scan-reverse_geo_opt Relaxed Surface Scan Step 35
  C       3.017015     -1.189347      0.539612
  O       4.429362     -1.181131      0.543533
  H       4.733546     -0.311636      0.802867
  H       2.608335     -0.759271     -0.382155
  H       2.698936     -2.230754      0.594528
  H       2.593807     -0.659551      1.399115
>
6
Coordinates from ORCA-job scan-reverse_geo_opt Relaxed Surface Scan Step 36
  C       3.016952     -1.191740      0.551433
  O       4.427898     -1.194223      0.598595
  H       4.733678     -0.297027      0.733097
  H       2.635746     -0.738622     -0.371149
  H       2.694460     -2.232457      0.575032
  H       2.572266     -0.677621      1.410494
