6
Coordinates from ORCA-job scan-forward_geo_opt Relaxed Surface Scan Step 1
  C       3.011359     -1.180929      0.598523
  O       4.394696     -1.128029      0.874280
  H       4.772183     -0.378986      0.412487
  H       2.806443     -1.318975     -0.469318
  H       2.611531     -2.040253      1.135873
  H       2.484787     -0.284517      0.945655
>
6
Coordinates from ORCA-job scan-forward_geo_opt Relaxed Surface Scan Step 2
  C       3.013390     -1.186524      0.587957
  O       4.404460     -1.156592      0.827023
  H       4.760795     -0.342086      0.471824
  H       2.780097     -1.342746     -0.471735
  H       2.610345     -2.028408      1.150428
  H       2.511914     -0.275334      0.932003
>
6
Coordinates from ORCA-job scan-forward_geo_opt Relaxed Surface Scan Step 3
  C       3.015032     -1.191324      0.577096
  O       4.413532     -1.177226      0.774444
  H       4.751206     -0.314017      0.536412
  H       2.752160     -1.365574     -0.472736
  H       2.613080     -2.016289      1.165755
  H       2.535989     -0.267260      0.916530
>
6
Coordinates from ORCA-job scan-forward_geo_opt Relaxed Surface Scan Step 4
  C       3.016305     -1.195351      0.566448
  O       4.421557     -1.189392      0.717394
  H       4.743300     -0.295786      0.604773
  H       2.724043     -1.387006     -0.472133
  H       2.619702     -2.004033      1.181952
  H       2.556093     -0.260123      0.899066
>
6
Coordinates from ORCA-job scan-forward_geo_opt Relaxed Surface Scan Step 5
  C       3.017212     -1.198413      0.556410
  O       4.427900     -1.192601      0.657105
  H       4.737275     -0.288389      0.675255
  H       2.697047     -1.406879     -0.469947
  H       2.630348     -1.991690      1.198971
  H       2.571219     -0.253718      0.879706
>
6
Coordinates from ORCA-job scan-forward_geo_opt Relaxed Surface Scan Step 6
  C       3.017786     -1.200124      0.547222
  O       4.431880     -1.186583      0.595349
  H       4.733378     -0.292578      0.745939
  H       2.672298     -1.425413     -0.466359
  H       2.645121     -1.979192      1.216474
  H       2.580537     -0.247801      0.858874
>
6
Coordinates from ORCA-job scan-forward_geo_opt Relaxed Surface Scan Step 7
  C       3.018050     -1.199966      0.538914
  O       4.432953     -1.171464      0.534367
  H       4.731931     -0.308591      0.814736
  H       2.650645     -1.443184     -0.461651
  H       2.663944     -1.966333      1.233851
  H       2.583477     -0.242152      0.837284
>
6
Coordinates from ORCA-job scan-forward_geo_opt Relaxed Surface Scan Step 8
  C       3.017995     -1.197398      0.531360
  O       4.430949     -1.147874      0.476569
  H       4.733188     -0.335988      0.879546
  H       2.632668     -1.460991     -0.456100
  H       2.686366     -1.952811      1.250287
  H       2.579833     -0.236627      0.815838
>
6
Coordinates from ORCA-job scan-forward_geo_opt Relaxed Surface Scan Step 9
  C       3.017534     -1.192117      0.524396
  O       4.426080     -1.116799      0.424067
  H       4.737367     -0.373747      0.938577
  H       2.618722     -1.479464     -0.449956
  H       2.711594     -1.938301      1.265140
  H       2.569703     -0.231262      0.795277
>
6
Coordinates from ORCA-job scan-forward_geo_opt Relaxed Surface Scan Step 10
  C       3.016597     -1.184189      0.517868
  O       4.418963     -1.079453      0.378331
  H       4.744162     -0.420442      0.990544
  H       2.608910     -1.498859     -0.443402
  H       2.738631     -1.922501      1.278122
  H       2.553737     -0.226246      0.776037
>
6
Coordinates from ORCA-job scan-forward_geo_opt Relaxed Surface Scan Step 11
  C       3.015083     -1.173987      0.511782
  O       4.410212     -1.036911      0.340324
  H       4.753426     -0.474580      1.034506
  H       2.603285     -1.519021     -0.436574
  H       2.766358     -1.905253      1.289309
  H       2.532636     -0.221938      0.758152
>
6
Coordinates from ORCA-job scan-forward_geo_opt Relaxed Surface Scan Step 12
  C       3.013028     -1.162102      0.506232
  O       4.400482     -0.990134      0.310551
  H       4.764664     -0.534602      1.069806
  H       2.601747     -1.539564     -0.429519
  H       2.793590     -1.886568      1.298982
  H       2.507490     -0.218721      0.741448
>
6
Coordinates from ORCA-job scan-forward_geo_opt Relaxed Surface Scan Step 13
  C       3.010537     -1.149268      0.501416
  O       4.390242     -0.939888      0.289274
  H       4.777437     -0.599028      1.095932
  H       2.604156     -1.559913     -0.422320
  H       2.819179     -1.866611      1.307659
  H       2.479448     -0.216983      0.725540
>
6
Coordinates from ORCA-job scan-forward_geo_opt Relaxed Surface Scan Step 14
  C       3.007736     -1.136252      0.497609
  O       4.379698     -0.886866      0.276734
  H       4.791511     -0.666420      1.112355
  H       2.610423     -1.579434     -0.415164
  H       2.841996     -1.845672      1.315996
  H       2.449635     -0.217045      0.709970
>
6
Coordinates from ORCA-job scan-forward_geo_opt Relaxed Surface Scan Step 15
  C       3.004797     -1.123799      0.495097
  O       4.368874     -0.831822      0.273159
  H       4.806613     -0.735322      1.118562
  H       2.620435     -1.597545     -0.408314
  H       2.861029     -1.824127      1.324711
  H       2.419251     -0.219074      0.694284
>
6
Coordinates from ORCA-job scan-forward_geo_opt Relaxed Surface Scan Step 16
  C       3.001938     -1.112542      0.494151
  O       4.357664     -0.775697      0.278781
  H       4.822422     -0.804203      1.114079
  H       2.634051     -1.613784     -0.402029
  H       2.875426     -1.802427      1.334448
  H       2.389499     -0.223037      0.678069
>
6
Coordinates from ORCA-job scan-forward_geo_opt Relaxed Surface Scan Step 17
  C       2.999349     -1.102923      0.495047
  O       4.345865     -0.719760      0.293790
  H       4.838762     -0.871342      1.098495
  H       2.651179     -1.627872     -0.396449
  H       2.884357     -1.781148      1.345633
  H       2.361489     -0.228646      0.660985
>
6
Coordinates from ORCA-job scan-forward_geo_opt Relaxed Surface Scan Step 18
  C       2.997223     -1.095123      0.497994
  O       4.333406     -0.665610      0.318060
  H       4.855143     -0.934986      1.071692
  H       2.671718     -1.639699     -0.391489
  H       2.887346     -1.760864      1.358437
  H       2.336164     -0.235409      0.642806
>
6
Coordinates from ORCA-job scan-forward_geo_opt Relaxed Surface Scan Step 19
  C       2.995596     -1.088949      0.503070
  O       4.320414     -0.615233      0.351009
  H       4.871056     -0.993231      1.034006
  H       2.695641     -1.649512     -0.386728
  H       2.884084     -1.742207      1.372519
  H       2.314210     -0.242558      0.623624
>
6
Coordinates from ORCA-job scan-forward_geo_opt Relaxed Surface Scan Step 20
  C       2.994385     -1.084019      0.510183
  O       4.307341     -0.570566      0.391462
  H       4.885754     -1.044382      0.986400
  H       2.722811     -1.657766     -0.381525
  H       2.874687     -1.725683      1.387237
  H       2.296021     -0.249274      0.603743
>
6
Coordinates from ORCA-job scan-forward_geo_opt Relaxed Surface Scan Step 21
  C       2.993374     -1.079874      0.519054
  O       4.294883     -0.533232      0.437792
  H       4.898618     -1.087069      0.930447
  H       2.752888     -1.665062     -0.375143
  H       2.859563     -1.711632      1.401718
  H       2.281674     -0.254822      0.583631
>
6
Coordinates from ORCA-job scan-forward_geo_opt Relaxed Surface Scan Step 22
  C       2.992362     -1.076253      0.529330
  O       4.283786     -0.504277      0.488327
  H       4.909335     -1.120384      0.868007
  H       2.785168     -1.671877     -0.367010
  H       2.839303     -1.700113      1.415230
  H       2.271046     -0.258786      0.563615
>
6
Coordinates from ORCA-job scan-forward_geo_opt Relaxed Surface Scan Step 23
  C       2.991254     -1.073138      0.540613
  O       4.274721     -0.484165      0.541590
  H       4.917808     -1.143864      0.801020
  H       2.818585     -1.678530     -0.356848
  H       2.814669     -1.690892      1.427282
  H       2.263962     -0.261101      0.543844
>
6
Coordinates from ORCA-job scan-forward_geo_opt Relaxed Surface Scan Step 24
  C       2.990073     -1.070668      0.552437
  O       4.268173     -0.472980      0.596364
  H       4.924013     -1.157322      0.731411
  H       2.851832     -1.685317     -0.344685
  H       2.786581     -1.683515      1.437565
  H       2.260330     -0.261888      0.524408
>
6
Coordinates from ORCA-job scan-forward_geo_opt Relaxed Surface Scan Step 25
  C       2.988900     -1.069093      0.564347
  O       4.264347     -0.470677      0.651654
  H       4.928145     -1.160644      0.661018
  H       2.883472     -1.692528     -0.330828
  H       2.755967     -1.677422      1.445958
  H       2.260169     -0.261326      0.505351
>
6
Coordinates from ORCA-job scan-forward_geo_opt Relaxed Surface Scan Step 26
  C       2.987870     -1.068759      0.576009
  O       4.263205     -0.477146      0.706608
  H       4.930483     -1.153772      0.591481
  H       2.912115     -1.700374     -0.315834
  H       2.723707     -1.671988      1.452626
  H       2.263620     -0.259651      0.486610
>
6
Coordinates from ORCA-job scan-forward_geo_opt Relaxed Surface Scan Step 27
  C       2.987140     -1.069905      0.587154
  O       4.264575     -0.492152      0.760325
  H       4.930970     -1.136903      0.524369
  H       2.936718     -1.709035     -0.300375
  H       2.690820     -1.666581      1.457878
  H       2.270777     -0.257114      0.468149
>
6
Coordinates from ORCA-job scan-forward_geo_opt Relaxed Surface Scan Step 28
  C       2.986789     -1.072641      0.597453
  O       4.268097     -0.515404      0.811718
  H       4.929620     -1.110380      0.461302
  H       2.956499     -1.718795     -0.285123
  H       2.658328     -1.660626      1.462041
  H       2.281668     -0.253843      0.450108
>
6
Coordinates from ORCA-job scan-forward_geo_opt Relaxed Surface Scan Step 29
  C       2.986911     -1.077000      0.606681
  O       4.273373     -0.546361      0.859692
  H       4.926139     -1.074883      0.403650
  H       2.971199     -1.729821     -0.270692
  H       2.627138     -1.653605      1.465550
  H       2.296240     -0.250020      0.432619
>
6
Coordinates from ORCA-job scan-forward_geo_opt Relaxed Surface Scan Step 30
  C       2.987550     -1.082880      0.614584
  O       4.279994     -0.584268      0.903069
  H       4.920295     -1.031296      0.352684
  H       2.980810     -1.742339     -0.257490
  H       2.598001     -1.645165      1.468736
  H       2.314350     -0.245742      0.415917
>
6
Coordinates from ORCA-job scan-forward_geo_opt Relaxed Surface Scan Step 31
  C       2.988718     -1.090137      0.620967
  O       4.287589     -0.628161      0.940708
  H       4.911991     -0.980607      0.309477
  H       2.985406     -1.756568     -0.245686
  H       2.571441     -1.635139      1.471837
  H       2.335855     -0.241078      0.400198
>
6
Coordinates from ORCA-job scan-forward_geo_opt Relaxed Surface Scan Step 32
  C       2.990372     -1.098582      0.625675
  O       4.295903     -0.676881      0.971575
  H       4.901358     -0.923895      0.274937
  H       2.984987     -1.772672     -0.235241
  H       2.547843     -1.623536      1.474992
  H       2.360538     -0.236125      0.385561
>
6
Coordinates from ORCA-job scan-forward_geo_opt Relaxed Surface Scan Step 33
  C       2.992450     -1.107923      0.628577
  O       4.304836     -0.729070      0.994823
  H       4.888634     -0.862454      0.249794
  H       2.979566     -1.790699     -0.225914
  H       2.527533     -1.610503      1.478195
  H       2.387982     -0.231041      0.372025
>
6
Coordinates from ORCA-job scan-forward_geo_opt Relaxed Surface Scan Step 34
  C       2.994860     -1.117970      0.629578
  O       4.314354     -0.783401      1.009732
  H       4.874542     -0.797485      0.234673
  H       2.968915     -1.810504     -0.217463
  H       2.510745     -1.596149      1.481525
  H       2.417584     -0.226180      0.359455
>
6
Coordinates from ORCA-job scan-forward_geo_opt Relaxed Surface Scan Step 35
  C       2.997551     -1.128431      0.628716
  O       4.324603     -0.838466      1.015935
  H       4.859497     -0.730502      0.229815
  H       2.953217     -1.831665     -0.209515
  H       2.497605     -1.580678      1.484959
  H       2.448528     -0.221948      0.347590
>
6
Coordinates from ORCA-job scan-forward_geo_opt Relaxed Surface Scan Step 36
  C       3.000388     -1.139143      0.626108
  O       4.335639     -0.893041      1.013123
  H       4.844246     -0.662886      0.235390
  H       2.932665     -1.853560     -0.201794
  H       2.488232     -1.564217      1.488679
  H       2.479831     -0.218843      0.335994
