
                                 *****************
                                 * O   R   C   A *
                                 *****************

           --- An Ab Initio, DFT and Semiempirical electronic structure package ---

                  #######################################################
                  #                        -***-                        #
                  #          Department of theory and spectroscopy      #
                  #               Directorship: Frank Neese             #
                  #        Max Planck Institute fuer Kohlenforschung    #
                  #                Kaiser Wilhelm Platz 1               #
                  #                 D-45470 Muelheim/Ruhr               #
                  #                      Germany                        #
                  #                                                     #
                  #                  All rights reserved                #
                  #                        -***-                        #
                  #######################################################


                         Program Version 4.1.2  - RELEASE  -


 With contributions from (in alphabetic order):
   Daniel Aravena         : Magnetic Properties
   Michael Atanasov       : Ab Initio Ligand Field Theory
   Alexander A. Auer      : GIAO ZORA
   Ute Becker             : Parallelization
   Giovanni Bistoni       : ED, Open-shell LED
   Martin Brehm           : Molecular dynamics
   Dmytro Bykov           : SCF Hessian
   Vijay G. Chilkuri      : MRCI spin determinant printing
   Dipayan Datta          : RHF DLPNO-CCSD density
   Achintya Kumar Dutta   : EOM-CC, STEOM-CC
   Dmitry Ganyushin       : Spin-Orbit,Spin-Spin,Magnetic field MRCI
   Miquel Garcia          : C-PCM Hessian
   Yang Guo               : DLPNO-NEVPT2, CIM, IAO-localization
   Andreas Hansen         : Spin unrestricted coupled pair/coupled cluster methods
   Benjamin Helmich-Paris : CASSCF linear response (MC-RPA)
   Lee Huntington         : MR-EOM, pCC
   Robert Izsak           : Overlap fitted RIJCOSX, COSX-SCS-MP3, EOM
   Christian Kollmar      : KDIIS, OOCD, Brueckner-CCSD(T), CCSD density
   Simone Kossmann        : Meta GGA functionals, TD-DFT gradient, OOMP2, MP2 Hessian
   Martin Krupicka        : AUTO-CI
   Lucas Lang             : DCDCAS
   Dagmar Lenk            : GEPOL surface, SMD
   Dimitrios Liakos       : Extrapolation schemes; parallel MDCI
   Dimitrios Manganas     : ROCIS; embedding schemes
   Dimitrios Pantazis     : SARC Basis sets
   Taras Petrenko         : DFT Hessian,TD-DFT gradient, ASA, ECA, R-Raman, ABS, FL, XAS/XES, NRVS
   Peter Pinski           : DLPNO-MP2, DLPNO-MP2 Gradient
   Christoph Reimann      : Effective Core Potentials
   Marius Retegan         : Local ZFS, SOC
   Christoph Riplinger    : Optimizer, TS searches, QM/MM, DLPNO-CCSD(T), (RO)-DLPNO pert. Triples
   Tobias Risthaus        : Range-separated hybrids, TD-DFT gradient, RPA, STAB
   Michael Roemelt        : Restricted open shell CIS
   Masaaki Saitow         : Open-shell DLPNO
   Barbara Sandhoefer     : DKH picture change effects
   Avijit Sen             : IP-ROCIS
   Kantharuban Sivalingam : CASSCF convergence, NEVPT2, FIC-MRCI
   Bernardo de Souza      : ESD, SOC TD-DFT
   Georgi Stoychev        : AutoAux, RI-MP2 NMR
   Willem Van den Heuvel  : Paramagnetic NMR
   Boris Wezisla          : Elementary symmetry handling
   Frank Wennmohs         : Technical directorship


 We gratefully acknowledge several colleagues who have allowed us to
 interface, adapt or use parts of their codes:
   Stefan Grimme, W. Hujo, H. Kruse,             : VdW corrections, initial TS optimization,
                  C. Bannwarth                     DFT functionals, gCP, sTDA/sTD-DF
   Ed Valeev                                     : LibInt (2-el integral package), F12 methods
   Garnet Chan, S. Sharma, J. Yang, R. Olivares  : DMRG
   Ulf Ekstrom                                   : XCFun DFT Library
   Mihaly Kallay                                 : mrcc  (arbitrary order and MRCC methods)
   Andreas Klamt, Michael Diedenhofen            : otool_cosmo (COSMO solvation model)
   Jiri Pittner, Ondrej Demel                    : Mk-CCSD
   Frank Weinhold                                : gennbo (NPA and NBO analysis)
   Christopher J. Cramer and Donald G. Truhlar   : smd solvation model
   Lars Goerigk                                  : TD-DFT with DH, B97 family of functionals
   V. Asgeirsson, H. Jonsson                     : NEB implementation
   FAccTs GmbH                                   : IRC, NEB, NEB-TS, Multilevel


 Your calculation uses the libint2 library for the computation of 2-el integrals
 For citations please refer to: http://libint.valeyev.net

 This ORCA versions uses:
   CBLAS   interface :  Fast vector & matrix operations
   LAPACKE interface :  Fast linear algebra routines
   SCALAPACK package :  Parallel linear algebra routines


Your calculation utilizes the atom-pairwise dispersion correction
with the zero-damping scheme (D30)
Cite in your paper:
S.Grimme, J.Antony, S.Ehrlich and H.Krieg, J.Chem.Phys., 132, (2010), 154104 
   

XCFun DFT library Copyright 2009-2010 Ulf Ekstrom and contributors.
See http://admol.org/xcfun for more information. This is free soft-
ware; see the source code for copying conditions. There is ABSOLUTELY
NO WARRANTY; not even for MERCHANTABILITY or FITNESS FOR A PARTICULAR
PURPOSE. For details see the documentation. Scientific users of this 
library should cite U. Ekstrom, L. Visscher, R. Bast, A. J. Thorvald-
sen and K. Ruud; J.Chem.Theor.Comp. 2010, DOI: 10.1021/ct100117s
XCFun Version 0.99 
----- Orbital basis set information -----
Your calculation utilizes the basis: def2-TZVP
   F. Weigend and R. Ahlrichs, Phys. Chem. Chem. Phys. 7, 3297 (2005).

================================================================================
                                        WARNINGS
                       Please study these warnings very carefully!
================================================================================


INFO   : the flag for use of LIBINT has been found!

================================================================================
                                       INPUT FILE
================================================================================
NAME = 22.in
|  1> #Run DFT-D3 single point of the dimer
|  2> ! wB97X-D3 def2-TZVP TIGHTSCF  CHELPG PAL8
|  3> 
|  4> %base "22_charges"
|  5> 
|  6> %scf
|  7> MaxIter 1000
|  8> end
|  9> %output
| 10>   Print[ P_Mayer ] 1
| 11>   Print[ P_NatPop ] 1
| 12>   Print[ P_Hirshfeld ] 1
| 13>   Print[ P_Mulliken ] 1
| 14>   Print [ P_Loewdin ] 1
| 15> end
| 16> 
| 17> * xyz 0 1
| 18>   C                      -1.241054            1.457268             3.839725            
| 19>   O                      -0.873117            0.058310             3.815234            
| 20>   H                      -0.145246            -0.131075            3.177464            
| 21>   H                      -1.977165            1.636098             3.057054            
| 22>   H                      -1.673766            1.784762             4.783125            
| 23>   H                      -0.398377            2.109404             3.497991            
| 24> *
| 25> 
| 26>                          ****END OF INPUT****
================================================================================

                       ****************************
                       * Single Point Calculation *
                       ****************************

---------------------------------
CARTESIAN COORDINATES (ANGSTROEM)
---------------------------------
  C     -1.241054    1.457268    3.839725
  O     -0.873117    0.058310    3.815234
  H     -0.145246   -0.131075    3.177464
  H     -1.977165    1.636098    3.057054
  H     -1.673766    1.784762    4.783125
  H     -0.398377    2.109404    3.497991

----------------------------
CARTESIAN COORDINATES (A.U.)
----------------------------
  NO LB      ZA    FRAG     MASS         X           Y           Z
   0 C     6.0000    0    12.011   -2.345252    2.753837    7.256029
   1 O     8.0000    0    15.999   -1.649952    0.110190    7.209747
   2 H     1.0000    0     1.008   -0.274475   -0.247696    6.004537
   3 H     1.0000    0     1.008   -3.736300    3.091777    5.776995
   4 H     1.0000    0     1.008   -3.162959    3.372711    9.038796
   5 H     1.0000    0     1.008   -0.752823    3.986196    6.610245

--------------------------------
INTERNAL COORDINATES (ANGSTROEM)
--------------------------------
 C      0   0   0     0.000000000000     0.00000000     0.00000000
 O      1   0   0     1.446741487210     0.00000000     0.00000000
 H      2   1   0     0.986110259437   112.60514780     0.00000000
 H      1   2   3     1.089226086477   108.57025389    86.27999857
 H      1   2   3     1.088345328919   114.00147258   206.38066073
 H      1   2   3     1.119003134750   111.52121012   335.65487723

---------------------------
INTERNAL COORDINATES (A.U.)
---------------------------
 C      0   0   0     0.000000000000     0.00000000     0.00000000
 O      1   0   0     2.733945197408     0.00000000     0.00000000
 H      2   1   0     1.863478328185   112.60514780     0.00000000
 H      1   2   3     2.058339001364   108.57025389    86.27999857
 H      1   2   3     2.056674610790   114.00147258   206.38066073
 H      1   2   3     2.114609467677   111.52121012   335.65487723

---------------------
BASIS SET INFORMATION
---------------------
There are 3 groups of distinct atoms

 Group   1 Type C   : 11s6p2d1f contracted to 5s3p2d1f pattern {62111/411/11/1}
 Group   2 Type O   : 11s6p2d1f contracted to 5s3p2d1f pattern {62111/411/11/1}
 Group   3 Type H   : 5s1p contracted to 3s1p pattern {311/1}

Atom   0C    basis set group =>   1
Atom   1O    basis set group =>   2
Atom   2H    basis set group =>   3
Atom   3H    basis set group =>   3
Atom   4H    basis set group =>   3
Atom   5H    basis set group =>   3


           ************************************************************
           *        Program running with 8 parallel MPI-processes     *
           *              working on a common directory               *
           ************************************************************
------------------------------------------------------------------------------
                           ORCA GTO INTEGRAL CALCULATION
------------------------------------------------------------------------------

                         BASIS SET STATISTICS AND STARTUP INFO

 # of primitive gaussian shells          ...   64
 # of primitive gaussian functions       ...  124
 # of contracted shells                  ...   38
 # of contracted basis functions         ...   86
 Highest angular momentum                ...    3
 Maximum contraction depth               ...    6
 Integral package used                   ... LIBINT
 Integral threshhold            Thresh   ...  2.500e-11
 Primitive cut-off              TCut     ...  2.500e-12


------------------------------ INTEGRAL EVALUATION ----------------------------


 * One electron integrals 
 Pre-screening matrix                    ... done
 Shell pair data                         ... done (   0.000 sec)



           ************************************************************
           *        Program running with 8 parallel MPI-processes     *
           *              working on a common directory               *
           ************************************************************
-------------------------------------------------------------------------------
                                 ORCA SCF
-------------------------------------------------------------------------------

------------
SCF SETTINGS
------------
Hamiltonian:
 Density Functional     Method          .... DFT(GTOs)
 Exchange Functional    Exchange        .... WB97X-D3
 Correlation Functional Correlation     .... WB97X-D3
 Gradients option       PostSCFGGA      .... off
 Hybrid DFT is turned on
   Fraction HF Exchange ScalHFX         ....  0.195728
   Scaling of DF-GGA-X  ScalDFX         ....  0.000000
   Scaling of DF-GGA-C  ScalDFC         ....  1.000000
   Scaling of DF-LDA-C  ScalLDAC        ....  1.000000
   Perturbative correction              ....  0.000000
   Density functional embedding theory  .... OFF
 Long-range corrected/Screened/Range-Separated Hybrid DFT is turned on
   Amount of maximum screened exact exchange              ....  0.804272
   Range separation parameter mu (erf(mu*r12)/r12)        ....  0.250000


General Settings:
 Integral files         IntName         .... 22_charges
 Hartree-Fock type      HFTyp           .... RHF
 Total Charge           Charge          ....    0
 Multiplicity           Mult            ....    1
 Number of Electrons    NEL             ....   18
 Basis Dimension        Dim             ....   86
 Nuclear Repulsion      ENuc            ....     39.6121484594 Eh

Convergence Acceleration:
 DIIS                   CNVDIIS         .... on
   Start iteration      DIISMaxIt       ....    12
   Startup error        DIISStart       ....  0.200000
   # of expansion vecs  DIISMaxEq       ....     5
   Bias factor          DIISBfac        ....   1.050
   Max. coefficient     DIISMaxC        ....  10.000
 Newton-Raphson         CNVNR           .... off
 SOSCF                  CNVSOSCF        .... on
   Start iteration      SOSCFMaxIt      ....   150
   Startup grad/error   SOSCFStart      ....  0.003300
 Level Shifting         CNVShift        .... on
   Level shift para.    LevelShift      ....    0.2500
   Turn off err/grad.   ShiftErr        ....    0.0010
 Zerner damping         CNVZerner       .... off
 Static damping         CNVDamp         .... on
   Fraction old density DampFac         ....    0.7000
   Max. Damping (<1)    DampMax         ....    0.9800
   Min. Damping (>=0)   DampMin         ....    0.0000
   Turn off err/grad.   DampErr         ....    0.1000
 Fernandez-Rico         CNVRico         .... off

SCF Procedure:
 Maximum # iterations   MaxIter         ....  1000
 SCF integral mode      SCFMode         .... Direct
   Integral package                     .... LIBINT
 Reset frequency        DirectResetFreq ....    20
 Integral Threshold     Thresh          ....  2.500e-11 Eh
 Primitive CutOff       TCut            ....  2.500e-12 Eh

Convergence Tolerance:
 Convergence Check Mode ConvCheckMode   .... Total+1el-Energy
 Convergence forced     ConvForced      .... 0
 Energy Change          TolE            ....  1.000e-08 Eh
 1-El. energy change                    ....  1.000e-05 Eh
 Orbital Gradient       TolG            ....  1.000e-05
 Orbital Rotation angle TolX            ....  1.000e-05
 DIIS Error             TolErr          ....  5.000e-07


Diagonalization of the overlap matrix:
Smallest eigenvalue                        ... 1.696e-03
Time for diagonalization                   ...    0.040 sec
Threshold for overlap eigenvalues          ... 1.000e-08
Number of eigenvalues below threshold      ... 0
Time for construction of square roots      ...    0.004 sec
Total time needed                          ...    0.044 sec

-------------------
DFT GRID GENERATION
-------------------

General Integration Accuracy     IntAcc      ...  4.340
Radial Grid Type                 RadialGrid  ... Gauss-Chebyshev
Angular Grid (max. acc.)         AngularGrid ... Lebedev-110
Angular grid pruning method      GridPruning ... 3 (G Style)
Weight generation scheme         WeightScheme... Becke
Basis function cutoff            BFCut       ...    1.0000e-11
Integration weight cutoff        WCut        ...    1.0000e-14
Grids for H and He will be reduced by one unit

# of grid points (after initial pruning)     ...   6548 (   0.0 sec)
# of grid points (after weights+screening)   ...   6380 (   0.0 sec)
nearest neighbour list constructed           ...    0.0 sec
Grid point re-assignment to atoms done       ...    0.0 sec
Grid point division into batches done        ...    0.0 sec
Reduced shell lists constructed in    0.0 sec

Total number of grid points                  ...     6380
Total number of batches                      ...      101
Average number of points per batch           ...       63
Average number of grid points per atom       ...     1063
Average number of shells per batch           ...    31.93 (84.02%)
Average number of basis functions per batch  ...    73.50 (85.47%)
Average number of large shells per batch     ...    30.36 (95.08%)
Average number of large basis fcns per batch ...    69.93 (95.14%)
Maximum spatial batch extension              ...  17.77, 15.50, 14.58 au
Average spatial batch extension              ...   0.48,  0.42,  0.41 au

Time for grid setup =    0.036 sec

------------------------------
INITIAL GUESS: MODEL POTENTIAL
------------------------------
Loading Hartree-Fock densities                     ... done
Calculating cut-offs                               ... done
Setting up the integral package                    ... done
Initializing the effective Hamiltonian             ... done
Starting the Coulomb interaction                   ... done (   0.0 sec)
Reading the grid                                   ... done
Mapping shells                                     ... done
Starting the XC term evaluation                    ... done (   0.0 sec)
  promolecular density results
     # of electrons  =     18.000566143
     EX              =    -14.410314618
     EC              =     -0.572298037
     EX+EC           =    -14.982612656
Transforming the Hamiltonian                       ... done (   0.0 sec)
Diagonalizing the Hamiltonian                      ... done (   0.0 sec)
Back transforming the eigenvectors                 ... done (   0.0 sec)
Now organizing SCF variables                       ... done
                      ------------------
                      INITIAL GUESS DONE (   0.2 sec)
                      ------------------
--------------
SCF ITERATIONS
--------------
ITER       Energy         Delta-E        Max-DP      RMS-DP      [F,P]     Damp
               ***  Starting incremental Fock matrix formation  ***
  0   -115.6462910412   0.000000000000 0.03675978  0.00146911  0.2496569 0.7000
  1   -115.6825118462  -0.036220804969 0.02159150  0.00103678  0.1233193 0.7000
                               ***Turning on DIIS***
  2   -115.6990226177  -0.016510771476 0.02976823  0.00185721  0.0463343 0.0000
  3   -115.7259098755  -0.026887257795 0.01753667  0.00068707  0.0613136 0.0000
  4   -115.7303492755  -0.004439399979 0.00399837  0.00013367  0.0066443 0.0000
                      *** Initiating the SOSCF procedure ***
                           *** Shutting down DIIS ***
                      *** Re-Reading the Fockian *** 
                      *** Removing any level shift *** 
ITER      Energy       Delta-E        Grad      Rot      Max-DP    RMS-DP
  5   -115.73044155  -0.0000922795  0.000432  0.000432  0.000643  0.000045
               *** Restarting incremental Fock matrix formation ***
  6   -115.73044991  -0.0000083514  0.000150  0.000187  0.000463  0.000027
  7   -115.73045072  -0.0000008182  0.000047  0.000105  0.000225  0.000013
  8   -115.73045079  -0.0000000693  0.000022  0.000020  0.000039  0.000002
  9   -115.73045080  -0.0000000070  0.000013  0.000010  0.000019  0.000001
                  ***Gradient check signals convergence***
              ***Rediagonalizing the Fockian in SOSCF/NRSCF***

               *****************************************************
               *                     SUCCESS                       *
               *           SCF CONVERGED AFTER  10 CYCLES          *
               *****************************************************

Setting up the final grid:

General Integration Accuracy     IntAcc      ...  4.670
Radial Grid Type                 RadialGrid  ... Gauss-Chebyshev
Angular Grid (max. acc.)         AngularGrid ... Lebedev-302
Angular grid pruning method      GridPruning ... 3 (G Style)
Weight generation scheme         WeightScheme... Becke
Basis function cutoff            BFCut       ...    1.0000e-11
Integration weight cutoff        WCut        ...    1.0000e-14
Grids for H and He will be reduced by one unit

# of grid points (after initial pruning)     ...  26000 (   0.0 sec)
# of grid points (after weights+screening)   ...  25203 (   0.4 sec)
nearest neighbour list constructed           ...    0.0 sec
Grid point re-assignment to atoms done       ...    0.0 sec
Grid point division into batches done        ...    0.1 sec
Reduced shell lists constructed in    0.1 sec

Total number of grid points                  ...    25203
Total number of batches                      ...      396
Average number of points per batch           ...       63
Average number of grid points per atom       ...     4200
Average number of shells per batch           ...    31.45 (82.77%)
Average number of basis functions per batch  ...    72.16 (83.90%)
Average number of large shells per batch     ...    29.82 (94.83%)
Average number of large basis fcns per batch ...    69.00 (95.62%)
Maximum spatial batch extension              ...  16.88, 15.02, 15.76 au
Average spatial batch extension              ...   0.29,  0.30,  0.31 au

Final grid set up in    3.9 sec
Final integration                            ... done (   0.3 sec)
Change in XC energy                          ...    -0.000104492
Integrated number of electrons               ...    18.000010602
Previous integrated no of electrons          ...    18.000192873

----------------
TOTAL SCF ENERGY
----------------

Total Energy       :         -115.73055530 Eh           -3149.18851 eV

Components:
Nuclear Repulsion  :           39.61214846 Eh            1077.90136 eV
Electronic Energy  :         -155.34270375 Eh           -4227.08987 eV
One Electron Energy:         -235.72459656 Eh           -6414.39237 eV
Two Electron Energy:           80.38189280 Eh            2187.30250 eV

Virial components:
Potential Energy   :         -230.83806339 Eh           -6281.42305 eV
Kinetic Energy     :          115.10750809 Eh            3132.23453 eV
Virial Ratio       :            2.00541274


DFT components:
N(Alpha)           :        9.000005301076 electrons
N(Beta)            :        9.000005301076 electrons
N(Total)           :       18.000010602153 electrons
E(XC)              :      -10.626039042722 Eh       
DFET-embed. en.    :        0.000000000000 Eh       

---------------
SCF CONVERGENCE
---------------

  Last Energy change         ...   -2.7817e-09  Tolerance :   1.0000e-08
  Last MAX-Density change    ...    3.8474e-06  Tolerance :   1.0000e-07
  Last RMS-Density change    ...    1.9214e-07  Tolerance :   5.0000e-09
  Last Orbital Gradient      ...    1.8191e-06  Tolerance :   1.0000e-05
  Last Orbital Rotation      ...    2.2993e-06  Tolerance :   1.0000e-05

             **** THE GBW FILE WAS UPDATED (22_charges.gbw) ****
             **** DENSITY FILE WAS UPDATED (22_charges.scfp.tmp) ****
             **** ENERGY FILE WAS UPDATED (22_charges.en.tmp) ****
----------------
ORBITAL ENERGIES
----------------

  NO   OCC          E(Eh)            E(eV) 
   0   2.0000     -19.229617      -523.2645 
   1   2.0000     -10.318438      -280.7790 
   2   2.0000      -1.117980       -30.4218 
   3   2.0000      -0.795810       -21.6551 
   4   2.0000      -0.603608       -16.4250 
   5   2.0000      -0.534502       -14.5445 
   6   2.0000      -0.524471       -14.2716 
   7   2.0000      -0.430960       -11.7270 
   8   2.0000      -0.369212       -10.0468 
   9   0.0000       0.110512         3.0072 
  10   0.0000       0.149870         4.0782 
  11   0.0000       0.196991         5.3604 
  12   0.0000       0.208476         5.6729 
  13   0.0000       0.226071         6.1517 
  14   0.0000       0.300886         8.1875 
  15   0.0000       0.316327         8.6077 
  16   0.0000       0.389412        10.5965 
  17   0.0000       0.449714        12.2373 
  18   0.0000       0.473410        12.8822 
  19   0.0000       0.524692        14.2776 
  20   0.0000       0.556751        15.1500 
  21   0.0000       0.562994        15.3198 
  22   0.0000       0.597667        16.2634 
  23   0.0000       0.601624        16.3710 
  24   0.0000       0.676903        18.4195 
  25   0.0000       0.782806        21.3012 
  26   0.0000       0.805040        21.9063 
  27   0.0000       0.860896        23.4262 
  28   0.0000       0.993548        27.0358 
  29   0.0000       1.037919        28.2432 
  30   0.0000       1.101099        29.9624 
  31   0.0000       1.372078        37.3361 
  32   0.0000       1.467860        39.9425 
  33   0.0000       1.542889        41.9841 
  34   0.0000       1.573810        42.8255 
  35   0.0000       1.622860        44.1603 
  36   0.0000       1.645379        44.7730 
  37   0.0000       1.694303        46.1043 
  38   0.0000       1.700836        46.2821 
  39   0.0000       1.773118        48.2490 
  40   0.0000       1.955737        53.2183 
  41   0.0000       1.992673        54.2234 
  42   0.0000       2.038538        55.4714 
  43   0.0000       2.061253        56.0896 
  44   0.0000       2.134100        58.0718 
  45   0.0000       2.277537        61.9749 
  46   0.0000       2.300814        62.6083 
  47   0.0000       2.332715        63.4764 
  48   0.0000       2.400700        65.3264 
  49   0.0000       2.461707        66.9865 
  50   0.0000       2.480648        67.5019 
  51   0.0000       2.560201        69.6666 
  52   0.0000       2.626406        71.4681 
  53   0.0000       2.699295        73.4515 
  54   0.0000       2.787476        75.8511 
  55   0.0000       2.860379        77.8349 
  56   0.0000       2.897902        78.8559 
  57   0.0000       2.963616        80.6441 
  58   0.0000       3.095724        84.2389 
  59   0.0000       3.130305        85.1799 
  60   0.0000       3.238141        88.1143 
  61   0.0000       3.369814        91.6973 
  62   0.0000       3.432953        93.4154 
  63   0.0000       3.516823        95.6976 
  64   0.0000       3.570766        97.1655 
  65   0.0000       3.644370        99.1684 
  66   0.0000       3.663373        99.6855 
  67   0.0000       3.948922       107.4556 
  68   0.0000       4.171868       113.5223 
  69   0.0000       4.322138       117.6114 
  70   0.0000       4.403982       119.8384 
  71   0.0000       4.593151       124.9860 
  72   0.0000       5.324232       144.8797 
  73   0.0000       5.377541       146.3303 
  74   0.0000       5.538208       150.7023 
  75   0.0000       5.771017       157.0374 
  76   0.0000       5.814318       158.2156 
  77   0.0000       5.889085       160.2502 
  78   0.0000       6.285354       171.0332 
  79   0.0000       6.504826       177.0053 
  80   0.0000       6.724085       182.9716 
  81   0.0000       6.793558       184.8621 
  82   0.0000       7.044277       191.6845 
  83   0.0000       7.169189       195.0835 
  84   0.0000      22.300573       606.8294 
  85   0.0000      43.655522      1187.9271 

                    ********************************
                    * MULLIKEN POPULATION ANALYSIS *
                    ********************************

-----------------------
MULLIKEN ATOMIC CHARGES
-----------------------
   0 C :   -0.164848
   1 O :   -0.493757
   2 H :    0.319770
   3 H :    0.107319
   4 H :    0.125577
   5 H :    0.105939
Sum of atomic charges:    0.0000000

--------------------------------
MULLIKEN REDUCED ORBITAL CHARGES
--------------------------------
  0 C s       :     3.227944  s :     3.227944
      pz      :     1.078085  p :     2.835370
      px      :     1.054306
      py      :     0.702979
      dz2     :     0.007015  d :     0.094521
      dxz     :     0.012781
      dyz     :     0.031281
      dx2y2   :     0.017335
      dxy     :     0.026108
      f0      :     0.001025  f :     0.007013
      f+1     :     0.000705
      f-1     :     0.000549
      f+2     :     0.001116
      f-2     :     0.000353
      f+3     :     0.001482
      f-3     :     0.001783
  1 O s       :     3.795475  s :     3.795475
      pz      :     1.679979  p :     4.669104
      px      :     1.598652
      py      :     1.390473
      dz2     :     0.003620  d :     0.027583
      dxz     :     0.007049
      dyz     :     0.003791
      dx2y2   :     0.009528
      dxy     :     0.003595
      f0      :     0.000175  f :     0.001594
      f+1     :     0.000247
      f-1     :     0.000158
      f+2     :     0.000336
      f-2     :     0.000163
      f+3     :     0.000286
      f-3     :     0.000229
  2 H s       :     0.635096  s :     0.635096
      pz      :     0.016789  p :     0.045134
      px      :     0.017438
      py      :     0.010906
  3 H s       :     0.872397  s :     0.872397
      pz      :     0.008491  p :     0.020284
      px      :     0.008454
      py      :     0.003339
  4 H s       :     0.854058  s :     0.854058
      pz      :     0.010912  p :     0.020364
      px      :     0.005881
      py      :     0.003571
  5 H s       :     0.875580  s :     0.875580
      pz      :     0.004665  p :     0.018481
      px      :     0.008284
      py      :     0.005531


                     *******************************
                     * LOEWDIN POPULATION ANALYSIS *
                     *******************************

----------------------
LOEWDIN ATOMIC CHARGES
----------------------
   0 C :   -0.364341
   1 O :   -0.118015
   2 H :    0.180965
   3 H :    0.094758
   4 H :    0.105253
   5 H :    0.101381

-------------------------------
LOEWDIN REDUCED ORBITAL CHARGES
-------------------------------
  0 C s       :     2.873478  s :     2.873478
      pz      :     1.113017  p :     3.053344
      px      :     1.095528
      py      :     0.844800
      dz2     :     0.045187  d :     0.386651
      dxz     :     0.056488
      dyz     :     0.092010
      dx2y2   :     0.087018
      dxy     :     0.105948
      f0      :     0.005448  f :     0.050868
      f+1     :     0.003033
      f-1     :     0.006752
      f+2     :     0.008746
      f-2     :     0.003580
      f+3     :     0.009881
      f-3     :     0.013427
  1 O s       :     3.393635  s :     3.393635
      pz      :     1.640926  p :     4.656992
      px      :     1.566241
      py      :     1.449825
      dz2     :     0.006024  d :     0.063482
      dxz     :     0.012554
      dyz     :     0.011830
      dx2y2   :     0.020260
      dxy     :     0.012815
      f0      :     0.000384  f :     0.003906
      f+1     :     0.000383
      f-1     :     0.000380
      f+2     :     0.000966
      f-2     :     0.000270
      f+3     :     0.000863
      f-3     :     0.000660
  2 H s       :     0.670653  s :     0.670653
      pz      :     0.059202  p :     0.148382
      px      :     0.061932
      py      :     0.027247
  3 H s       :     0.843680  s :     0.843680
      pz      :     0.026314  p :     0.061562
      px      :     0.025216
      py      :     0.010032
  4 H s       :     0.833315  s :     0.833315
      pz      :     0.033054  p :     0.061433
      px      :     0.017580
      py      :     0.010799
  5 H s       :     0.841723  s :     0.841723
      pz      :     0.014419  p :     0.056896
      px      :     0.025133
      py      :     0.017344


                      *****************************
                      * MAYER POPULATION ANALYSIS *
                      *****************************

  NA   - Mulliken gross atomic population
  ZA   - Total nuclear charge
  QA   - Mulliken gross atomic charge
  VA   - Mayer's total valence
  BVA  - Mayer's bonded valence
  FA   - Mayer's free valence

  ATOM       NA         ZA         QA         VA         BVA        FA
  0 C      6.1648     6.0000    -0.1648     3.9347     3.9347    -0.0000
  1 O      8.4938     8.0000    -0.4938     1.8714     1.8714     0.0000
  2 H      0.6802     1.0000     0.3198     0.9089     0.9089     0.0000
  3 H      0.8927     1.0000     0.1073     0.9521     0.9521    -0.0000
  4 H      0.8744     1.0000     0.1256     0.9578     0.9578    -0.0000
  5 H      0.8941     1.0000     0.1059     0.9615     0.9615    -0.0000

  Mayer bond orders larger than 0.1
B(  0-C ,  1-O ) :   0.9936 B(  0-C ,  3-H ) :   0.9766 B(  0-C ,  4-H ) :   0.9700 
B(  0-C ,  5-H ) :   0.9795 B(  1-O ,  2-H ) :   0.8916 


------------------
HIRSHFELD ANALYSIS
------------------

Total integrated alpha density =      9.000096436
Total integrated beta density  =      9.000096436

  ATOM     CHARGE      SPIN    
   0 C    0.009480    0.000000
   1 O   -0.264260    0.000000
   2 H    0.163168    0.000000
   3 H    0.019523    0.000000
   4 H    0.044535    0.000000
   5 H    0.027361    0.000000

  TOTAL  -0.000193    0.000000

-------
TIMINGS
-------

Total SCF time: 0 days 0 hours 0 min 26 sec 

Total time                  ....      26.696 sec
Sum of individual times     ....      23.997 sec  ( 89.9%)

Fock matrix formation       ....      15.731 sec  ( 58.9%)
  XC integration            ....       3.620 sec  ( 23.0% of F)
    Basis function eval.    ....       0.035 sec  (  1.0% of XC)
    Density eval.           ....       0.045 sec  (  1.3% of XC)
    XC-Functional eval.     ....       0.141 sec  (  3.9% of XC)
    XC-Potential eval.      ....       0.059 sec  (  1.6% of XC)
Diagonalization             ....       1.008 sec  (  3.8%)
Density matrix formation    ....       1.903 sec  (  7.1%)
Population analysis         ....       0.369 sec  (  1.4%)
Initial guess               ....       0.126 sec  (  0.5%)
Orbital Transformation      ....       0.000 sec  (  0.0%)
Orbital Orthonormalization  ....       0.000 sec  (  0.0%)
DIIS solution               ....       0.298 sec  (  1.1%)
SOSCF solution              ....       0.592 sec  (  2.2%)
Grid generation             ....       3.970 sec  ( 14.9%)


-------------------------------------------------------------------------------
                          DFT DISPERSION CORRECTION                            
                                                                               
                              DFTD3 V3.1  Rev 1                                
                              USING zero damping                               
-------------------------------------------------------------------------------
The omegaB97X-D3 functional is recognized. Fit by Chai et al.
Active option DFTDOPT                   ...         3   

molecular C6(AA) [au] = 208.840535 


            DFT-D V3
 parameters
 s6 scaling factor         :     1.0000 
 rs6 scaling factor        :     1.2810 
 s8 scaling factor         :     1.0000 
 rs8 scaling factor        :     1.0940 
 Damping factor alpha6     :    14.0000 
 Damping factor alpha8     :    16.0000 
 ad hoc parameters k1-k3   :    16.0000     1.3333    -4.0000 

 Edisp/kcal,au: -0.168470640199  -0.000268475026 
 E6   /kcal   :  -0.036460542 
 E8   /kcal   :  -0.132010098 
 % E8         :  78.357925075 

-------------------------   ----------------
Dispersion correction           -0.000268475
-------------------------   ----------------


-------------------------   --------------------
FINAL SINGLE POINT ENERGY      -115.730823770191
-------------------------   --------------------


                            ***************************************
                            *     ORCA property calculations      *
                            ***************************************

                                    ---------------------
                                    Active property flags
                                    ---------------------
   (+) Dipole Moment


------------------------------------------------------------------------------
                       ORCA ELECTRIC PROPERTIES CALCULATION
------------------------------------------------------------------------------

Dipole Moment Calculation                       ... on
Quadrupole Moment Calculation                   ... off
Polarizability Calculation                      ... off
GBWName                                         ... 22_charges.gbw
Electron density file                           ... 22_charges.scfp.tmp
The origin for moment calculation is the CENTER OF MASS  = (-1.952324,  1.408273  7.182789)

-------------
DIPOLE MOMENT
-------------
                                X             Y             Z
Electronic contribution:      0.36629      -1.78220       0.23510
Nuclear contribution   :     -0.05585       2.25862      -0.64548
                        -----------------------------------------
Total Dipole Moment    :      0.31044       0.47642      -0.41038
                        -----------------------------------------
Magnitude (a.u.)       :      0.70126
Magnitude (Debye)      :      1.78245



--------------------
Rotational spectrum 
--------------------
 
Rotational constants in cm-1:     4.302455     0.795718     0.759093 
Rotational constants in MHz : 128984.368931 23855.037914 22757.035307 

 Dipole components along the rotational axes: 
x,y,z [a.u.] :     0.344013    -0.610455     0.027547 
x,y,z [Debye]:     0.874412    -1.551652     0.070019 

 
------------------------------------------------------------------------------
                      ORCA CHELPG CHARGES GENERATION
------------------------------------------------------------------------------

GBW file                           ... 22_charges.gbw

Reading the GBW file               ... done

Grid spacing                       ...     0.300000
Point Cut-Off                      ...     2.800000
Van-der-Waals Radii                ...        COSMO
Total charge                       ...            0


Number of points X direction       ...           24
Number of points Y direction       ...           26
Number of points Z direction       ...           24
Maximum number of possible points  ...        14976
Final number of points             ...         5981


CHELPG Charges            
--------------------------------
  0   C   :       0.082920
  1   O   :      -0.616773
  2   H   :       0.405401
  3   H   :       0.036335
  4   H   :       0.079518
  5   H   :       0.012599
--------------------------------
Total charge:    -0.000000
--------------------------------

CHELPG charges calculated...

Timings for individual parts in CHELPG calculation:
Grid generation                 ...        0.001 sec (=   0.000 min)
Potential calculation           ...        0.747 sec (=   0.012 min)
Fit to the potential            ...        0.006 sec (=   0.000 min)
------------------------------------------------------------------------------


Timings for individual modules:

Sum of individual times         ...       36.301 sec (=   0.605 min)
GTO integral calculation        ...        4.304 sec (=   0.072 min)  11.9 %
SCF iterations                  ...       30.772 sec (=   0.513 min)  84.8 %
CHELPG charge generation        ...        1.225 sec (=   0.020 min)   3.4 %
                             ****ORCA TERMINATED NORMALLY****
TOTAL RUN TIME: 0 days 0 hours 0 minutes 40 seconds 233 msec
