LAMMPS data file via vdw_self_gen.py, on 2021-08-05 13:21:32.755210

8500 atoms
10 atom types
8000 bonds
10 bond types
14000 angles
16 angle types
14500 dihedrals
12 dihedral types

-51.1077907058181893  51.1077907058181893 xlo xhi
-51.1077907058181893  51.1077907058181893 ylo yhi
-51.1077907058181893  51.1077907058181893 zlo zhi

Masses

1  1.007940
2  1.007940
3  1.007940
4  12.011000
5  12.011000
6  12.011000
7  12.011000
8  12.011000
9  15.999400
10  15.999400

Atoms

1         0    8   -0.1186820000000000  -26.9396071040828566 -28.0894535078321930 -41.9622266997085092 0 0 0
2         0    5    0.2337370000000000  -26.6305609999814479 -28.9022307491954287 -40.7182761167424019 0 0 0
3         0    9   -0.1823940000000000  -27.8434086877429827 -29.3108991707866267 -40.0685170464820004 0 0 0
4         0    7    0.3300090000000000  -28.4231849144547972 -28.3766802281216783 -39.2618750637500113 0 0 0
5         0    10  -0.4278410000000000  -27.9944715347809279 -27.2494584940172686 -39.0679970617713082 0 0 0
6         0    4    0.0924390000000000  -29.6695849060303232 -28.9572715203694955 -38.6377262483489545 0 0 0
7         0    6   -0.1079060000000000  -30.4374075859168158 -27.9152298666458378 -37.8433225264563688 0 0 0
8         0    1    0.0285690000000000  -26.0231743796255337 -27.8623655015631861 -42.5140088043046021 0 0 0
9         0    1    0.0285690000000000  -27.4302659073846300 -27.1455847168409541 -41.7045502414605522 0 0 0
10        0    1    0.0285690000000000  -27.6246847037056149 -28.6351190594554481 -42.6190317600322004 0 0 0
11        0    3   -0.0094320000000000  -25.9807280506726954 -28.3525042781831935 -40.0274663617728308 0 0 0
12        0    3   -0.0094320000000000  -26.0982126802484729 -29.8162595852537642 -41.0014893701952161 0 0 0
13        0    2    0.0140440000000000  -29.3749032627160780 -29.7795723257902374 -37.9776230834587807 0 0 0
14        0    2    0.0140440000000000  -30.3118165771954580 -29.3483794504026072 -39.4339370238460276 0 0 0
15        0    1    0.0285690000000000  -29.8186611247577602 -27.4958525065642370 -37.0429534777956064 0 0 0
16        0    1    0.0285690000000000  -31.3287843687119931 -28.3592225381164269 -37.3899593981870595 0 0 0
17        0    1    0.0285690000000000  -30.7552332113856224 -27.0886065002554268 -38.4876057148391979 0 0 0
18        1    8   -0.1186820000000000  -41.8527565498143233 -6.3157931553597759   38.2433390132498587 0 0 0
19        1    5    0.2337370000000000  -40.3767749683215484 -6.5415444828420686   37.9712285565708072 0 0 0
20        1    9   -0.1823940000000000  -39.6469247075487772 -6.6455076416548362   39.2027749423637246 0 0 0
21        1    7    0.3300090000000000  -39.3133074939628528 -5.4616091451530862   39.7915539322912295 0 0 0
22        1    10  -0.4278410000000000  -39.5918776785818238 -4.3549054347348619   39.3561021795241928 0 0 0
23        1    4    0.0924390000000000  -38.5365651563265033 -5.7327173129490037   41.0577816502304529 0 0 0
24        1    6   -0.1079060000000000  -38.2633733424907874 -4.4557670413275670   41.8331808931105869 0 0 0
25        1    1    0.0285690000000000  -42.4258340316778870 -6.3367763002215547   37.3121981541889838 0 0 0
26        1    1    0.0285690000000000  -42.0205931731787672 -5.3500046236718379   38.7302834586619369 0 0 0
27        1    1    0.0285690000000000  -42.2423492285600233 -7.0844108496054643   38.9185571141329660 0 0 0
28        1    3   -0.0094320000000000  -39.9587930525577661 -5.7551851592540837   37.3319865798509767 0 0 0
29        1    3   -0.0094320000000000  -40.2434671613404902 -7.4907030833831367   37.4417191862884380 0 0 0
30        1    2    0.0140440000000000  -37.5884671930263252 -6.2084940821908088   40.7866750445641841 0 0 0
31        1    2    0.0140440000000000  -39.1158489456307166 -6.4182123527959920   41.6854004622449850 0 0 0
32        1    1    0.0285690000000000  -37.6925772281352494 -3.7428205798220326   41.2288512593316767 0 0 0
33        1    1    0.0285690000000000  -37.6896171011309775 -4.6729636246496247   42.7391884024579980 0 0 0
34        1    1    0.0285690000000000  -39.1994389868668094 -3.9695231302630729   42.1277451700886374 0 0 0
35        2    8   -0.1186820000000000   37.1635331351183495 -39.2388407344358257 -16.6581006537626770 0 0 0
36        2    5    0.2337370000000000   37.9132062445882312 -39.4708447187354494 -17.9572133400246763 0 0 0
37        2    9   -0.1823940000000000   39.0683472045087328 -40.2928192768039040 -17.7331521195912281 0 0 0
38        2    7    0.3300090000000000   40.1712374759036592 -39.6432997434537810 -17.2626904109909951 0 0 0
39        2    10  -0.4278410000000000   40.2354524706910226 -38.4475779884861879 -17.0215709415538008 0 0 0
40        2    4    0.0924390000000000   41.3022012816924047 -40.6302234120353134 -17.0981806125307827 0 0 0
41        2    6   -0.1079060000000000   42.5128366979305241 -39.9921892739641152 -16.4395805238535253 0 0 0
42        2    1    0.0285690000000000   36.2303486734593960 -38.6987255973853621 -16.8406487056483520 0 0 0
43        2    1    0.0285690000000000   37.7665724085779217 -38.6576766795831048 -15.9533854708607521 0 0 0
44        2    1    0.0285690000000000   36.9338885358866449 -40.1914645410166784 -16.1699958082846607 0 0 0
45        2    3   -0.0094320000000000   38.1908730611392784 -38.5255850607429764 -18.4379268622584007 0 0 0
46        2    3   -0.0094320000000000   37.2698192531947257 -40.0114444470982917 -18.6592520188733815 0 0 0
47        2    2    0.0140440000000000   41.5782477321367878 -41.0079424619858912 -18.0880688639518681 0 0 0
48        2    2    0.0140440000000000   40.9536183217920922 -41.4642482773491636 -16.4798999517420484 0 0 0
49        2    1    0.0285690000000000   42.8814233151405162 -39.1461190549500913 -17.0291772144066940 0 0 0
50        2    1    0.0285690000000000   43.3237825507094101 -40.7201705655255211 -16.3414466851569635 0 0 0
51        2    1    0.0285690000000000   42.2631776366819167 -39.6193941655999851 -15.4405238161455802 0 0 0
52        3    8   -0.1186820000000000  -37.7953110775925367  41.3858827380674086  6.4530652030740701  0 0 0
53        3    5    0.2337370000000000  -39.2665190429857134  41.4099499029304425  6.8252174374340537  0 0 0
54        3    9   -0.1823940000000000  -39.8305574050472799  40.0929762605607465  6.7378252562825747  0 0 0
55        3    7    0.3300090000000000  -40.1975541226390689  39.6911111977336333  5.4874674375939412  0 0 0
56        3    10  -0.4278410000000000  -40.0754006997334784  40.3552858461911441  4.4696446352266577  0 0 0
57        3    4    0.0924390000000000  -40.7885410000747370  38.3034453484523141  5.5601237025489372  0 0 0
58        3    6   -0.1079060000000000  -41.0818635598414517  37.7450491698269417  4.1785900139157288  0 0 0
59        3    1    0.0285690000000000  -37.3387629172486513  42.3662683789130909  6.6152045397885750  0 0 0
60        3    1    0.0285690000000000  -37.6589410708680035  41.1110940600220971  5.4023864145358900  0 0 0
61        3    1    0.0285690000000000  -37.2589615771849196  40.6404414494494262  7.0489860011974947  0 0 0
62        3    3   -0.0094320000000000  -39.8282277107639970  42.1197650006279432  6.2068760494262420  0 0 0
63        3    3   -0.0094320000000000  -39.3753861469958721  41.7338992884977671  7.8655337080243957  0 0 0
64        3    2    0.0140440000000000  -41.7149878486918908  38.3521826744202059  6.1415641410676702  0 0 0
65        3    2    0.0140440000000000  -40.0779690789038838  37.6452154535176433  6.0712004890085245  0 0 0
66        3    1    0.0285690000000000  -41.7837494246148680  38.3867706255158865  3.6355753055148075  0 0 0
67        3    1    0.0285690000000000  -41.5203862607372187  36.7454715674623884  4.2545021008994288  0 0 0
68        3    1    0.0285690000000000  -40.1654470552280429  37.6737570369624990  3.5831755643398235  0 0 0
69        4    8   -0.1186820000000000   30.2857519890229305 -39.8914477388380746  7.5482472156379581  0 0 0
70        4    5    0.2337370000000000   30.4301058270837785 -39.6481281917877055  6.0571110854136556  0 0 0
71        4    9   -0.1823940000000000   29.2418551618936959 -39.0415840047165617  5.5276200583834179  0 0 0
72        4    7    0.3300090000000000   28.2189260939796291 -39.8980216817319402  5.2452950300828070  0 0 0
73        4    10  -0.4278410000000000   28.2454919685115122 -41.1074557173453243  5.4143401341535213  0 0 0
74        4    4    0.0924390000000000   27.0546416433710384 -39.1196117103356968  4.6807770357708716  0 0 0
75        4    6   -0.1079060000000000   25.8333280312277935 -40.0004323436144418  4.4832224307016952  0 0 0
76        4    1    0.0285690000000000   31.2237664333998310 -40.2595039223642175  7.9731530168556741  0 0 0
77        4    1    0.0285690000000000   29.5016865607682064 -40.6270688988266571  7.7535139352804290  0 0 0
78        4    1    0.0285690000000000   29.9992297695356633 -38.9690164500308285  8.0635147521367152  0 0 0
79        4    3   -0.0094320000000000   30.6733142036758402 -40.5714956360508268  5.5186480681780896  0 0 0
80        4    3   -0.0094320000000000   31.2516071420289911 -38.9464036997513645  5.8788654110772587  0 0 0
81        4    2    0.0140440000000000   27.3584627484866481 -38.6910774082842366  3.7201505933638281  0 0 0
82        4    2    0.0140440000000000   26.8054936443838976 -38.3084954973445235  5.3731600908953894  0 0 0
83        4    1    0.0285690000000000   26.0519749851845361 -40.8293781672204048  3.8017846136914657  0 0 0
84        4    1    0.0285690000000000   25.0065491510438314 -39.4203102884185483  4.0623717782642110  0 0 0
85        4    1    0.0285690000000000   25.5025046457961651 -40.4291346424902329  5.4351627499918118  0 0 0
86        5    8   -0.1186820000000000  -18.6013355747500846 -38.2229512021065077 -7.1995184719446144  0 0 0
87        5    5    0.2337370000000000  -17.8942682555238903 -39.5186514830663072 -7.5527124404703923  0 0 0
88        5    9   -0.1823940000000000  -17.6928157210197305 -40.3195944177798822 -6.3787858952494991  0 0 0
89        5    7    0.3300090000000000  -16.6114969737771965 -39.9871993041948315 -5.6173136045345951  0 0 0
90        5    10  -0.4278410000000000  -15.8325995001545152 -39.0777104634479926 -5.8584804628322544  0 0 0
91        5    4    0.0924390000000000  -16.5213662317320562 -40.9256745074543673 -4.4377790888864146  0 0 0
92        5    6   -0.1079060000000000  -15.4212968147482687 -40.5136270065139357 -3.4752075933674180  0 0 0
93        5    1    0.0285690000000000  -18.8462452530945335 -37.6568402257720436 -8.1025240112005292  0 0 0
94        5    1    0.0285690000000000  -17.9758110332420316 -37.5949128683791258 -6.5573982243740669  0 0 0
95        5    1    0.0285690000000000  -19.5234323177468525 -38.4255341118514124 -6.6452866971120574  0 0 0
96        5    3   -0.0094320000000000  -16.9454352440019349 -39.3333732397758311 -8.0695180725114497  0 0 0
97        5    3   -0.0094320000000000  -18.5216613316003702 -40.1040164573817748 -8.2329910367351520  0 0 0
98        5    2    0.0140440000000000  -16.3227948935026284 -41.9348219618327533 -4.8132027332608844  0 0 0
99        5    2    0.0140440000000000  -17.4814085935861492 -40.9209567912342678 -3.9108303836035532  0 0 0
100       5    1    0.0285690000000000  -14.4467035453905837 -40.4986101986562943 -3.9744646636272831  0 0 0
101       5    1    0.0285690000000000  -15.3650535631488587 -41.2129681377959329 -2.6355773973604166  0 0 0
102       5    1    0.0285690000000000  -15.6070891526167319 -39.5111236219083679 -3.0753472228081971  0 0 0
103       6    8   -0.1186820000000000   29.2269783528078300 -29.5326312360021603 -37.4914001986054473 0 0 0
104       6    5    0.2337370000000000   29.7336516685614711 -28.2742155864566946 -38.1719893518265962 0 0 0
105       6    9   -0.1823940000000000   28.6931788056138330 -27.6703228421824399 -38.9548852687800959 0 0 0
106       6    7    0.3300090000000000   28.4985877029040573 -28.2095519152455196 -40.1921981248151923 0 0 0
107       6    10  -0.4278410000000000   29.1276475768106522 -29.1465955529763718 -40.6593657343823978 0 0 0
108       6    4    0.0924390000000000   27.3935241166414229 -27.4602224927732657 -40.8975355038996824 0 0 0
109       6    6   -0.1079060000000000   27.0329003283469049 -28.1081481080375397 -42.2229119144338796 0 0 0
110       6    1    0.0285690000000000   29.9845555867471099 -29.9392402794255261 -36.8156582268268266 0 0 0
111       6    1    0.0285690000000000   28.9709935867147799 -30.3023872169815043 -38.2262328613762321 0 0 0
112       6    1    0.0285690000000000   28.3167278305227867 -29.3225202688402398 -36.9206353896358550 0 0 0
113       6    3   -0.0094320000000000   30.6201234024573026 -28.4751394144153522 -38.7847679846640574 0 0 0
114       6    3   -0.0094320000000000   30.0269079115173625 -27.5409335621653462 -37.4134701085515289 0 0 0
115       6    2    0.0140440000000000   27.7280936721524576 -26.4320225800912851 -41.0696407794897382 0 0 0
116       6    2    0.0140440000000000   26.5097260380806823 -27.4468499553962388 -40.2509284648284691 0 0 0
117       6    1    0.0285690000000000   27.8997116870033466 -28.1462782923918979 -42.8911179642009159 0 0 0
118       6    1    0.0285690000000000   26.2401679941398385 -27.5431456652257793 -42.7224796007581347 0 0 0
119       6    1    0.0285690000000000   26.6812137383721435 -29.1344850307868377 -42.0733485220765573 0 0 0
120       7    8   -0.1186820000000000  -30.7938575555868610 -27.6489269632819159  17.9190663941968182 0 0 0
121       7    5    0.2337370000000000  -29.5805258337455435 -26.7916432927531076  17.6085503198653370 0 0 0
122       7    9   -0.1823940000000000  -28.7561745858174476 -27.4240181027927719  16.6182254430866614 0 0 0
123       7    7    0.3300090000000000  -27.9059107478491022 -28.3828021601875413  17.0844457036169821 0 0 0
124       7    10  -0.4278410000000000  -27.8083258970415059 -28.7311632279568485  18.2511223695169527 0 0 0
125       7    4    0.0924390000000000  -27.0969497511833879 -28.9368950416696897  15.9360885658046882 0 0 0
126       7    6   -0.1079060000000000  -26.2359742770681237 -30.1101662641186714  16.3704105900505859 0 0 0
127       7    1    0.0285690000000000  -31.4744264765948145 -27.1258641512828333  18.5966448992142794 0 0 0
128       7    1    0.0285690000000000  -30.4996521225102200 -28.5937499592153195  18.3868101087495681 0 0 0
129       7    1    0.0285690000000000  -31.3319152534759162 -27.9029296796711144  17.0001258994915041 0 0 0
130       7    3   -0.0094320000000000  -29.0040347553933309 -26.5645471728760931  18.5128652879030753 0 0 0
131       7    3   -0.0094320000000000  -29.9067230263135180 -25.8351752610955643  17.1868662087372037 0 0 0
132       7    2    0.0140440000000000  -26.4592246521427832 -28.1374846424372933  15.5449341391995901 0 0 0
133       7    2    0.0140440000000000  -27.7837088158885095 -29.2660281994038414  15.1490613217239662 0 0 0
134       7    1    0.0285690000000000  -25.5427045115575808 -29.8164973438725767  17.1656783216419271 0 0 0
135       7    1    0.0285690000000000  -25.6496258628463636 -30.4879388735823795  15.5273782182055768 0 0 0
136       7    1    0.0285690000000000  -26.8549558743790087 -30.9288596631964623  16.7525402086316646 0 0 0
137       8    8   -0.1186820000000000   19.2231620919047863 -17.6555764589399757  41.1393981832372475 0 0 0
138       8    5    0.2337370000000000   18.6649234463942690 -16.2872028474754948  40.7937789339089747 0 0 0
139       8    9   -0.1823940000000000   17.2430328042414125 -16.3542978460345410  40.6096010176798501 0 0 0
140       8    7    0.3300090000000000   16.8274272893788392 -16.7858036167628342  39.3845901524039590 0 0 0
141       8    10  -0.4278410000000000   17.5629317439204087 -17.1141502297107841  38.4663122105393498 0 0 0
142       8    4    0.0924390000000000   15.3181471317787494 -16.7826855482652597  39.3374243287229035 0 0 0
143       8    6   -0.1079060000000000   14.7954285828075918 -17.3917637423015314  38.0481342832672667 0 0 0
144       8    1    0.0285690000000000   20.2881655684043629 -17.5901238494003813  41.3789079804236906 0 0 0
145       8    1    0.0285690000000000   19.0991011734322882 -18.3539425934452964  40.3057764802545080 0 0 0
146       8    1    0.0285690000000000   18.6914908182939428 -18.0840437391094540  41.9950947098406928 0 0 0
147       8    3   -0.0094320000000000   19.1558353637397012 -15.8617160086317845  39.9107916113051857 0 0 0
148       8    3   -0.0094320000000000   18.8455022465478450 -15.5978604500186950  41.6251943232322787 0 0 0
149       8    2    0.0140440000000000   14.9716870684979213 -15.7475419896137474  39.4222495097350034 0 0 0
150       8    2    0.0140440000000000   14.9388251291224190 -17.3592036881013314  40.1877890646690403 0 0 0
151       8    1    0.0285690000000000   15.1651514950396180 -16.8431187267178650  37.1754322823265966 0 0 0
152       8    1    0.0285690000000000   13.7016714274164251 -17.3682311288879241  38.0291161751445514 0 0 0
153       8    1    0.0285690000000000   15.1183306187158095 -18.4335515362195217  37.9489747524605363 0 0 0
154       9    8   -0.1186820000000000   6.2045890529177399   19.6458579138493690  5.7715450343639647  0 0 0
155       9    5    0.2337370000000000   5.5414711608071849   18.8421394030126699  4.6679868764487180  0 0 0
156       9    9   -0.1823940000000000   4.8970338782958223   17.6790762025326877  5.2085244075218533  0 0 0
157       9    7    0.3300090000000000   5.7102227471509606   16.6092097502942657  5.4402277353893158  0 0 0
158       9    10  -0.4278410000000000   6.9131731788265771   16.5799376030000190  5.2303085134866585  0 0 0
159       9    4    0.0924390000000000   4.8897557795339681   15.4644809331141566  5.9848292608800442  0 0 0
160       9    6   -0.1079060000000000   5.7643511764735020   14.2939382428535140  6.3988249747824399  0 0 0
161       9    1    0.0285690000000000   6.6092872090647399   20.5827262620269416  5.3786347486825345  0 0 0
162       9    1    0.0285690000000000   7.0224024597491157   19.0828732240296439  6.2322629346407288  0 0 0
163       9    1    0.0285690000000000   5.4875950806528424   19.8735632660480626  6.5668720207763966  0 0 0
164       9    3   -0.0094320000000000   6.2559286214825551   18.5665835715360537  3.8835637169713078  0 0 0
165       9    3   -0.0094320000000000   4.7610221089864018   19.4464052567506194  4.1938400119453219  0 0 0
166       9    2    0.0140440000000000   4.1874141198743882   15.1426599730542399  5.2090074149819365  0 0 0
167       9    2    0.0140440000000000   4.3264808454456780   15.8185424551850566  6.8547374851293998  0 0 0
168       9    1    0.0285690000000000   6.3499522859889028   13.9212500813818956  5.5517771353818448  0 0 0
169       9    1    0.0285690000000000   5.1499181775553229   13.4719267452815075  6.7782842940774852  0 0 0
170       9    1    0.0285690000000000   6.4663401170730843   14.5896431156857069  7.1857114344188782  0 0 0
171       10   8   -0.1186820000000000   3.4726895549564558  -38.3137017337256864 -5.2707964014136230  0 0 0
172       10   5    0.2337370000000000   4.7886167904031804  -37.8896324243709799 -5.8969194909678766  0 0 0
173       10   9   -0.1823940000000000   5.4521710962766630  -39.0166066376330249 -6.4883762076421938  0 0 0
174       10   7    0.3300090000000000   6.1633331088169738  -39.7997540060079729 -5.6278498654962972  0 0 0
175       10   10  -0.4278410000000000   6.2635592157217577  -39.6137773020161177 -4.4247787651589050  0 0 0
176       10   4    0.0924390000000000   6.8160635357833259  -40.9240644937171894 -6.3959838696514417  0 0 0
177       10   6   -0.1079060000000000   7.5024216913775152  -41.9126002053021125 -5.4695987562290487  0 0 0
178       10   1    0.0285690000000000   2.9179682643636120  -37.4436295992369210 -4.9086636045708216  0 0 0
179       10   1    0.0285690000000000   3.6377146346425508  -38.9929256574693781 -4.4285060135491925  0 0 0
180       10   1    0.0285690000000000   2.8557256219109295  -38.8520963199974148 -5.9974062511915482  0 0 0
181       10   3   -0.0094320000000000   5.4385131614324083  -37.3877111970816429 -5.1706895266870054  0 0 0
182       10   3   -0.0094320000000000   4.5961948168831599  -37.1747439706515479 -6.7037413278348001  0 0 0
183       10   2    0.0140440000000000   7.5511258104129491  -40.4923237622500451 -7.0830322427726857  0 0 0
184       10   2    0.0140440000000000   6.0472678564814073  -41.4469263263093097 -6.9747301343522210  0 0 0
185       10   1    0.0285690000000000   8.2724719129638977  -41.4185650049122529 -4.8677125174675249  0 0 0
186       10   1    0.0285690000000000   7.9787458715499895  -42.7111028802553250 -6.0464253686314340  0 0 0
187       10   1    0.0285690000000000   6.7823550559020092  -42.3684044782147069 -4.7817276562621984  0 0 0
188       11   8   -0.1186820000000000  -17.5582013076833618  18.4187024493827671 -26.1768809048737268 0 0 0
189       11   5    0.2337370000000000  -16.3253103512963840  18.4583437510307249 -27.0611534014848445 0 0 0
190       11   9   -0.1823940000000000  -16.6575635739409904  18.0857939212478911 -28.4068913634488602 0 0 0
191       11   7    0.3300090000000000  -16.7329161017659764  16.7452806459852610 -28.6454766722904317 0 0 0
192       11   10  -0.4278410000000000  -16.5482266939496085  15.8700402723634379 -27.8136973803969845 0 0 0
193       11   4    0.0924390000000000  -17.0681478160682119  16.5128593196798832 -30.0993545750747273 0 0 0
194       11   6   -0.1079060000000000  -17.3086183168105059  15.0421310687825844 -30.3919500287053452 0 0 0
195       11   1    0.0285690000000000  -17.3299238670070785  18.7980304317168674 -25.1769403646931380 0 0 0
196       11   1    0.0285690000000000  -17.9409689787404112  17.3978748623778685 -26.0797651975792384 0 0 0
197       11   1    0.0285690000000000  -18.3633688232644836  19.0203763869700957 -26.6106652334070333 0 0 0
198       11   3   -0.0094320000000000  -15.5231684290978578  17.8249653531572285 -26.6647945814002583 0 0 0
199       11   3   -0.0094320000000000  -15.9367574844542474  19.4813129691822731 -27.1013260536649412 0 0 0
200       11   2    0.0140440000000000  -16.2350913594722641  16.8778320085106728 -30.7089150317411992 0 0 0
201       11   2    0.0140440000000000  -17.9706529529664145  17.0816032412648191 -30.3471314120319740 0 0 0
202       11   1    0.0285690000000000  -16.4261871023132535  14.4423393178958452 -30.1452109465778797 0 0 0
203       11   1    0.0285690000000000  -17.5373155490670527  14.8947039368018377 -31.4517533142324979 0 0 0
204       11   1    0.0285690000000000  -18.1483952917383284  14.6586240632863660 -29.8027835377909369 0 0 0
205       12   8   -0.1186820000000000  -18.4959498092763184 -18.3732978949839136  26.6108695610692862 0 0 0
206       12   5    0.2337370000000000  -18.9161292141984205 -17.2528319147460358  27.5444297606326991 0 0 0
207       12   9   -0.1823940000000000  -17.7955273005142196 -16.4141198162738888  27.8622498493995394 0 0 0
208       12   7    0.3300090000000000  -16.9775485470254885 -16.8738671701080527  28.8517547375549697 0 0 0
209       12   10  -0.4278410000000000  -17.1284641379431513 -17.9219605773027695  29.4606368062784121 0 0 0
210       12   4    0.0924390000000000  -15.8646816436941087 -15.8801200202903487  29.0844665531098521 0 0 0
211       12   6   -0.1079060000000000  -14.8399899098092565 -16.4062499471342385  30.0742513275872518 0 0 0
212       12   1    0.0285690000000000  -19.3644011172893329 -18.9535259329129211  26.2868184206430264 0 0 0
213       12   1    0.0285690000000000  -17.7910774484673659 -19.0517893282588524  27.1016198467952591 0 0 0
214       12   1    0.0285690000000000  -17.9878442005961823 -17.9702440512044994  25.7289107250443649 0 0 0
215       12   3   -0.0094320000000000  -19.3872642350706741 -17.6408067031575797  28.4550380892596166 0 0 0
216       12   3   -0.0094320000000000  -19.6561021776523930 -16.6187582898578121  27.0449862251071451 0 0 0
217       12   2    0.0140440000000000  -16.3035037622017285 -14.9528897821221385  29.4671299920937955 0 0 0
218       12   2    0.0140440000000000  -15.3704274360390425 -15.6758801952678812  28.1287587507507588 0 0 0
219       12   1    0.0285690000000000  -15.3047704836236793 -16.6303452140779768  31.0402096584370533 0 0 0
220       12   1    0.0285690000000000  -14.0502785297506847 -15.6667491344310825  30.2376975619194610 0 0 0
221       12   1    0.0285690000000000  -14.3768540464843557 -17.3273780275064055  29.7048621337114866 0 0 0
222       13   8   -0.1186820000000000  -4.6054658065615612   4.9097666490126501   3.3647526693595351  0 0 0
223       13   5    0.2337370000000000  -5.0545132533105415   6.2931905590002293   3.7983700897232708  0 0 0
224       13   9   -0.1823940000000000  -4.9810847753897294   6.4229785694236536   5.2259413043674190  0 0 0
225       13   7    0.3300090000000000  -6.0373016162657533   5.9097818699522451   5.9192031069366298  0 0 0
226       13   10  -0.4278410000000000  -7.0069165335903332   5.3592268810699037   5.4204558806602234  0 0 0
227       13   4    0.0924390000000000  -5.8262366889627559   6.1390756836883646   7.3967134706380016  0 0 0
228       13   6   -0.1079060000000000  -6.8997978086214582   5.4602348025072978   8.2292525565639689  0 0 0
229       13   1    0.0285690000000000  -4.5638963744596568   4.8402365203085491   2.2741936679675256  0 0 0
230       13   1    0.0285690000000000  -5.2898467474787960   4.1394647139829512   3.7339263000521035  0 0 0
231       13   1    0.0285690000000000  -3.6166263285994011   4.6793763372835864   3.7741325541669268  0 0 0
232       13   3   -0.0094320000000000  -6.0625168509358174   6.5234939492619084   3.4342419967278701  0 0 0
233       13   3   -0.0094320000000000  -4.3805510562608587   7.0456767694782787   3.3757678493265129  0 0 0
234       13   2    0.0140440000000000  -5.8417401037228203   7.2175371550677507   7.5849488888806817  0 0 0
235       13   2    0.0140440000000000  -4.8460947092438849   5.7394816615452244   7.6778270570407807  0 0 0
236       13   1    0.0285690000000000  -7.8958167367770358   5.8311762337687094   7.9653133273282730  0 0 0
237       13   1    0.0285690000000000  -6.7353102243167369   5.6491587368219189   9.2943684042315837  0 0 0
238       13   1    0.0285690000000000  -6.8932223853816277   4.3770809077055759   8.0675288759074935  0 0 0
239       14   8   -0.1186820000000000  -29.1074315581364580  19.4517854841394779 -29.2595386398315362 0 0 0
240       14   5    0.2337370000000000  -29.9308420200090382  18.4236311946834341 -28.5056000748596148 0 0 0
241       14   9   -0.1823940000000000  -29.0824583699777541  17.5844770919000659 -27.7079398614595469 0 0 0
242       14   7    0.3300090000000000  -28.4818131525167786  16.5547385310610800 -28.3700883442506075 0 0 0
243       14   10  -0.4278410000000000  -28.6099735150121006  16.3122102777848355 -29.5603688352475125 0 0 0
244       14   4    0.0924390000000000  -27.6443755923370240  15.7556956166665660 -27.4003514288162542 0 0 0
245       14   6   -0.1079060000000000  -26.8360209138410823  14.6825184587269177 -28.1084003329396062 0 0 0
246       14   1    0.0285690000000000  -29.7564069133468223  20.1554385995259295 -29.7882963097868263 0 0 0
247       14   1    0.0285690000000000  -28.4507079636553790  18.9710394261066497 -29.9914053361210584 0 0 0
248       14   1    0.0285690000000000  -28.4632432105484945  20.0092690207515425 -28.5720005839841491 0 0 0
249       14   3   -0.0094320000000000  -30.5496368380116117  17.8250377347996931 -29.1841861161967202 0 0 0
250       14   3   -0.0094320000000000  -30.6114886246880857  18.9342355529640756 -27.8163565892584010 0 0 0
251       14   2    0.0140440000000000  -28.3125323277916721  15.2901993472360651 -26.6684826743165999 0 0 0
252       14   2    0.0140440000000000  -26.9618706815952507  16.4369454028437723 -26.8812519132637284 0 0 0
253       14   1    0.0285690000000000  -27.4898265075939214  13.9883927275306643 -28.6469566273682830 0 0 0
254       14   1    0.0285690000000000  -26.2469512842039663  14.1081042178201663 -27.3871060527857111 0 0 0
255       14   1    0.0285690000000000  -26.1491105261285632  15.1270953150954988 -28.8363602789078364 0 0 0
256       15   8   -0.1186820000000000  -7.0626803896646102  -26.7379432072467473  26.8306927752873428 0 0 0
257       15   5    0.2337370000000000  -6.8477516753868786  -26.6808855728795109  28.3320519813201095 0 0 0
258       15   9   -0.1823940000000000  -5.6128499633847664  -27.3192195253077124  28.6894645843039022 0 0 0
259       15   7    0.3300090000000000  -5.6600958270484254  -28.6782667564749119  28.7911269963519842 0 0 0
260       15   10  -0.4278410000000000  -6.6513604157412667  -29.3653110654779219  28.5977948674386049 0 0 0
261       15   4    0.0924390000000000  -4.3001951615817608  -29.1986936369442631  29.1911107129559184 0 0 0
262       15   6   -0.1079060000000000  -4.2538494632934576  -30.7166412633565393  29.1781944859723588 0 0 0
263       15   1    0.0285690000000000  -7.9498274137480331  -26.1661569201861788  26.5444900646268103 0 0 0
264       15   1    0.0285690000000000  -7.1924391814862991  -27.7699960653172901  26.4900154101845295 0 0 0
265       15   1    0.0285690000000000  -6.1933421857480999  -26.3351054120405124  26.3011194593389206 0 0 0
266       15   3   -0.0094320000000000  -7.6901453381680422  -27.1214509458461634  28.8779230664206850 0 0 0
267       15   3   -0.0094320000000000  -6.7694218102707353  -25.6362493579757782  28.6508823505487840 0 0 0
268       15   2    0.0140440000000000  -4.0719215342075241  -28.8321918717672006  30.1972516975935115 0 0 0
269       15   2    0.0140440000000000  -3.5547550304083217  -28.8096457127572521  28.4894418060476156 0 0 0
270       15   1    0.0285690000000000  -4.9959617890819397  -31.1389143556583292  29.8639567617142347 0 0 0