
                                 *****************
                                 * O   R   C   A *
                                 *****************

           --- An Ab Initio, DFT and Semiempirical electronic structure package ---

                  #######################################################
                  #                        -***-                        #
                  #          Department of theory and spectroscopy      #
                  #               Directorship: Frank Neese             #
                  #        Max Planck Institute fuer Kohlenforschung    #
                  #                Kaiser Wilhelm Platz 1               #
                  #                 D-45470 Muelheim/Ruhr               #
                  #                      Germany                        #
                  #                                                     #
                  #                  All rights reserved                #
                  #                        -***-                        #
                  #######################################################


                         Program Version 4.1.2  - RELEASE  -


 With contributions from (in alphabetic order):
   Daniel Aravena         : Magnetic Properties
   Michael Atanasov       : Ab Initio Ligand Field Theory
   Alexander A. Auer      : GIAO ZORA
   Ute Becker             : Parallelization
   Giovanni Bistoni       : ED, Open-shell LED
   Martin Brehm           : Molecular dynamics
   Dmytro Bykov           : SCF Hessian
   Vijay G. Chilkuri      : MRCI spin determinant printing
   Dipayan Datta          : RHF DLPNO-CCSD density
   Achintya Kumar Dutta   : EOM-CC, STEOM-CC
   Dmitry Ganyushin       : Spin-Orbit,Spin-Spin,Magnetic field MRCI
   Miquel Garcia          : C-PCM Hessian
   Yang Guo               : DLPNO-NEVPT2, CIM, IAO-localization
   Andreas Hansen         : Spin unrestricted coupled pair/coupled cluster methods
   Benjamin Helmich-Paris : CASSCF linear response (MC-RPA)
   Lee Huntington         : MR-EOM, pCC
   Robert Izsak           : Overlap fitted RIJCOSX, COSX-SCS-MP3, EOM
   Christian Kollmar      : KDIIS, OOCD, Brueckner-CCSD(T), CCSD density
   Simone Kossmann        : Meta GGA functionals, TD-DFT gradient, OOMP2, MP2 Hessian
   Martin Krupicka        : AUTO-CI
   Lucas Lang             : DCDCAS
   Dagmar Lenk            : GEPOL surface, SMD
   Dimitrios Liakos       : Extrapolation schemes; parallel MDCI
   Dimitrios Manganas     : ROCIS; embedding schemes
   Dimitrios Pantazis     : SARC Basis sets
   Taras Petrenko         : DFT Hessian,TD-DFT gradient, ASA, ECA, R-Raman, ABS, FL, XAS/XES, NRVS
   Peter Pinski           : DLPNO-MP2, DLPNO-MP2 Gradient
   Christoph Reimann      : Effective Core Potentials
   Marius Retegan         : Local ZFS, SOC
   Christoph Riplinger    : Optimizer, TS searches, QM/MM, DLPNO-CCSD(T), (RO)-DLPNO pert. Triples
   Tobias Risthaus        : Range-separated hybrids, TD-DFT gradient, RPA, STAB
   Michael Roemelt        : Restricted open shell CIS
   Masaaki Saitow         : Open-shell DLPNO
   Barbara Sandhoefer     : DKH picture change effects
   Avijit Sen             : IP-ROCIS
   Kantharuban Sivalingam : CASSCF convergence, NEVPT2, FIC-MRCI
   Bernardo de Souza      : ESD, SOC TD-DFT
   Georgi Stoychev        : AutoAux, RI-MP2 NMR
   Willem Van den Heuvel  : Paramagnetic NMR
   Boris Wezisla          : Elementary symmetry handling
   Frank Wennmohs         : Technical directorship


 We gratefully acknowledge several colleagues who have allowed us to
 interface, adapt or use parts of their codes:
   Stefan Grimme, W. Hujo, H. Kruse,             : VdW corrections, initial TS optimization,
                  C. Bannwarth                     DFT functionals, gCP, sTDA/sTD-DF
   Ed Valeev                                     : LibInt (2-el integral package), F12 methods
   Garnet Chan, S. Sharma, J. Yang, R. Olivares  : DMRG
   Ulf Ekstrom                                   : XCFun DFT Library
   Mihaly Kallay                                 : mrcc  (arbitrary order and MRCC methods)
   Andreas Klamt, Michael Diedenhofen            : otool_cosmo (COSMO solvation model)
   Jiri Pittner, Ondrej Demel                    : Mk-CCSD
   Frank Weinhold                                : gennbo (NPA and NBO analysis)
   Christopher J. Cramer and Donald G. Truhlar   : smd solvation model
   Lars Goerigk                                  : TD-DFT with DH, B97 family of functionals
   V. Asgeirsson, H. Jonsson                     : NEB implementation
   FAccTs GmbH                                   : IRC, NEB, NEB-TS, Multilevel


 Your calculation uses the libint2 library for the computation of 2-el integrals
 For citations please refer to: http://libint.valeyev.net

 This ORCA versions uses:
   CBLAS   interface :  Fast vector & matrix operations
   LAPACKE interface :  Fast linear algebra routines
   SCALAPACK package :  Parallel linear algebra routines


Your calculation utilizes the atom-pairwise dispersion correction
with the zero-damping scheme (D30)
Cite in your paper:
S.Grimme, J.Antony, S.Ehrlich and H.Krieg, J.Chem.Phys., 132, (2010), 154104 
   

XCFun DFT library Copyright 2009-2010 Ulf Ekstrom and contributors.
See http://admol.org/xcfun for more information. This is free soft-
ware; see the source code for copying conditions. There is ABSOLUTELY
NO WARRANTY; not even for MERCHANTABILITY or FITNESS FOR A PARTICULAR
PURPOSE. For details see the documentation. Scientific users of this 
library should cite U. Ekstrom, L. Visscher, R. Bast, A. J. Thorvald-
sen and K. Ruud; J.Chem.Theor.Comp. 2010, DOI: 10.1021/ct100117s
XCFun Version 0.99 
----- Orbital basis set information -----
Your calculation utilizes the basis: def2-TZVP
   F. Weigend and R. Ahlrichs, Phys. Chem. Chem. Phys. 7, 3297 (2005).

================================================================================
                                        WARNINGS
                       Please study these warnings very carefully!
================================================================================


INFO   : the flag for use of LIBINT has been found!

================================================================================
                                       INPUT FILE
================================================================================
NAME = 6.in
|  1> #Run DFT-D3 single point of the dimer
|  2> ! wB97X-D3 def2-TZVP TIGHTSCF  CHELPG PAL8
|  3> 
|  4> %base "6_charges"
|  5> 
|  6> %scf
|  7> MaxIter 1000
|  8> end
|  9> %output
| 10>   Print[ P_Mayer ] 1
| 11>   Print[ P_NatPop ] 1
| 12>   Print[ P_Hirshfeld ] 1
| 13>   Print[ P_Mulliken ] 1
| 14>   Print [ P_Loewdin ] 1
| 15> end
| 16> 
| 17> * xyz 0 1
| 18>   C                      6.200363             11.031047            3.887116            
| 19>   O                      5.072839             10.872300            3.084618            
| 20>   H                      4.556574             11.698012            3.095751            
| 21>   H                      6.368848             12.120012            4.016940            
| 22>   H                      6.180327             10.474969            4.819324            
| 23>   H                      7.104946             10.555412            3.371985            
| 24> *
| 25> 
| 26>                          ****END OF INPUT****
================================================================================

                       ****************************
                       * Single Point Calculation *
                       ****************************

---------------------------------
CARTESIAN COORDINATES (ANGSTROEM)
---------------------------------
  C      6.200363   11.031047    3.887116
  O      5.072839   10.872300    3.084618
  H      4.556574   11.698012    3.095751
  H      6.368848   12.120012    4.016940
  H      6.180327   10.474969    4.819324
  H      7.104946   10.555412    3.371985

----------------------------
CARTESIAN COORDINATES (A.U.)
----------------------------
  NO LB      ZA    FRAG     MASS         X           Y           Z
   0 C     6.0000    0    12.011   11.716988   20.845658    7.345585
   1 O     8.0000    0    15.999    9.586276   20.545669    5.829083
   2 H     1.0000    0     1.008    8.610677   22.106039    5.850122
   3 H     1.0000    0     1.008   12.035379   22.903503    7.590916
   4 H     1.0000    0     1.008   11.679125   19.794823    9.107203
   5 H     1.0000    0     1.008   13.426402   19.946838    6.372128

--------------------------------
INTERNAL COORDINATES (ANGSTROEM)
--------------------------------
 C      0   0   0     0.000000000000     0.00000000     0.00000000
 O      1   0   0     1.393023338135     0.00000000     0.00000000
 H      2   1   0     0.973885928052   109.01817984     0.00000000
 H      1   2   3     1.109543256221   107.58737915   340.86545548
 H      1   2   3     1.085650007435   114.92008120   108.87506264
 H      1   2   3     1.144490718300   109.45626855   221.47031363

---------------------------
INTERNAL COORDINATES (A.U.)
---------------------------
 C      0   0   0     0.000000000000     0.00000000     0.00000000
 O      1   0   0     2.632432607236     0.00000000     0.00000000
 H      2   1   0     1.840377689698   109.01817984     0.00000000
 H      1   2   3     2.096732887997   107.58737915   340.86545548
 H      1   2   3     2.051581191342   114.92008120   108.87506264
 H      1   2   3     2.162774020402   109.45626855   221.47031363

---------------------
BASIS SET INFORMATION
---------------------
There are 3 groups of distinct atoms

 Group   1 Type C   : 11s6p2d1f contracted to 5s3p2d1f pattern {62111/411/11/1}
 Group   2 Type O   : 11s6p2d1f contracted to 5s3p2d1f pattern {62111/411/11/1}
 Group   3 Type H   : 5s1p contracted to 3s1p pattern {311/1}

Atom   0C    basis set group =>   1
Atom   1O    basis set group =>   2
Atom   2H    basis set group =>   3
Atom   3H    basis set group =>   3
Atom   4H    basis set group =>   3
Atom   5H    basis set group =>   3


           ************************************************************
           *        Program running with 8 parallel MPI-processes     *
           *              working on a common directory               *
           ************************************************************
------------------------------------------------------------------------------
                           ORCA GTO INTEGRAL CALCULATION
------------------------------------------------------------------------------

                         BASIS SET STATISTICS AND STARTUP INFO

 # of primitive gaussian shells          ...   64
 # of primitive gaussian functions       ...  124
 # of contracted shells                  ...   38
 # of contracted basis functions         ...   86
 Highest angular momentum                ...    3
 Maximum contraction depth               ...    6
 Integral package used                   ... LIBINT
 Integral threshhold            Thresh   ...  2.500e-11
 Primitive cut-off              TCut     ...  2.500e-12


------------------------------ INTEGRAL EVALUATION ----------------------------


 * One electron integrals 
 Pre-screening matrix                    ... done
 Shell pair data                         ... done (   0.000 sec)



           ************************************************************
           *        Program running with 8 parallel MPI-processes     *
           *              working on a common directory               *
           ************************************************************
-------------------------------------------------------------------------------
                                 ORCA SCF
-------------------------------------------------------------------------------

------------
SCF SETTINGS
------------
Hamiltonian:
 Density Functional     Method          .... DFT(GTOs)
 Exchange Functional    Exchange        .... WB97X-D3
 Correlation Functional Correlation     .... WB97X-D3
 Gradients option       PostSCFGGA      .... off
 Hybrid DFT is turned on
   Fraction HF Exchange ScalHFX         ....  0.195728
   Scaling of DF-GGA-X  ScalDFX         ....  0.000000
   Scaling of DF-GGA-C  ScalDFC         ....  1.000000
   Scaling of DF-LDA-C  ScalLDAC        ....  1.000000
   Perturbative correction              ....  0.000000
   Density functional embedding theory  .... OFF
 Long-range corrected/Screened/Range-Separated Hybrid DFT is turned on
   Amount of maximum screened exact exchange              ....  0.804272
   Range separation parameter mu (erf(mu*r12)/r12)        ....  0.250000


General Settings:
 Integral files         IntName         .... 6_charges
 Hartree-Fock type      HFTyp           .... RHF
 Total Charge           Charge          ....    0
 Multiplicity           Mult            ....    1
 Number of Electrons    NEL             ....   18
 Basis Dimension        Dim             ....   86
 Nuclear Repulsion      ENuc            ....     40.4476109689 Eh

Convergence Acceleration:
 DIIS                   CNVDIIS         .... on
   Start iteration      DIISMaxIt       ....    12
   Startup error        DIISStart       ....  0.200000
   # of expansion vecs  DIISMaxEq       ....     5
   Bias factor          DIISBfac        ....   1.050
   Max. coefficient     DIISMaxC        ....  10.000
 Newton-Raphson         CNVNR           .... off
 SOSCF                  CNVSOSCF        .... on
   Start iteration      SOSCFMaxIt      ....   150
   Startup grad/error   SOSCFStart      ....  0.003300
 Level Shifting         CNVShift        .... on
   Level shift para.    LevelShift      ....    0.2500
   Turn off err/grad.   ShiftErr        ....    0.0010
 Zerner damping         CNVZerner       .... off
 Static damping         CNVDamp         .... on
   Fraction old density DampFac         ....    0.7000
   Max. Damping (<1)    DampMax         ....    0.9800
   Min. Damping (>=0)   DampMin         ....    0.0000
   Turn off err/grad.   DampErr         ....    0.1000
 Fernandez-Rico         CNVRico         .... off

SCF Procedure:
 Maximum # iterations   MaxIter         ....  1000
 SCF integral mode      SCFMode         .... Direct
   Integral package                     .... LIBINT
 Reset frequency        DirectResetFreq ....    20
 Integral Threshold     Thresh          ....  2.500e-11 Eh
 Primitive CutOff       TCut            ....  2.500e-12 Eh

Convergence Tolerance:
 Convergence Check Mode ConvCheckMode   .... Total+1el-Energy
 Convergence forced     ConvForced      .... 0
 Energy Change          TolE            ....  1.000e-08 Eh
 1-El. energy change                    ....  1.000e-05 Eh
 Orbital Gradient       TolG            ....  1.000e-05
 Orbital Rotation angle TolX            ....  1.000e-05
 DIIS Error             TolErr          ....  5.000e-07


Diagonalization of the overlap matrix:
Smallest eigenvalue                        ... 1.854e-03
Time for diagonalization                   ...    0.399 sec
Threshold for overlap eigenvalues          ... 1.000e-08
Number of eigenvalues below threshold      ... 0
Time for construction of square roots      ...    0.165 sec
Total time needed                          ...    0.564 sec

-------------------
DFT GRID GENERATION
-------------------

General Integration Accuracy     IntAcc      ...  4.340
Radial Grid Type                 RadialGrid  ... Gauss-Chebyshev
Angular Grid (max. acc.)         AngularGrid ... Lebedev-110
Angular grid pruning method      GridPruning ... 3 (G Style)
Weight generation scheme         WeightScheme... Becke
Basis function cutoff            BFCut       ...    1.0000e-11
Integration weight cutoff        WCut        ...    1.0000e-14
Grids for H and He will be reduced by one unit

# of grid points (after initial pruning)     ...   6548 (   0.0 sec)
# of grid points (after weights+screening)   ...   6382 (   1.1 sec)
nearest neighbour list constructed           ...    0.0 sec
Grid point re-assignment to atoms done       ...    0.0 sec
Grid point division into batches done        ...    0.0 sec
Reduced shell lists constructed in    0.0 sec

Total number of grid points                  ...     6382
Total number of batches                      ...      102
Average number of points per batch           ...       62
Average number of grid points per atom       ...     1064
Average number of shells per batch           ...    31.86 (83.83%)
Average number of basis functions per batch  ...    73.14 (85.05%)
Average number of large shells per batch     ...    30.50 (95.74%)
Average number of large basis fcns per batch ...    69.79 (95.41%)
Maximum spatial batch extension              ...  13.55, 17.07, 16.81 au
Average spatial batch extension              ...   0.38,  0.48,  0.47 au

Time for grid setup =    1.607 sec

------------------------------
INITIAL GUESS: MODEL POTENTIAL
------------------------------
Loading Hartree-Fock densities                     ... done
Calculating cut-offs                               ... done
Setting up the integral package                    ... done
Initializing the effective Hamiltonian             ... done
Starting the Coulomb interaction                   ... done (   0.0 sec)
Reading the grid                                   ... done
Mapping shells                                     ... done
Starting the XC term evaluation                    ... done (   0.3 sec)
  promolecular density results
     # of electrons  =     17.998400397
     EX              =    -14.423957632
     EC              =     -0.574898439
     EX+EC           =    -14.998856071
Transforming the Hamiltonian                       ... done (   0.0 sec)
Diagonalizing the Hamiltonian                      ... done (   0.0 sec)
Back transforming the eigenvectors                 ... done (   0.0 sec)
Now organizing SCF variables                       ... done
                      ------------------
                      INITIAL GUESS DONE (   2.3 sec)
                      ------------------
--------------
SCF ITERATIONS
--------------
ITER       Energy         Delta-E        Max-DP      RMS-DP      [F,P]     Damp
               ***  Starting incremental Fock matrix formation  ***
  0   -115.6440739980   0.000000000000 0.03719326  0.00150595  0.2548449 0.7000
  1   -115.6813226374  -0.037248639359 0.02229595  0.00106657  0.1272359 0.7000
                               ***Turning on DIIS***
  2   -115.6982619972  -0.016939359774 0.03214969  0.00190058  0.0493263 0.0000
  3   -115.7256552682  -0.027393271018 0.01695807  0.00071046  0.0611216 0.0000
  4   -115.7302908160  -0.004635547786 0.00402172  0.00014115  0.0061595 0.0000
                      *** Initiating the SOSCF procedure ***
                           *** Shutting down DIIS ***
                      *** Re-Reading the Fockian *** 
                      *** Removing any level shift *** 
ITER      Energy       Delta-E        Grad      Rot      Max-DP    RMS-DP
  5   -115.73038350  -0.0000926890  0.000421  0.000421  0.000813  0.000050
               *** Restarting incremental Fock matrix formation ***
  6   -115.73039204  -0.0000085319  0.000138  0.000191  0.000500  0.000031
  7   -115.73039286  -0.0000008219  0.000046  0.000115  0.000234  0.000014
  8   -115.73039292  -0.0000000657  0.000025  0.000021  0.000040  0.000002
  9   -115.73039294  -0.0000000135  0.000010  0.000010  0.000020  0.000001
                  ***Gradient check signals convergence***
              ***Rediagonalizing the Fockian in SOSCF/NRSCF***

               *****************************************************
               *                     SUCCESS                       *
               *           SCF CONVERGED AFTER  10 CYCLES          *
               *****************************************************

Setting up the final grid:

General Integration Accuracy     IntAcc      ...  4.670
Radial Grid Type                 RadialGrid  ... Gauss-Chebyshev
Angular Grid (max. acc.)         AngularGrid ... Lebedev-302
Angular grid pruning method      GridPruning ... 3 (G Style)
Weight generation scheme         WeightScheme... Becke
Basis function cutoff            BFCut       ...    1.0000e-11
Integration weight cutoff        WCut        ...    1.0000e-14
Grids for H and He will be reduced by one unit

# of grid points (after initial pruning)     ...  26000 (   0.0 sec)
# of grid points (after weights+screening)   ...  25200 (   0.0 sec)
nearest neighbour list constructed           ...    0.0 sec
Grid point re-assignment to atoms done       ...    0.0 sec
Grid point division into batches done        ...    0.2 sec
Reduced shell lists constructed in    0.2 sec

Total number of grid points                  ...    25200
Total number of batches                      ...      396
Average number of points per batch           ...       63
Average number of grid points per atom       ...     4200
Average number of shells per batch           ...    31.45 (82.77%)
Average number of basis functions per batch  ...    72.12 (83.86%)
Average number of large shells per batch     ...    29.94 (95.20%)
Average number of large basis fcns per batch ...    69.04 (95.73%)
Maximum spatial batch extension              ...  15.91, 15.86, 16.88 au
Average spatial batch extension              ...   0.28,  0.30,  0.31 au

Final grid set up in    0.6 sec
Final integration                            ... done (   0.1 sec)
Change in XC energy                          ...    -0.000467778
Integrated number of electrons               ...    18.000015767
Previous integrated no of electrons          ...    17.999497912

----------------
TOTAL SCF ENERGY
----------------

Total Energy       :         -115.73086072 Eh           -3149.19682 eV

Components:
Nuclear Repulsion  :           40.44761097 Eh            1100.63545 eV
Electronic Energy  :         -156.17847169 Eh           -4249.83227 eV
One Electron Energy:         -237.31711147 Eh           -6457.72691 eV
Two Electron Energy:           81.13863979 Eh            2207.89464 eV

Virial components:
Potential Energy   :         -230.92082104 Eh           -6283.67500 eV
Kinetic Energy     :          115.18996032 Eh            3134.47817 eV
Virial Ratio       :            2.00469573


DFT components:
N(Alpha)           :        9.000007883315 electrons
N(Beta)            :        9.000007883315 electrons
N(Total)           :       18.000015766629 electrons
E(XC)              :      -10.641458090019 Eh       
DFET-embed. en.    :        0.000000000000 Eh       

---------------
SCF CONVERGENCE
---------------

  Last Energy change         ...   -2.0154e-09  Tolerance :   1.0000e-08
  Last MAX-Density change    ...    4.8470e-06  Tolerance :   1.0000e-07
  Last RMS-Density change    ...    2.5348e-07  Tolerance :   5.0000e-09
  Last Orbital Gradient      ...    2.3287e-06  Tolerance :   1.0000e-05
  Last Orbital Rotation      ...    3.2121e-06  Tolerance :   1.0000e-05

             **** THE GBW FILE WAS UPDATED (6_charges.gbw) ****
             **** DENSITY FILE WAS UPDATED (6_charges.scfp.tmp) ****
             **** ENERGY FILE WAS UPDATED (6_charges.en.tmp) ****
----------------
ORBITAL ENERGIES
----------------

  NO   OCC          E(Eh)            E(eV) 
   0   2.0000     -19.230729      -523.2948 
   1   2.0000     -10.317253      -280.7467 
   2   2.0000      -1.140203       -31.0265 
   3   2.0000      -0.789148       -21.4738 
   4   2.0000      -0.612309       -16.6618 
   5   2.0000      -0.547744       -14.9049 
   6   2.0000      -0.524792       -14.2803 
   7   2.0000      -0.427929       -11.6445 
   8   2.0000      -0.368890       -10.0380 
   9   0.0000       0.109823         2.9884 
  10   0.0000       0.153690         4.1821 
  11   0.0000       0.196557         5.3486 
  12   0.0000       0.209242         5.6938 
  13   0.0000       0.230255         6.2656 
  14   0.0000       0.300578         8.1791 
  15   0.0000       0.315410         8.5827 
  16   0.0000       0.411319        11.1925 
  17   0.0000       0.441537        12.0148 
  18   0.0000       0.476247        12.9593 
  19   0.0000       0.518902        14.1200 
  20   0.0000       0.551058        14.9951 
  21   0.0000       0.559728        15.2310 
  22   0.0000       0.597086        16.2475 
  23   0.0000       0.611583        16.6420 
  24   0.0000       0.693309        18.8659 
  25   0.0000       0.755355        20.5543 
  26   0.0000       0.807787        21.9810 
  27   0.0000       0.863645        23.5010 
  28   0.0000       0.982576        26.7372 
  29   0.0000       1.056132        28.7388 
  30   0.0000       1.123526        30.5727 
  31   0.0000       1.369138        37.2561 
  32   0.0000       1.464659        39.8554 
  33   0.0000       1.544177        42.0192 
  34   0.0000       1.598115        43.4869 
  35   0.0000       1.619629        44.0724 
  36   0.0000       1.640601        44.6430 
  37   0.0000       1.690910        46.0120 
  38   0.0000       1.710976        46.5580 
  39   0.0000       1.763392        47.9843 
  40   0.0000       1.941388        52.8279 
  41   0.0000       1.993729        54.2521 
  42   0.0000       2.056846        55.9696 
  43   0.0000       2.079713        56.5919 
  44   0.0000       2.155433        58.6523 
  45   0.0000       2.245746        61.1099 
  46   0.0000       2.302106        62.6435 
  47   0.0000       2.361821        64.2684 
  48   0.0000       2.370506        64.5048 
  49   0.0000       2.458290        66.8935 
  50   0.0000       2.515573        68.4522 
  51   0.0000       2.548475        69.3475 
  52   0.0000       2.596449        70.6530 
  53   0.0000       2.666582        72.5614 
  54   0.0000       2.841268        77.3148 
  55   0.0000       2.862924        77.9041 
  56   0.0000       2.910495        79.1986 
  57   0.0000       2.993510        81.4575 
  58   0.0000       3.098511        84.3148 
  59   0.0000       3.162217        86.0483 
  60   0.0000       3.277604        89.1881 
  61   0.0000       3.376665        91.8837 
  62   0.0000       3.477608        94.6305 
  63   0.0000       3.521546        95.8261 
  64   0.0000       3.597902        97.9039 
  65   0.0000       3.651845        99.3718 
  66   0.0000       3.667532        99.7986 
  67   0.0000       3.963435       107.8505 
  68   0.0000       4.162746       113.2741 
  69   0.0000       4.256424       115.8232 
  70   0.0000       4.440407       120.8296 
  71   0.0000       4.545211       123.6815 
  72   0.0000       5.353818       145.6848 
  73   0.0000       5.415261       147.3568 
  74   0.0000       5.563057       151.3785 
  75   0.0000       5.838859       158.8834 
  76   0.0000       5.860663       159.4768 
  77   0.0000       5.984839       162.8557 
  78   0.0000       6.301583       171.4748 
  79   0.0000       6.529961       177.6893 
  80   0.0000       6.779060       184.4676 
  81   0.0000       6.816450       185.4850 
  82   0.0000       7.033543       191.3924 
  83   0.0000       7.198070       195.8695 
  84   0.0000      22.370609       608.7352 
  85   0.0000      43.678098      1188.5415 

                    ********************************
                    * MULLIKEN POPULATION ANALYSIS *
                    ********************************

-----------------------
MULLIKEN ATOMIC CHARGES
-----------------------
   0 C :   -0.154853
   1 O :   -0.469171
   2 H :    0.320178
   3 H :    0.097039
   4 H :    0.104582
   5 H :    0.102226
Sum of atomic charges:    0.0000000

--------------------------------
MULLIKEN REDUCED ORBITAL CHARGES
--------------------------------
  0 C s       :     3.228518  s :     3.228518
      pz      :     0.952453  p :     2.814922
      px      :     0.821747
      py      :     1.040723
      dz2     :     0.031648  d :     0.103204
      dxz     :     0.018169
      dyz     :     0.012934
      dx2y2   :     0.018111
      dxy     :     0.022342
      f0      :     0.000666  f :     0.008210
      f+1     :     0.002525
      f-1     :     0.000552
      f+2     :     0.001355
      f-2     :     0.001248
      f+3     :     0.000477
      f-3     :     0.001387
  1 O s       :     3.790311  s :     3.790311
      pz      :     1.713533  p :     4.646453
      px      :     1.413101
      py      :     1.519819
      dz2     :     0.005610  d :     0.030692
      dxz     :     0.006625
      dyz     :     0.003376
      dx2y2   :     0.006309
      dxy     :     0.008772
      f0      :     0.000185  f :     0.001715
      f+1     :     0.000345
      f-1     :     0.000191
      f+2     :     0.000276
      f-2     :     0.000166
      f+3     :     0.000478
      f-3     :     0.000073
  2 H s       :     0.633628  s :     0.633628
      pz      :     0.014829  p :     0.046195
      px      :     0.014850
      py      :     0.016515
  3 H s       :     0.883865  s :     0.883865
      pz      :     0.003605  p :     0.019096
      px      :     0.003451
      py      :     0.012040
  4 H s       :     0.875032  s :     0.875032
      pz      :     0.010510  p :     0.020386
      px      :     0.003364
      py      :     0.006512
  5 H s       :     0.879142  s :     0.879142
      pz      :     0.004890  p :     0.018632
      px      :     0.008668
      py      :     0.005074


                     *******************************
                     * LOEWDIN POPULATION ANALYSIS *
                     *******************************

----------------------
LOEWDIN ATOMIC CHARGES
----------------------
   0 C :   -0.409008
   1 O :   -0.071715
   2 H :    0.179528
   3 H :    0.098926
   4 H :    0.092427
   5 H :    0.109843

-------------------------------
LOEWDIN REDUCED ORBITAL CHARGES
-------------------------------
  0 C s       :     2.871532  s :     2.871532
      pz      :     1.037513  p :     3.049845
      px      :     0.928412
      py      :     1.083920
      dz2     :     0.108462  d :     0.427352
      dxz     :     0.099471
      dyz     :     0.055014
      dx2y2   :     0.087788
      dxy     :     0.076617
      f0      :     0.005498  f :     0.060279
      f+1     :     0.015587
      f-1     :     0.003939
      f+2     :     0.009161
      f-2     :     0.010471
      f+3     :     0.005107
      f-3     :     0.010515
  1 O s       :     3.362331  s :     3.362331
      pz      :     1.676947  p :     4.630547
      px      :     1.437575
      py      :     1.516026
      dz2     :     0.014758  d :     0.073979
      dxz     :     0.016145
      dyz     :     0.006072
      dx2y2   :     0.013625
      dxy     :     0.023378
      f0      :     0.000352  f :     0.004858
      f+1     :     0.001037
      f-1     :     0.000450
      f+2     :     0.000741
      f-2     :     0.000644
      f+3     :     0.001262
      f-3     :     0.000373
  2 H s       :     0.669187  s :     0.669187
      pz      :     0.039222  p :     0.151285
      px      :     0.041619
      py      :     0.070444
  3 H s       :     0.843570  s :     0.843570
      pz      :     0.011563  p :     0.057504
      px      :     0.010859
      py      :     0.035083
  4 H s       :     0.845576  s :     0.845576
      pz      :     0.031912  p :     0.061998
      px      :     0.010306
      py      :     0.019780
  5 H s       :     0.838243  s :     0.838243
      pz      :     0.014661  p :     0.051914
      px      :     0.023023
      py      :     0.014230


                      *****************************
                      * MAYER POPULATION ANALYSIS *
                      *****************************

  NA   - Mulliken gross atomic population
  ZA   - Total nuclear charge
  QA   - Mulliken gross atomic charge
  VA   - Mayer's total valence
  BVA  - Mayer's bonded valence
  FA   - Mayer's free valence

  ATOM       NA         ZA         QA         VA         BVA        FA
  0 C      6.1549     6.0000    -0.1549     3.9623     3.9623     0.0000
  1 O      8.4692     8.0000    -0.4692     1.8897     1.8897     0.0000
  2 H      0.6798     1.0000     0.3202     0.9076     0.9076     0.0000
  3 H      0.9030     1.0000     0.0970     0.9692     0.9692     0.0000
  4 H      0.8954     1.0000     0.1046     0.9475     0.9475     0.0000
  5 H      0.8978     1.0000     0.1022     0.9558     0.9558     0.0000

  Mayer bond orders larger than 0.1
B(  0-C ,  1-O ) :   1.0162 B(  0-C ,  3-H ) :   0.9907 B(  0-C ,  4-H ) :   0.9688 
B(  0-C ,  5-H ) :   0.9759 B(  1-O ,  2-H ) :   0.8956 


------------------
HIRSHFELD ANALYSIS
------------------

Total integrated alpha density =      8.999748956
Total integrated beta density  =      8.999748956

  ATOM     CHARGE      SPIN    
   0 C    0.007414    0.000000
   1 O   -0.252408    0.000000
   2 H    0.164563    0.000000
   3 H    0.028486    0.000000
   4 H    0.025851    0.000000
   5 H    0.026597    0.000000

  TOTAL   0.000502    0.000000

-------
TIMINGS
-------

Total SCF time: 0 days 0 hours 0 min 25 sec 

Total time                  ....      25.840 sec
Sum of individual times     ....      22.403 sec  ( 86.7%)

Fock matrix formation       ....      15.320 sec  ( 59.3%)
  XC integration            ....       3.422 sec  ( 22.3% of F)
    Basis function eval.    ....       0.046 sec  (  1.3% of XC)
    Density eval.           ....       0.049 sec  (  1.4% of XC)
    XC-Functional eval.     ....       0.079 sec  (  2.3% of XC)
    XC-Potential eval.      ....       0.031 sec  (  0.9% of XC)
Diagonalization             ....       2.036 sec  (  7.9%)
Density matrix formation    ....       1.144 sec  (  4.4%)
Population analysis         ....       0.078 sec  (  0.3%)
Initial guess               ....       0.734 sec  (  2.8%)
Orbital Transformation      ....       0.000 sec  (  0.0%)
Orbital Orthonormalization  ....       0.000 sec  (  0.0%)
DIIS solution               ....       0.441 sec  (  1.7%)
SOSCF solution              ....       0.457 sec  (  1.8%)
Grid generation             ....       2.193 sec  (  8.5%)


-------------------------------------------------------------------------------
                          DFT DISPERSION CORRECTION                            
                                                                               
                              DFTD3 V3.1  Rev 1                                
                              USING zero damping                               
-------------------------------------------------------------------------------
The omegaB97X-D3 functional is recognized. Fit by Chai et al.
Active option DFTDOPT                   ...         3   

molecular C6(AA) [au] = 208.815332 


            DFT-D V3
 parameters
 s6 scaling factor         :     1.0000 
 rs6 scaling factor        :     1.2810 
 s8 scaling factor         :     1.0000 
 rs8 scaling factor        :     1.0940 
 Damping factor alpha6     :    14.0000 
 Damping factor alpha8     :    16.0000 
 ad hoc parameters k1-k3   :    16.0000     1.3333    -4.0000 

 Edisp/kcal,au: -0.154430729871  -0.000246101007 
 E6   /kcal   :  -0.032845562 
 E8   /kcal   :  -0.121585167 
 % E8         :  78.731200435 

-------------------------   ----------------
Dispersion correction           -0.000246101
-------------------------   ----------------


-------------------------   --------------------
FINAL SINGLE POINT ENERGY      -115.731106818738
-------------------------   --------------------


                            ***************************************
                            *     ORCA property calculations      *
                            ***************************************

                                    ---------------------
                                    Active property flags
                                    ---------------------
   (+) Dipole Moment


------------------------------------------------------------------------------
                       ORCA ELECTRIC PROPERTIES CALCULATION
------------------------------------------------------------------------------

Dipole Moment Calculation                       ... on
Quadrupole Moment Calculation                   ... off
Polarizability Calculation                      ... off
GBWName                                         ... 6_charges.gbw
Electron density file                           ... 6_charges.scfp.tmp
The origin for moment calculation is the CENTER OF MASS  = (10.617976, 20.738923  6.573842)

-------------
DIPOLE MOMENT
-------------
                                X             Y             Z
Electronic contribution:     -1.53048      -0.29258      -0.98543
Nuclear contribution   :      1.62016       0.88989       1.29738
                        -----------------------------------------
Total Dipole Moment    :      0.08968       0.59731       0.31195
                        -----------------------------------------
Magnitude (a.u.)       :      0.67980
Magnitude (Debye)      :      1.72792



--------------------
Rotational spectrum 
--------------------
 
Rotational constants in cm-1:     4.183081     0.851779     0.810094 
Rotational constants in MHz : 125405.626129 25535.681617 24286.009373 

 Dipole components along the rotational axes: 
x,y,z [a.u.] :     0.276140     0.619715     0.042804 
x,y,z [Debye]:     0.701893     1.575190     0.108800 

 
------------------------------------------------------------------------------
                      ORCA CHELPG CHARGES GENERATION
------------------------------------------------------------------------------

GBW file                           ... 6_charges.gbw

Reading the GBW file               ... done

Grid spacing                       ...     0.300000
Point Cut-Off                      ...     2.800000
Van-der-Waals Radii                ...        COSMO
Total charge                       ...            0


Number of points X direction       ...           27
Number of points Y direction       ...           24
Number of points Z direction       ...           24
Maximum number of possible points  ...        15552
Final number of points             ...         5982


CHELPG Charges            
--------------------------------
  0   C   :       0.052898
  1   O   :      -0.583646
  2   H   :       0.402447
  3   H   :       0.016289
  4   H   :       0.050938
  5   H   :       0.061075
--------------------------------
Total charge:     0.000000
--------------------------------

CHELPG charges calculated...

Timings for individual parts in CHELPG calculation:
Grid generation                 ...        0.001 sec (=   0.000 min)
Potential calculation           ...        0.607 sec (=   0.010 min)
Fit to the potential            ...        0.002 sec (=   0.000 min)
------------------------------------------------------------------------------


Timings for individual modules:

Sum of individual times         ...       37.182 sec (=   0.620 min)
GTO integral calculation        ...        5.122 sec (=   0.085 min)  13.8 %
SCF iterations                  ...       31.410 sec (=   0.524 min)  84.5 %
CHELPG charge generation        ...        0.650 sec (=   0.011 min)   1.7 %
                             ****ORCA TERMINATED NORMALLY****
TOTAL RUN TIME: 0 days 0 hours 0 minutes 41 seconds 257 msec
