LAMMPS data file via vdw_self_gen.py, on 2021-08-05 13:23:47.243084

5500 atoms
8 atom types
5000 bonds
7 bond types
9000 angles
12 angle types
9000 dihedrals
9 dihedral types

-40.9320693845456134  40.9320693845456134 xlo xhi
-40.9320693845456134  40.9320693845456134 ylo yhi
-40.9320693845456134  40.9320693845456134 zlo zhi

Masses

1  1.007940
2  1.007940
3  1.007940
4  79.904000
5  79.904000
6  12.011000
7  12.011000
8  12.011000

Atoms

1         0    7   -0.0497090000000000  -3.3622721983442938  -23.1778997569267418  32.3321736335536514 0 0 0
2         0    6    0.1717940000000000  -4.5957801453193268  -22.3038328065263478  32.1533168929280961 0 0 0
3         0    5   -0.2055050000000000  -3.9927090082866257  -20.5448480950693515  31.5178575225993320 0 0 0
4         0    8   -0.1021030000000000  -5.5658029059501413  -22.9130405692873005  31.1544189579267403 0 0 0
5         0    4   -0.1647530000000000  -7.3287381356349623  -22.0827561238376511  31.2866277884960162 0 0 0
6         0    3    0.0285690000000000  -2.6551441163844807  -22.7267738747965105  33.0371111850970891 0 0 0
7         0    3    0.0285690000000000  -2.8345985212342413  -23.3317984318057690  31.3840516088882389 0 0 0
8         0    3    0.0285690000000000  -3.6405251322388783  -24.1612580966300143  32.7259764499669927 0 0 0
9         0    2    0.0524310000000000  -5.0648935023388759  -22.1204121333716657  33.1255454297574374 0 0 0
10        0    1    0.1060690000000000  -5.7434101572180847  -23.9720322797792207  31.3652320984242934 0 0 0
11        0    1    0.1060690000000000  -5.2442109803836150  -22.8057718486370611  30.1142820556968118 0 0 0
12        1    7   -0.0497090000000000  -31.5422971327033146  23.4251473760429150 -14.7789939126001517 0 0 0
13        1    6    0.1717940000000000  -32.2010249890033435  23.0889352237411671 -13.4483686375211740 0 0 0
14        1    5   -0.2055050000000000  -34.1171448054766415  22.8121002523256706 -13.7850849429174200 0 0 0
15        1    8   -0.1021030000000000  -31.5956143096718556  21.8389627143551799 -12.8311798705862135 0 0 0
16        1    4   -0.1647530000000000  -32.0687010696041597  21.6846064266241036 -10.9424884947085559 0 0 0
17        1    3    0.0285690000000000  -31.9941354981158668  24.3146642458038684 -15.2318553343971388 0 0 0
18        1    3    0.0285690000000000  -31.6365407572514279  22.6020667332419514 -15.4964310735964244 0 0 0
19        1    3    0.0285690000000000  -30.4754230391227381  23.6299991816674790 -14.6400177136343501 0 0 0
20        1    2    0.0524310000000000  -32.1420167586522680  23.9515361773005004 -12.7765230923477713 0 0 0
21        1    1    0.1060690000000000  -30.5021034685114572  21.8792504503330534 -12.8389835488505319 0 0 0
22        1    1    0.1060690000000000  -31.9215917952216159  20.9131552352317556 -13.3143277888408473 0 0 0
23        2    7   -0.0497090000000000  -31.8323092873017011 -5.6014489046601579  -3.6912268204716359  0 0 0
24        2    6    0.1717940000000000  -32.3313090825397893 -4.3656079300990180  -4.4269040001150808  0 0 0
25        2    5   -0.2055050000000000  -32.5639972910205131 -2.9353392814926629  -3.0996065906217285  0 0 0
26        2    8   -0.1021030000000000  -31.3483561419632295 -3.9251020421598795  -5.4991135963241708  0 0 0
27        2    4   -0.1647530000000000  -32.1818723874437609 -2.6794680369810959  -6.7514868046619663  0 0 0
28        2    3    0.0285690000000000  -32.5326350427232995 -5.9050584621686584  -2.9051945626840396  0 0 0
29        2    3    0.0285690000000000  -30.8586103245275787 -5.4260040801146818  -3.2198574019336830  0 0 0
30        2    3    0.0285690000000000  -31.7246951612383050 -6.4441933735179138  -4.3823852232862679  0 0 0
31        2    2    0.0524310000000000  -33.3299969257349176 -4.5541495626112845  -4.8343514906753455  0 0 0
32        2    1    0.1060690000000000  -31.0301163739918557 -4.7682926438860775  -6.1197608536629415  0 0 0
33        2    1    0.1060690000000000  -30.4626956048497597 -3.4234204856421022  -5.0981974588966708  0 0 0
34        3    7   -0.0497090000000000   12.9775199501596727 -22.8236869101426443 -30.6559682353347114 0 0 0
35        3    6    0.1717940000000000   13.7380372674395854 -22.2069653612776037 -31.8216408154286619 0 0 0
36        3    5   -0.2055050000000000   15.4417075957183094 -21.5191713500126554 -31.1245199984889318 0 0 0
37        3    8   -0.1021030000000000   13.9986372742828635 -23.2294271030005213 -32.9155032208738021 0 0 0
38        3    4   -0.1647530000000000   14.5148062874915453 -22.3592057335455614 -34.5861547037531949 0 0 0
39        3    3    0.0285690000000000   12.8087367030193597 -22.0901181081640630 -29.8598082855454230 0 0 0
40        3    3    0.0285690000000000   13.5218229754322987 -23.6689797825568000 -30.2197643130404536 0 0 0
41        3    3    0.0285690000000000   11.9979795483872245 -23.1874155132343276 -30.9841466659002265 0 0 0
42        3    2    0.0524310000000000   13.1979063591477281 -21.3308432701022745 -32.1952816806486837 0 0 0
43        3    1    0.1060690000000000   13.0910957302788091 -23.7878100577614013 -33.1645549836446136 0 0 0
44        3    1    0.1060690000000000   14.7960047186431751 -23.9368008268697601 -32.6692507206759828 0 0 0
45        4    7   -0.0497090000000000  -22.6689656945268361 -21.5634372972152164  3.8739275844497816  0 0 0
46        4    6    0.1717940000000000  -22.2096993730325813 -22.7944376018562771  4.6428471632190877  0 0 0
47        4    5   -0.2055050000000000  -21.4386243189526873 -22.1816180826608971  6.3432665587415009  0 0 0
48        4    8   -0.1021030000000000  -23.3659244538248849 -23.7443866655689604  4.9085832687791751  0 0 0
49        4    4   -0.1647530000000000  -22.7207438840924745 -25.5106083168607505  5.4367832027510179  0 0 0
50        4    3    0.0285690000000000  -21.8379665858443133 -20.8705073040431301  3.7013873186235537  0 0 0
51        4    3    0.0285690000000000  -23.4508577198068942 -21.0175294219652748  4.4140101131836262  0 0 0
52        4    3    0.0285690000000000  -23.0714033470882711 -21.8478880478680502  2.8958525955282362  0 0 0
53        4    2    0.0524310000000000  -21.3891098405021012 -23.2822953696617923  4.1065949553977950  0 0 0
54        4    1    0.1060690000000000  -23.9511412240913089 -23.9246124118020589  4.0016709406053526  0 0 0
55        4    1    0.1060690000000000  -24.0359875749052634 -23.4031034971652225  5.7031611020543895  0 0 0
56        5    7   -0.0497090000000000   4.3050374075083990   3.2529341044077680  -23.0680258275049646 0 0 0
57        5    6    0.1717940000000000   4.4899477741654028   4.7545004220110787  -23.2372339030865405 0 0 0
58        5    5   -0.2055050000000000   2.7652038251348623   5.5073370849507564  -23.8029422130983050 0 0 0
59        5    8   -0.1021030000000000   4.9415821029573213   5.4062103324540196  -21.9406322045734079 0 0 0
60        5    4   -0.1647530000000000   5.6474615543388467   7.1990008268919308  -22.2606767365847844 0 0 0
61        5    3    0.0285690000000000   3.9597772685664392   2.7883605900350155  -23.9983206859241278 0 0 0
62        5    3    0.0285690000000000   3.5710861726477336   3.0211049064187572  -22.2878780895051172 0 0 0
63        5    3    0.0285690000000000   5.2517983728883753   2.7767461835482656  -22.7916425498627007 0 0 0
64        5    2    0.0524310000000000   5.1821742251515728   4.9526288819700470  -24.0621620616611906 0 0 0
65        5    1    0.1060690000000000   5.7739575791373596   4.8591118999103848  -21.4875490658865225 0 0 0
66        5    1    0.1060690000000000   4.1400585208372185   5.5101495707354964  -21.2033606789800011 0 0 0
67        6    7   -0.0497090000000000   23.8689242614336976 -31.6220444657905979  14.3676548326602429 0 0 0
68        6    6    0.1717940000000000   22.6626204577301493 -32.3510359869105244  13.7923921813385935 0 0 0
69        6    5   -0.2055050000000000   21.4595644698964634 -32.7826328153647921  15.2850110511796906 0 0 0
70        6    8   -0.1021030000000000   21.9349370629724660 -31.4951287409137031  12.7687833682932563 0 0 0
71        6    4   -0.1647530000000000   20.7175829920929040 -32.5723459567830886  11.6859887454549423 0 0 0
72        6    3    0.0285690000000000   24.3799413682571817 -32.2328831041766506  15.1201302885978013 0 0 0
73        6    3    0.0285690000000000   23.5815703701067214 -30.6780549903425168  14.8444894965454317 0 0 0
74        6    3    0.0285690000000000   24.5935362468879148 -31.3937394616043228  13.5787864828707452 0 0 0
75        6    2    0.0524310000000000   22.9745948228136498 -33.3152347733585827  13.3777459361574511 0 0 0
76        6    1    0.1060690000000000   22.6312690137166435 -31.0570481737276545  12.0472175779270820 0 0 0
77        6    1    0.1060690000000000   21.3358829507598635 -30.6964451543622801  13.2160544489753526 0 0 0
78        7    7   -0.0497090000000000   5.4735387946377543  -5.2246659131844062  -12.9164574942946846 0 0 0
79        7    6    0.1717940000000000   4.1337062908500171  -4.8849582476836657  -13.5544012116349588 0 0 0
80        7    5   -0.2055050000000000   2.8577286562642197  -4.5236551856285931  -12.1042730117207427 0 0 0
81        7    8   -0.1021030000000000   4.2450544808698067  -3.6719474329603599  -14.4632915696230011 0 0 0
82        7    4   -0.1647530000000000   2.6963396957906216  -3.5313158879386188  -15.6450264562714114 0 0 0
83        7    3    0.0285690000000000   5.3864853484689386  -6.0867762953995541  -12.2458838415264069 0 0 0
84        7    3    0.0285690000000000   5.8670282302316021  -4.3859798219380703  -12.3309394418607923 0 0 0
85        7    3    0.0285690000000000   6.2133088559786573  -5.4756493894448841  -13.6840814443430698 0 0 0
86        7    2    0.0524310000000000   3.7404975853450591  -5.7608775153723180  -14.0807957056286508 0 0 0
87        7    1    0.1060690000000000   5.1010209196162126  -3.7570599812475232  -15.1396991898224371 0 0 0
88        7    1    0.1060690000000000   4.3133759452806366  -2.7251991325355633  -13.9194050432744234 0 0 0
89        8    7   -0.0497090000000000   32.6755100275103700 -4.2517894172322865  -12.6186480212582328 0 0 0
90        8    6    0.1717940000000000   32.0098524701263614 -4.1649256624318252  -13.9849859469192044 0 0 0
91        8    5   -0.2055050000000000   33.3706852178480133 -4.5857684695095680  -15.3387053370659334 0 0 0
92        8    8   -0.1021030000000000   30.8469336445358273 -5.1370111753828489  -14.0969899624628194 0 0 0
93        8    4   -0.1647530000000000   29.7021009837474956 -4.6953457661160840  -15.6165563165091115 0 0 0
94        8    3    0.0285690000000000   33.5261692690545630 -3.5649302432147127  -12.5473390649949295 0 0 0
95        8    3    0.0285690000000000   33.0456520459989704 -5.2625139529156968  -12.4125158199486343 0 0 0
96        8    3    0.0285690000000000   31.9671483727709322 -3.9848328454678641  -11.8271576975103070 0 0 0
97        8    2    0.0524310000000000   31.7057171233076964 -3.1321918144755267  -14.1847390520286201 0 0 0
98        8    1    0.1060690000000000   30.1869092576590603 -5.0719770228445071  -13.2265944623988716 0 0 0
99        8    1    0.1060690000000000   31.1599152107754200 -6.1767984337425794  -14.2300227289039167 0 0 0
100       9    7   -0.0497090000000000   31.0150936627997957 -5.5885662590570391  -32.1311606444579212 0 0 0
101       9    6    0.1717940000000000   31.8284039771081488 -4.3164449461375938  -32.3254756478821506 0 0 0
102       9    5   -0.2055050000000000   30.5698509293188536 -2.8577738012071432  -32.7125845984988146 0 0 0
103       9    8   -0.1021030000000000   32.6427824213149691 -3.9852945798041386  -31.0857165892790235 0 0 0
104       9    4   -0.1647530000000000   34.0351799904450090 -2.6752389997972514  -31.4854357983165478 0 0 0
105       9    3    0.0285690000000000   30.4132038416366832 -5.8141058321137953  -33.0184836868532017 0 0 0
106       9    3    0.0285690000000000   30.3321952413730216 -5.5057462469165408  -31.2780192277503062 0 0 0
107       9    3    0.0285690000000000   31.6748517315417466 -6.4442782664110885  -31.9523444569915789 0 0 0
108       9    2    0.0524310000000000   32.4549259787453153 -4.4092277257107151  -33.2186723508424961 0 0 0
109       9    1    0.1060690000000000   33.1859586202997576 -4.8615949584311382  -30.7189643267439187 0 0 0
110       9    1    0.1060690000000000   32.0441472287513776 -3.5698131877470929  -30.2697362957187615 0 0 0
111       10   7   -0.0497090000000000  -4.9352199023663594  -30.6381087828022771  5.0567511834263552  0 0 0
112       10   6    0.1717940000000000  -4.0552816934016569  -31.8473730452789141  4.7722985255009398  0 0 0
113       10   5   -0.2055050000000000  -3.7620392205513316  -32.7846074407297579  6.4743946340977772  0 0 0
114       10   8   -0.1021030000000000  -4.7085425917501631  -32.7835947073317371  3.7689967079545093  0 0 0
115       10   4   -0.1647530000000000  -3.4120669531470331  -34.0462633756285413  3.0344146418038447  0 0 0
116       10   3    0.0285690000000000  -4.4715719040596369  -29.9750251201170315  5.7955557769056405  0 0 0
117       10   3    0.0285690000000000  -5.9165066022925341  -30.9341500811786823  5.4446888685042794  0 0 0
118       10   3    0.0285690000000000  -5.0961714446775934  -30.0552338655354845  4.1435970838632734  0 0 0
119       10   2    0.0524310000000000  -3.0644358756708145  -31.5164815275769499  4.4441610818920543  0 0 0
120       10   1    0.1060690000000000  -5.0843979032305695  -32.2369232914780781  2.8987478316435253  0 0 0
121       10   1    0.1060690000000000  -5.5218507121858176  -33.3788323856772138  4.1944784677413471  0 0 0
122       11   7   -0.0497090000000000   12.4689256435479194  13.6930982370548762  22.0613903307198562 0 0 0
123       11   6    0.1717940000000000   13.4357147465840079  13.5228097826650373  23.2249389095304686 0 0 0
124       11   5   -0.2055050000000000   13.3296771393294282  11.6527018452078721  23.8190625927037694 0 0 0
125       11   8   -0.1021030000000000   14.8601920341617149  13.8580953107818914  22.8146665479087325 0 0 0
126       11   4   -0.1647530000000000   16.0008880284015476  14.1225316300727339  24.3778933839965433 0 0 0
127       11   3    0.0285690000000000   11.4460162257611202  13.4312029941634599  22.3538776674609920 0 0 0
128       11   3    0.0285690000000000   12.7443340280731015  13.0596014788380650  21.2105720396834947 0 0 0
129       11   3    0.0285690000000000   12.4590336926931311  14.7328865330722145  21.7175278197163379 0 0 0
130       11   2    0.0524310000000000   13.0995340968197773  14.1218783059821362  24.0776043116635456 0 0 0
131       11   1    0.1060690000000000   14.9070248121189550  14.8090557835397671  22.2752865066011836 0 0 0
132       11   1    0.1060690000000000   15.3329139625098421  13.0803925086225270  22.2076039066827278 0 0 0
133       12   7   -0.0497090000000000   13.3028351994701950  23.5505536279653462 -32.8706949503041912 0 0 0
134       12   6    0.1717940000000000   13.8140212360376964  22.3206548393418061 -32.1334280865019792 0 0 0
135       12   5   -0.2055050000000000   15.7208436175319708  22.1180502352773978 -32.5629748274329103 0 0 0
136       12   8   -0.1021030000000000   13.6314004054217133  22.4601617625417624 -30.6310756679581750 0 0 0
137       12   4   -0.1647530000000000   13.8141981916516947  20.7343938697302974 -29.7349159674636212 0 0 0
138       12   3    0.0285690000000000   13.4541787742585086  23.4565112391805179 -33.9517744057014141 0 0 0
139       12   3    0.0285690000000000   13.8148128439456421  24.4617180044831777 -32.5409707385419082 0 0 0
140       12   3    0.0285690000000000   12.2299508947897557  23.6857517512163973 -32.6970870186312368 0 0 0
141       12   2    0.0524310000000000   13.3267363570700077  21.4226286057497788 -32.5271807289184594 0 0 0
142       12   1    0.1060690000000000   12.6199313609194697  22.7947100981644972 -30.3811601983573780 0 0 0
143       12   1    0.1060690000000000   14.3553455289039249  23.1352899830166479 -30.1653310335234544 0 0 0
144       13   7   -0.0497090000000000  -14.6402228192640678  21.8643546833943283 -4.2571644308323950  0 0 0
145       13   6    0.1717940000000000  -13.2755801309421493  22.3734716487708063 -4.6999678538943286  0 0 0
146       13   5   -0.2055050000000000  -13.0562803719025080  21.9163716483692212 -6.5985193617860691  0 0 0
147       13   8   -0.1021030000000000  -13.1572509267515230  23.8767322774622670 -4.5100178063508389  0 0 0
148       13   4   -0.1647530000000000  -11.2936363535902196  24.4545199022182764 -4.5988673571635417  0 0 0
149       13   3    0.0285690000000000  -14.7306083825295921  20.7837563336742797 -4.4140697970105274  0 0 0
150       13   3    0.0285690000000000  -15.4521668977531377  22.3500422773856684 -4.8102594134072278  0 0 0
151       13   3    0.0285690000000000  -14.7964483982092503  22.0582737281295174 -3.1906336294617867  0 0 0
152       13   2    0.0524310000000000  -12.4865904749542977  21.8270965003603621 -4.1727977363386790  0 0 0
153       13   1    0.1060690000000000  -13.4929262438860853  24.1809775804412510 -3.5139220098122492  0 0 0
154       13   1    0.1060690000000000  -13.7025434102177481  24.4548274364616240 -5.2618654072758790  0 0 0
155       14   7   -0.0497090000000000  -13.1176792311236436 -13.3790578775739242  21.5166901157683697 0 0 0
156       14   6    0.1717940000000000  -13.2359316251062111 -13.4420913936947848  23.0331226958268509 0 0 0
157       14   5   -0.2055050000000000  -13.3142515329486706 -11.5960214598336933  23.7020191109238603 0 0 0
158       14   8   -0.1021030000000000  -14.4802509439142035 -14.2031274575767057  23.4601693925853390 0 0 0
159       14   4   -0.1647530000000000  -14.3844953656633621 -14.7117649715307905  25.3434937958500690 0 0 0
160       14   3    0.0285690000000000  -12.2310565534489868 -12.8125112409741462  21.2110648985651551 0 0 0
161       14   3    0.0285690000000000  -13.9920765530858784 -12.8994201626187301  21.0623370910861851 0 0 0
162       14   3    0.0285690000000000  -13.0289066967086473 -14.3858689881584567  21.0948491475859541 0 0 0
163       14   2    0.0524310000000000  -12.3229127183651972 -13.8708619646885900  23.4591404023639036 0 0 0
164       14   1    0.1060690000000000  -14.5720823956330978 -15.1519295500974955  22.9227761171311499 0 0 0
165       14   1    0.1060690000000000  -15.4046107940026502 -13.6315993432532565  23.3347612489807936 0 0 0
166       15   7   -0.0497090000000000   12.9616206828487979 -12.5497886769927423 -14.0692333521386868 0 0 0
167       15   6    0.1717940000000000   13.9602569200107727 -13.6987581888764289 -14.0801580621450455 0 0 0
168       15   5   -0.2055050000000000   15.7643681547090342 -12.9201111295472053 -14.1007014949995462 0 0 0
169       15   8   -0.1021030000000000   13.7923162535995854 -14.5897644618789037 -12.8604125587978881 0 0 0
170       15   4   -0.1647530000000000   14.7016315941908946 -16.3007877738722549 -13.1060482575076112 0 0 0
171       15   3    0.0285690000000000   13.0980137953441247 -11.8972706768491818 -14.9387727795095788 0 0 0
172       15   3    0.0285690000000000   13.0655359443601427 -11.9320360356064548 -13.1699875693933297 0 0 0
173       15   3    0.0285690000000000   11.9352838124424263 -12.9308986644318100 -14.0990122644534619 0 0 0
174       15   2    0.0524310000000000   13.8710540935262507 -14.2592068750827785 -15.0165762052716882 0 0 0
175       15   1    0.1060690000000000   12.7427838866911838 -14.8557246456045622 -12.7016770861262955 0 0 0
176       15   1    0.1060690000000000   14.1913892722773678 -14.1499072812582494 -11.9416747796574825 0 0 0
177       16   7   -0.0497090000000000  -23.2750662918314859  3.6585711812252351   21.8645536295037495 0 0 0
178       16   6    0.1717940000000000  -23.1582813938254333  4.5628380507282165   23.0836464639577059 0 0 0
179       16   5   -0.2055050000000000  -23.1714460801480442  3.4163174724732563   24.6795311331841241 0 0 0
180       16   8   -0.1021030000000000  -21.8797841516767519  5.3836399254424236   23.0435912123186988 0 0 0
181       16   4   -0.1647530000000000  -21.9562216416840528  6.8706771963651239   24.3075807392959433 0 0 0
182       16   3    0.0285690000000000  -24.1872147399041815  3.0529519987138234   21.9056906183677356 0 0 0
183       16   3    0.0285690000000000  -22.4236296414922478  2.9730053700110175   21.7863562238351065 0 0 0
184       16   3    0.0285690000000000  -23.3137257366208139  4.2533990403632860   20.9457586344031945 0 0 0
185       16   2    0.0524310000000000  -24.0506771830974095  5.1919512076248084   23.1660188137436158 0 0 0
186       16   1    0.1060690000000000  -21.7405296600216111  5.8584400881161276   22.0675671599107162 0 0 0
187       16   1    0.1060690000000000  -20.9838474963656409  4.8062932722702003   23.2901293881470473 0 0 0
188       17   7   -0.0497090000000000  -13.5341294087502177  33.1893172995018233  13.6233449731297505 0 0 0
189       17   6    0.1717940000000000  -13.4730847742200819  31.7632592684672552  14.1526432514349843 0 0 0
190       17   5   -0.2055050000000000  -14.7688426086359001  31.6172585833599165  15.6227541510946626 0 0 0
191       17   8   -0.1021030000000000  -13.8045672181021359  30.7545326568208992  13.0652310245152918 0 0 0
192       17   4   -0.1647530000000000  -13.2558035552125855  28.9530132487053180  13.5830903913079943 0 0 0
193       17   3    0.0285690000000000  -13.3149223559470347  33.9156548627264200  14.4138281479350798 0 0 0
194       17   3    0.0285690000000000  -14.5235930581396211  33.4280150313418503  13.2170879551578189 0 0 0
195       17   3    0.0285690000000000  -12.7983416969615806  33.3361156922861710  12.8254943274843534 0 0 0
196       17   2    0.0524310000000000  -12.4933038753464825  31.5766404373354774  14.6044635862689240 0 0 0
197       17   1    0.1060690000000000  -13.2460347314758415  30.9594552535521039  12.1468094712337962 0 0 0
198       17   1    0.1060690000000000  -14.8716311272090849  30.7033312892374823  12.8295071304379533 0 0 0
199       18   7   -0.0497090000000000  -21.5943024775797596  14.1201357963140524  22.1882854747845037 0 0 0
200       18   6    0.1717940000000000  -22.5414332639892159  13.5501022376029532  23.2349609918759086 0 0 0
201       18   5   -0.2055050000000000  -22.7397837202893065  14.8944752598064909  24.6544147235828817 0 0 0
202       18   8   -0.1021030000000000  -23.8988765445334721  13.2240797266870604  22.6341844931833087 0 0 0
203       18   4   -0.1647530000000000  -24.9311185581168466  12.0590713106148755  23.8140251074928528 0 0 0
204       18   3    0.0285690000000000  -20.6232097681712538  14.3734829547657625  22.6279169163786023 0 0 0
205       18   3    0.0285690000000000  -21.9989367231273967  15.0290917755990794  21.7287968020709030 0 0 0
206       18   3    0.0285690000000000  -21.4166127773053496  13.3904481548014456  21.3911146687835796 0 0 0
207       18   2    0.0524310000000000  -22.0827912654479555  12.6799112393720481  23.7159536702733895 0 0 0
208       18   1    0.1060690000000000  -23.7979908773502693  12.6554315295884194  21.7047162210548450 0 0 0
209       18   1    0.1060690000000000  -24.5153680407567727  14.1080244248483968  22.4460549471868767 0 0 0
210       19   7   -0.0497090000000000   30.9333197064746059  13.5263491207997362  23.7475352225108907 0 0 0
211       19   6    0.1717940000000000   32.2806054618806115  13.5694562269817958  23.0400838154328689 0 0 0
212       19   5   -0.2055050000000000   33.0888721054154473  11.7844360499748220  23.1882007402824790 0 0 0
213       19   8   -0.1021030000000000   32.1256108398293136  13.9503072317737811  21.5769349787849691 0 0 0
214       19   4   -0.1647530000000000   33.8368055116705193  14.4853545584715171  20.8021258328942622 0 0 0
215       19   3    0.0285690000000000   31.0454217512845290  13.2316849925343956  24.7968625405880836 0 0 0
216       19   3    0.0285690000000000   30.2497680877547275  12.8132928925347382  23.2728061574875333 0 0 0
217       19   3    0.0285690000000000   30.4568627387134079  14.5123338284358390  23.7295938769772725 0 0 0
218       19   2    0.0524310000000000   32.9583130811280469  14.2444074268724989  23.5730866986146346 0 0 0
219       19   1    0.1060690000000000   31.4830524122962281  14.8281453386623170  21.4587449449387471 0 0 0
220       19   1    0.1060690000000000   31.7379619268872695  13.1384867429591399  20.9544492081559390 0 0 0
221       20   7   -0.0497090000000000   4.1214008943213125   31.7143923305753823  3.2646406777223920  0 0 0
222       20   6    0.1717940000000000   4.0956643486800548   32.0567206822052597  4.7477703256590846  0 0 0
223       20   5   -0.2055050000000000   2.7318482057754623   30.9251837181616089  5.5969818718333535  0 0 0
224       20   8   -0.1021030000000000   5.4491143019040864   31.8144873363469252  5.3953593690902819  0 0 0
225       20   4   -0.1647530000000000   5.5680853435925890   32.6983403482569486  7.1330134784794721  0 0 0
226       20   3    0.0285690000000000   3.1393991996529467   31.8702718457134111  2.8043626249881717  0 0 0
227       20   3    0.0285690000000000   4.4062046827103982   30.6697235580419338  3.0954850005705286  0 0 0
228       20   3    0.0285690000000000   4.8398215513516529   32.3491026650343159  2.7350053988906957  0 0 0
229       20   2    0.0524310000000000   3.7504383106450119   33.0867266715066037  4.8850490842709027  0 0 0
230       20   1    0.1060690000000000   6.2585514799146935   32.2556629708641935  4.8057616476203622  0 0 0
231       20   1    0.1060690000000000   5.6675564847852806   30.7559814966281273  5.5646553242082692  0 0 0
232       21   7   -0.0497090000000000  -14.5921811772139538  3.7919769635339167   23.3509720061068080 0 0 0
233       21   6    0.1717940000000000  -13.2315655966866981  4.2034251410992347   22.8060314020914277 0 0 0
234       21   5   -0.2055050000000000  -12.7555615333238457  2.9414831881076693   21.3768871610360094 0 0 0
235       21   8   -0.1021030000000000  -13.2598454522574478  5.6213339790792034   22.2595791023916441 0 0 0
236       21   4   -0.1647530000000000  -11.4522751804213510  6.3225088928263737   22.0232837109722759 0 0 0
237       21   3    0.0285690000000000  -14.5747490892401519  2.7625020778268028   23.7256174643833191 0 0 0
238       21   3    0.0285690000000000  -15.3711282933234017  3.8533500048696525   22.5825096287570801 0 0 0
239       21   3    0.0285690000000000  -14.8871219712201821  4.4417336889965684   24.1818300586326522 0 0 0
240       21   2    0.0524310000000000  -12.4673388346687908  4.0739268550840588   23.5794177628677026 0 0 0
241       21   1    0.1060690000000000  -13.7332310937190964  6.3115604477007814   22.9645212385078921 0 0 0
242       21   1    0.1060690000000000  -13.7592561879256543  5.7042835642092289   21.2897744809208511 0 0 0
243       22   7   -0.0497090000000000  -5.2580352751110642   23.5326703288317667 -5.3914658176763322  0 0 0
244       22   6    0.1717940000000000  -4.7161663055595398   22.2649062343811792 -4.7459607105245452  0 0 0
245       22   5   -0.2055050000000000  -3.6466550314372750   21.3189714290618291 -6.0961027776459265  0 0 0
246       22   8   -0.1021030000000000  -3.8577990875868160   22.5845937427763488 -3.5331618999274035  0 0 0
247       22   4   -0.1647530000000000  -3.5760982737549583   20.9975406858653528 -2.4301209644513322  0 0 0
248       22   3    0.0285690000000000  -5.8595931516074504   23.3009010675785788 -6.2774075585167388  0 0 0
249       22   3    0.0285690000000000  -4.4505143385471468   24.2044902659875127 -5.7039199652740225  0 0 0
250       22   3    0.0285690000000000  -5.8979972215030241   24.0789249018608800 -4.6903569628506308  0 0 0
251       22   2    0.0524310000000000  -5.5432390572714461   21.5906223720076476 -4.5005411733675738  0 0 0
252       22   1    0.1060690000000000  -4.3553925690469031   23.2973941579721142 -2.8685069111511314  0 0 0
253       22   1    0.1060690000000000  -2.8665944919079362   22.9694088303444204 -3.7905400619479184  0 0 0
254       23   7   -0.0497090000000000  -21.6557744375584704 -14.4045377205814251 -4.8476988202280511  0 0 0
255       23   6    0.1717940000000000  -23.0704425504719381 -13.8476125755162958 -4.9256291468026339  0 0 0
256       23   5   -0.2055050000000000  -24.3101312870567163 -15.3048165790626136 -4.4770102091357060  0 0 0
257       23   8   -0.1021030000000000  -23.2622253132305019 -12.6869797070431289 -3.9633266707440775  0 0 0
258       23   4   -0.1647530000000000  -24.8704813942432672 -11.6678380615938568 -4.3988203488800677  0 0 0
259       23   3    0.0285690000000000  -21.5258253937977173 -15.2540997076973674 -5.5272864256721874  0 0 0
260       23   3    0.0285690000000000  -21.4111133415775683 -14.7472496044245869 -3.8358938992644735  0 0 0
261       23   3    0.0285690000000000  -20.9244027715223524 -13.6397769012450460 -5.1300733109801584  0 0 0
262       23   2    0.0524310000000000  -23.3038532626561654 -13.5704367563081227 -5.9588918518220026  0 0 0
263       23   1    0.1060690000000000  -22.4463527243178973 -11.9622330345019634 -4.0442225179895335  0 0 0
264       23   1    0.1060690000000000  -23.3598215402350320 -12.9986737620262005 -2.9192316018146700  0 0 0
265       24   7   -0.0497090000000000   3.7640977423619493  -13.2919284661914006 -21.6886868557128416 0 0 0
266       24   6    0.1717940000000000   4.1480003862152808  -13.7821316624242751 -23.0778751831708142 0 0 0
267       24   5   -0.2055050000000000   3.4572745322372196  -12.4828561898994277 -24.3803004838854456 0 0 0
268       24   8   -0.1021030000000000   5.6553938205769274  -13.9118438702487168 -23.2221496302662551 0 0 0
269       24   4   -0.1647530000000000   6.1247185506036086  -14.9867666645409034 -24.7839010008103813 0 0 0
270       24   3    0.0285690000000000   2.6783649300834478  -13.1795954271542648 -21.5935701585324082 0 0 0
271       24   3    0.0285690000000000   4.2202381736906620  -12.3216285461124340 -21.4617206527177196 0 0 0