
                                 *****************
                                 * O   R   C   A *
                                 *****************

           --- An Ab Initio, DFT and Semiempirical electronic structure package ---

                  #######################################################
                  #                        -***-                        #
                  #          Department of theory and spectroscopy      #
                  #               Directorship: Frank Neese             #
                  #        Max Planck Institute fuer Kohlenforschung    #
                  #                Kaiser Wilhelm Platz 1               #
                  #                 D-45470 Muelheim/Ruhr               #
                  #                      Germany                        #
                  #                                                     #
                  #                  All rights reserved                #
                  #                        -***-                        #
                  #######################################################


                         Program Version 4.1.2  - RELEASE  -


 With contributions from (in alphabetic order):
   Daniel Aravena         : Magnetic Properties
   Michael Atanasov       : Ab Initio Ligand Field Theory
   Alexander A. Auer      : GIAO ZORA
   Ute Becker             : Parallelization
   Giovanni Bistoni       : ED, Open-shell LED
   Martin Brehm           : Molecular dynamics
   Dmytro Bykov           : SCF Hessian
   Vijay G. Chilkuri      : MRCI spin determinant printing
   Dipayan Datta          : RHF DLPNO-CCSD density
   Achintya Kumar Dutta   : EOM-CC, STEOM-CC
   Dmitry Ganyushin       : Spin-Orbit,Spin-Spin,Magnetic field MRCI
   Miquel Garcia          : C-PCM Hessian
   Yang Guo               : DLPNO-NEVPT2, CIM, IAO-localization
   Andreas Hansen         : Spin unrestricted coupled pair/coupled cluster methods
   Benjamin Helmich-Paris : CASSCF linear response (MC-RPA)
   Lee Huntington         : MR-EOM, pCC
   Robert Izsak           : Overlap fitted RIJCOSX, COSX-SCS-MP3, EOM
   Christian Kollmar      : KDIIS, OOCD, Brueckner-CCSD(T), CCSD density
   Simone Kossmann        : Meta GGA functionals, TD-DFT gradient, OOMP2, MP2 Hessian
   Martin Krupicka        : AUTO-CI
   Lucas Lang             : DCDCAS
   Dagmar Lenk            : GEPOL surface, SMD
   Dimitrios Liakos       : Extrapolation schemes; parallel MDCI
   Dimitrios Manganas     : ROCIS; embedding schemes
   Dimitrios Pantazis     : SARC Basis sets
   Taras Petrenko         : DFT Hessian,TD-DFT gradient, ASA, ECA, R-Raman, ABS, FL, XAS/XES, NRVS
   Peter Pinski           : DLPNO-MP2, DLPNO-MP2 Gradient
   Christoph Reimann      : Effective Core Potentials
   Marius Retegan         : Local ZFS, SOC
   Christoph Riplinger    : Optimizer, TS searches, QM/MM, DLPNO-CCSD(T), (RO)-DLPNO pert. Triples
   Tobias Risthaus        : Range-separated hybrids, TD-DFT gradient, RPA, STAB
   Michael Roemelt        : Restricted open shell CIS
   Masaaki Saitow         : Open-shell DLPNO
   Barbara Sandhoefer     : DKH picture change effects
   Avijit Sen             : IP-ROCIS
   Kantharuban Sivalingam : CASSCF convergence, NEVPT2, FIC-MRCI
   Bernardo de Souza      : ESD, SOC TD-DFT
   Georgi Stoychev        : AutoAux, RI-MP2 NMR
   Willem Van den Heuvel  : Paramagnetic NMR
   Boris Wezisla          : Elementary symmetry handling
   Frank Wennmohs         : Technical directorship


 We gratefully acknowledge several colleagues who have allowed us to
 interface, adapt or use parts of their codes:
   Stefan Grimme, W. Hujo, H. Kruse,             : VdW corrections, initial TS optimization,
                  C. Bannwarth                     DFT functionals, gCP, sTDA/sTD-DF
   Ed Valeev                                     : LibInt (2-el integral package), F12 methods
   Garnet Chan, S. Sharma, J. Yang, R. Olivares  : DMRG
   Ulf Ekstrom                                   : XCFun DFT Library
   Mihaly Kallay                                 : mrcc  (arbitrary order and MRCC methods)
   Andreas Klamt, Michael Diedenhofen            : otool_cosmo (COSMO solvation model)
   Jiri Pittner, Ondrej Demel                    : Mk-CCSD
   Frank Weinhold                                : gennbo (NPA and NBO analysis)
   Christopher J. Cramer and Donald G. Truhlar   : smd solvation model
   Lars Goerigk                                  : TD-DFT with DH, B97 family of functionals
   V. Asgeirsson, H. Jonsson                     : NEB implementation
   FAccTs GmbH                                   : IRC, NEB, NEB-TS, Multilevel


 Your calculation uses the libint2 library for the computation of 2-el integrals
 For citations please refer to: http://libint.valeyev.net

 This ORCA versions uses:
   CBLAS   interface :  Fast vector & matrix operations
   LAPACKE interface :  Fast linear algebra routines
   SCALAPACK package :  Parallel linear algebra routines


Your calculation utilizes the atom-pairwise dispersion correction
with the zero-damping scheme (D30)
Cite in your paper:
S.Grimme, J.Antony, S.Ehrlich and H.Krieg, J.Chem.Phys., 132, (2010), 154104 
   

XCFun DFT library Copyright 2009-2010 Ulf Ekstrom and contributors.
See http://admol.org/xcfun for more information. This is free soft-
ware; see the source code for copying conditions. There is ABSOLUTELY
NO WARRANTY; not even for MERCHANTABILITY or FITNESS FOR A PARTICULAR
PURPOSE. For details see the documentation. Scientific users of this 
library should cite U. Ekstrom, L. Visscher, R. Bast, A. J. Thorvald-
sen and K. Ruud; J.Chem.Theor.Comp. 2010, DOI: 10.1021/ct100117s
XCFun Version 0.99 
----- Orbital basis set information -----
Your calculation utilizes the basis: def2-TZVP
   F. Weigend and R. Ahlrichs, Phys. Chem. Chem. Phys. 7, 3297 (2005).

================================================================================
                                        WARNINGS
                       Please study these warnings very carefully!
================================================================================


INFO   : the flag for use of LIBINT has been found!

================================================================================
                                       INPUT FILE
================================================================================
NAME = 136.in
|  1> #Run DFT-D3 single point of the dimer
|  2> ! wB97X-D3 def2-TZVP TIGHTSCF  CHELPG PAL8
|  3> 
|  4> %base "136_charges"
|  5> 
|  6> %scf
|  7> MaxIter 1000
|  8> end
|  9> %output
| 10>   Print[ P_Mayer ] 1
| 11>   Print[ P_NatPop ] 1
| 12>   Print[ P_Hirshfeld ] 1
| 13>   Print[ P_Mulliken ] 1
| 14>   Print [ P_Loewdin ] 1
| 15> end
| 16> 
| 17> * xyz 0 1
| 18>   C                      11.570943            1.338819             -9.715413           
| 19>   O                      11.571002            2.557728             -10.509987          
| 20>   H                      12.360266            2.550844             -11.080997          
| 21>   H                      10.635606            1.300332             -9.064699           
| 22>   H                      11.598324            0.446032             -10.312189          
| 23>   H                      12.452207            1.194146             -9.113946           
| 24> *
| 25> 
| 26>                          ****END OF INPUT****
================================================================================

                       ****************************
                       * Single Point Calculation *
                       ****************************

---------------------------------
CARTESIAN COORDINATES (ANGSTROEM)
---------------------------------
  C     11.570943    1.338819   -9.715413
  O     11.571002    2.557728  -10.509987
  H     12.360266    2.550844  -11.080997
  H     10.635606    1.300332   -9.064699
  H     11.598324    0.446032  -10.312189
  H     12.452207    1.194146   -9.113946

----------------------------
CARTESIAN COORDINATES (A.U.)
----------------------------
  NO LB      ZA    FRAG     MASS         X           Y           Z
   0 C     6.0000    0    12.011   21.865913    2.530001  -18.359470
   1 O     8.0000    0    15.999   21.866025    4.833405  -19.860997
   2 H     1.0000    0     1.008   23.357518    4.820397  -20.940050
   3 H     1.0000    0     1.008   20.098383    2.457271  -17.129799
   4 H     1.0000    0     1.008   21.917656    0.842878  -19.487213
   5 H     1.0000    0     1.008   23.531261    2.256609  -17.222862

--------------------------------
INTERNAL COORDINATES (ANGSTROEM)
--------------------------------
 C      0   0   0     0.000000000000     0.00000000     0.00000000
 O      1   0   0     1.455021304050     0.00000000     0.00000000
 H      2   1   0     0.974185542518   108.31248863     0.00000000
 H      1   2   3     1.140072481263   109.87708147   182.15452760
 H      1   2   3     1.074225274654   113.13231547   303.00769273
 H      1   2   3     1.076716799680   114.68194829    57.15678034

---------------------------
INTERNAL COORDINATES (A.U.)
---------------------------
 C      0   0   0     0.000000000000     0.00000000     0.00000000
 O      1   0   0     2.749591783675     0.00000000     0.00000000
 H      2   1   0     1.840943878985   108.31248863     0.00000000
 H      1   2   3     2.154424762408   109.87708147   182.15452760
 H      1   2   3     2.029991575233   113.13231547   303.00769273
 H      1   2   3     2.034699875188   114.68194829    57.15678034

---------------------
BASIS SET INFORMATION
---------------------
There are 3 groups of distinct atoms

 Group   1 Type C   : 11s6p2d1f contracted to 5s3p2d1f pattern {62111/411/11/1}
 Group   2 Type O   : 11s6p2d1f contracted to 5s3p2d1f pattern {62111/411/11/1}
 Group   3 Type H   : 5s1p contracted to 3s1p pattern {311/1}

Atom   0C    basis set group =>   1
Atom   1O    basis set group =>   2
Atom   2H    basis set group =>   3
Atom   3H    basis set group =>   3
Atom   4H    basis set group =>   3
Atom   5H    basis set group =>   3


           ************************************************************
           *        Program running with 8 parallel MPI-processes     *
           *              working on a common directory               *
           ************************************************************
------------------------------------------------------------------------------
                           ORCA GTO INTEGRAL CALCULATION
------------------------------------------------------------------------------

                         BASIS SET STATISTICS AND STARTUP INFO

 # of primitive gaussian shells          ...   64
 # of primitive gaussian functions       ...  124
 # of contracted shells                  ...   38
 # of contracted basis functions         ...   86
 Highest angular momentum                ...    3
 Maximum contraction depth               ...    6
 Integral package used                   ... LIBINT
 Integral threshhold            Thresh   ...  2.500e-11
 Primitive cut-off              TCut     ...  2.500e-12


------------------------------ INTEGRAL EVALUATION ----------------------------


 * One electron integrals 
 Pre-screening matrix                    ... done
 Shell pair data                         ... done (   0.000 sec)



           ************************************************************
           *        Program running with 8 parallel MPI-processes     *
           *              working on a common directory               *
           ************************************************************
-------------------------------------------------------------------------------
                                 ORCA SCF
-------------------------------------------------------------------------------

------------
SCF SETTINGS
------------
Hamiltonian:
 Density Functional     Method          .... DFT(GTOs)
 Exchange Functional    Exchange        .... WB97X-D3
 Correlation Functional Correlation     .... WB97X-D3
 Gradients option       PostSCFGGA      .... off
 Hybrid DFT is turned on
   Fraction HF Exchange ScalHFX         ....  0.195728
   Scaling of DF-GGA-X  ScalDFX         ....  0.000000
   Scaling of DF-GGA-C  ScalDFC         ....  1.000000
   Scaling of DF-LDA-C  ScalLDAC        ....  1.000000
   Perturbative correction              ....  0.000000
   Density functional embedding theory  .... OFF
 Long-range corrected/Screened/Range-Separated Hybrid DFT is turned on
   Amount of maximum screened exact exchange              ....  0.804272
   Range separation parameter mu (erf(mu*r12)/r12)        ....  0.250000


General Settings:
 Integral files         IntName         .... 136_charges
 Hartree-Fock type      HFTyp           .... RHF
 Total Charge           Charge          ....    0
 Multiplicity           Mult            ....    1
 Number of Electrons    NEL             ....   18
 Basis Dimension        Dim             ....   86
 Nuclear Repulsion      ENuc            ....     39.5789052549 Eh

Convergence Acceleration:
 DIIS                   CNVDIIS         .... on
   Start iteration      DIISMaxIt       ....    12
   Startup error        DIISStart       ....  0.200000
   # of expansion vecs  DIISMaxEq       ....     5
   Bias factor          DIISBfac        ....   1.050
   Max. coefficient     DIISMaxC        ....  10.000
 Newton-Raphson         CNVNR           .... off
 SOSCF                  CNVSOSCF        .... on
   Start iteration      SOSCFMaxIt      ....   150
   Startup grad/error   SOSCFStart      ....  0.003300
 Level Shifting         CNVShift        .... on
   Level shift para.    LevelShift      ....    0.2500
   Turn off err/grad.   ShiftErr        ....    0.0010
 Zerner damping         CNVZerner       .... off
 Static damping         CNVDamp         .... on
   Fraction old density DampFac         ....    0.7000
   Max. Damping (<1)    DampMax         ....    0.9800
   Min. Damping (>=0)   DampMin         ....    0.0000
   Turn off err/grad.   DampErr         ....    0.1000
 Fernandez-Rico         CNVRico         .... off

SCF Procedure:
 Maximum # iterations   MaxIter         ....  1000
 SCF integral mode      SCFMode         .... Direct
   Integral package                     .... LIBINT
 Reset frequency        DirectResetFreq ....    20
 Integral Threshold     Thresh          ....  2.500e-11 Eh
 Primitive CutOff       TCut            ....  2.500e-12 Eh

Convergence Tolerance:
 Convergence Check Mode ConvCheckMode   .... Total+1el-Energy
 Convergence forced     ConvForced      .... 0
 Energy Change          TolE            ....  1.000e-08 Eh
 1-El. energy change                    ....  1.000e-05 Eh
 Orbital Gradient       TolG            ....  1.000e-05
 Orbital Rotation angle TolX            ....  1.000e-05
 DIIS Error             TolErr          ....  5.000e-07


Diagonalization of the overlap matrix:
Smallest eigenvalue                        ... 1.657e-03
Time for diagonalization                   ...    0.002 sec
Threshold for overlap eigenvalues          ... 1.000e-08
Number of eigenvalues below threshold      ... 0
Time for construction of square roots      ...    0.048 sec
Total time needed                          ...    0.050 sec

-------------------
DFT GRID GENERATION
-------------------

General Integration Accuracy     IntAcc      ...  4.340
Radial Grid Type                 RadialGrid  ... Gauss-Chebyshev
Angular Grid (max. acc.)         AngularGrid ... Lebedev-110
Angular grid pruning method      GridPruning ... 3 (G Style)
Weight generation scheme         WeightScheme... Becke
Basis function cutoff            BFCut       ...    1.0000e-11
Integration weight cutoff        WCut        ...    1.0000e-14
Grids for H and He will be reduced by one unit

# of grid points (after initial pruning)     ...   6548 (   0.0 sec)
# of grid points (after weights+screening)   ...   6376 (   3.3 sec)
nearest neighbour list constructed           ...    0.0 sec
Grid point re-assignment to atoms done       ...    0.0 sec
Grid point division into batches done        ...    0.0 sec
Reduced shell lists constructed in    0.0 sec

Total number of grid points                  ...     6376
Total number of batches                      ...      103
Average number of points per batch           ...       61
Average number of grid points per atom       ...     1063
Average number of shells per batch           ...    31.86 (83.83%)
Average number of basis functions per batch  ...    73.43 (85.38%)
Average number of large shells per batch     ...    30.29 (95.07%)
Average number of large basis fcns per batch ...    69.14 (94.16%)
Maximum spatial batch extension              ...  16.34, 14.13, 18.30 au
Average spatial batch extension              ...   0.43,  0.41,  0.45 au

Time for grid setup =    5.890 sec

------------------------------
INITIAL GUESS: MODEL POTENTIAL
------------------------------
Loading Hartree-Fock densities                     ... done
Calculating cut-offs                               ... done
Setting up the integral package                    ... done
Initializing the effective Hamiltonian             ... done
Starting the Coulomb interaction                   ... done (   0.0 sec)
Reading the grid                                   ... done
Mapping shells                                     ... done
Starting the XC term evaluation                    ... done (   0.1 sec)
  promolecular density results
     # of electrons  =     17.996926385
     EX              =    -14.411392021
     EC              =     -0.572396426
     EX+EC           =    -14.983788448
Transforming the Hamiltonian                       ... done (   0.0 sec)
Diagonalizing the Hamiltonian                      ... done (   0.1 sec)
Back transforming the eigenvectors                 ... done (   0.0 sec)
Now organizing SCF variables                       ... done
                      ------------------
                      INITIAL GUESS DONE (   6.6 sec)
                      ------------------
--------------
SCF ITERATIONS
--------------
ITER       Energy         Delta-E        Max-DP      RMS-DP      [F,P]     Damp
               ***  Starting incremental Fock matrix formation  ***
  0   -115.6489231705   0.000000000000 0.03590184  0.00143110  0.2486636 0.7000
  1   -115.6840238244  -0.035100653949 0.02145510  0.00100996  0.1240091 0.7000
                               ***Turning on DIIS***
  2   -115.7001567602  -0.016132935781 0.03069811  0.00182625  0.0479632 0.0000
  3   -115.7265114639  -0.026354703725 0.01690634  0.00066824  0.0593863 0.0000
  4   -115.7307649502  -0.004253486257 0.00395987  0.00012938  0.0059991 0.0000
                      *** Initiating the SOSCF procedure ***
                           *** Shutting down DIIS ***
                      *** Re-Reading the Fockian *** 
                      *** Removing any level shift *** 
ITER      Energy       Delta-E        Grad      Rot      Max-DP    RMS-DP
  5   -115.73085521  -0.0000902608  0.000487  0.000487  0.000649  0.000042
               *** Restarting incremental Fock matrix formation ***
  6   -115.73086312  -0.0000079073  0.000160  0.000203  0.000391  0.000025
  7   -115.73086385  -0.0000007308  0.000052  0.000105  0.000176  0.000011
  8   -115.73086390  -0.0000000541  0.000035  0.000023  0.000041  0.000002
  9   -115.73086391  -0.0000000109  0.000013  0.000011  0.000020  0.000001
                  ***Gradient check signals convergence***
              ***Rediagonalizing the Fockian in SOSCF/NRSCF***

               *****************************************************
               *                     SUCCESS                       *
               *           SCF CONVERGED AFTER  10 CYCLES          *
               *****************************************************

Setting up the final grid:

General Integration Accuracy     IntAcc      ...  4.670
Radial Grid Type                 RadialGrid  ... Gauss-Chebyshev
Angular Grid (max. acc.)         AngularGrid ... Lebedev-302
Angular grid pruning method      GridPruning ... 3 (G Style)
Weight generation scheme         WeightScheme... Becke
Basis function cutoff            BFCut       ...    1.0000e-11
Integration weight cutoff        WCut        ...    1.0000e-14
Grids for H and He will be reduced by one unit

# of grid points (after initial pruning)     ...  26000 (   0.0 sec)
# of grid points (after weights+screening)   ...  25216 (   0.0 sec)
nearest neighbour list constructed           ...    0.0 sec
Grid point re-assignment to atoms done       ...    0.0 sec
Grid point division into batches done        ...    0.1 sec
Reduced shell lists constructed in    0.1 sec

Total number of grid points                  ...    25216
Total number of batches                      ...      397
Average number of points per batch           ...       63
Average number of grid points per atom       ...     4203
Average number of shells per batch           ...    31.31 (82.40%)
Average number of basis functions per batch  ...    71.86 (83.56%)
Average number of large shells per batch     ...    29.75 (94.99%)
Average number of large basis fcns per batch ...    68.69 (95.58%)
Maximum spatial batch extension              ...  14.73, 13.75, 17.26 au
Average spatial batch extension              ...   0.31,  0.30,  0.33 au

Final grid set up in    0.1 sec
Final integration                            ... done (   0.1 sec)
Change in XC energy                          ...    -0.000386506
Integrated number of electrons               ...    18.000018056
Previous integrated no of electrons          ...    18.000305833

----------------
TOTAL SCF ENERGY
----------------

Total Energy       :         -115.73125042 Eh           -3149.20743 eV

Components:
Nuclear Repulsion  :           39.57890525 Eh            1076.99677 eV
Electronic Energy  :         -155.31015568 Eh           -4226.20419 eV
One Electron Energy:         -235.62397697 Eh           -6411.65438 eV
Two Electron Energy:           80.31382129 Eh            2185.45018 eV

Virial components:
Potential Energy   :         -230.86071746 Eh           -6282.03949 eV
Kinetic Energy     :          115.12946704 Eh            3132.83207 eV
Virial Ratio       :            2.00522701


DFT components:
N(Alpha)           :        9.000009027860 electrons
N(Beta)            :        9.000009027860 electrons
N(Total)           :       18.000018055720 electrons
E(XC)              :      -10.629001297646 Eh       
DFET-embed. en.    :        0.000000000000 Eh       

---------------
SCF CONVERGENCE
---------------

  Last Energy change         ...   -2.3015e-09  Tolerance :   1.0000e-08
  Last MAX-Density change    ...    3.5265e-06  Tolerance :   1.0000e-07
  Last RMS-Density change    ...    2.0058e-07  Tolerance :   5.0000e-09
  Last Orbital Gradient      ...    2.1000e-06  Tolerance :   1.0000e-05
  Last Orbital Rotation      ...    3.0766e-06  Tolerance :   1.0000e-05

             **** THE GBW FILE WAS UPDATED (136_charges.gbw) ****
             **** DENSITY FILE WAS UPDATED (136_charges.scfp.tmp) ****
             **** ENERGY FILE WAS UPDATED (136_charges.en.tmp) ****
----------------
ORBITAL ENERGIES
----------------

  NO   OCC          E(Eh)            E(eV) 
   0   2.0000     -19.233350      -523.3661 
   1   2.0000     -10.317635      -280.7571 
   2   2.0000      -1.121751       -30.5244 
   3   2.0000      -0.797394       -21.6982 
   4   2.0000      -0.608820       -16.5668 
   5   2.0000      -0.529234       -14.4012 
   6   2.0000      -0.518119       -14.0987 
   7   2.0000      -0.440760       -11.9937 
   8   2.0000      -0.374179       -10.1819 
   9   0.0000       0.113942         3.1005 
  10   0.0000       0.148626         4.0443 
  11   0.0000       0.195143         5.3101 
  12   0.0000       0.208201         5.6654 
  13   0.0000       0.225731         6.1424 
  14   0.0000       0.307449         8.3661 
  15   0.0000       0.313611         8.5338 
  16   0.0000       0.382954        10.4207 
  17   0.0000       0.451515        12.2864 
  18   0.0000       0.475365        12.9354 
  19   0.0000       0.535094        14.5607 
  20   0.0000       0.548362        14.9217 
  21   0.0000       0.556759        15.1502 
  22   0.0000       0.595427        16.2024 
  23   0.0000       0.599770        16.3206 
  24   0.0000       0.665725        18.1153 
  25   0.0000       0.777497        21.1568 
  26   0.0000       0.828697        22.5500 
  27   0.0000       0.857073        23.3221 
  28   0.0000       0.991071        26.9684 
  29   0.0000       1.012645        27.5555 
  30   0.0000       1.094085        29.7716 
  31   0.0000       1.381803        37.6008 
  32   0.0000       1.496805        40.7301 
  33   0.0000       1.553035        42.2602 
  34   0.0000       1.579859        42.9901 
  35   0.0000       1.597447        43.4688 
  36   0.0000       1.635813        44.5127 
  37   0.0000       1.684691        45.8428 
  38   0.0000       1.692502        46.0553 
  39   0.0000       1.790531        48.7228 
  40   0.0000       1.949847        53.0580 
  41   0.0000       2.014785        54.8251 
  42   0.0000       2.030575        55.2547 
  43   0.0000       2.077068        56.5199 
  44   0.0000       2.119204        57.6665 
  45   0.0000       2.242012        61.0082 
  46   0.0000       2.302140        62.6444 
  47   0.0000       2.350253        63.9536 
  48   0.0000       2.372616        64.5622 
  49   0.0000       2.446818        66.5813 
  50   0.0000       2.480360        67.4940 
  51   0.0000       2.607701        70.9592 
  52   0.0000       2.627484        71.4975 
  53   0.0000       2.728301        74.2408 
  54   0.0000       2.817498        76.6680 
  55   0.0000       2.829517        76.9951 
  56   0.0000       2.892588        78.7113 
  57   0.0000       2.978853        81.0587 
  58   0.0000       3.086535        83.9889 
  59   0.0000       3.109502        84.6138 
  60   0.0000       3.243674        88.2649 
  61   0.0000       3.357464        91.3612 
  62   0.0000       3.433706        93.4359 
  63   0.0000       3.490995        94.9948 
  64   0.0000       3.533797        96.1595 
  65   0.0000       3.636935        98.9660 
  66   0.0000       3.676229       100.0353 
  67   0.0000       3.985637       108.4547 
  68   0.0000       4.180747       113.7639 
  69   0.0000       4.335905       117.9860 
  70   0.0000       4.387789       119.3978 
  71   0.0000       4.578137       124.5775 
  72   0.0000       5.334457       145.1580 
  73   0.0000       5.398673       146.9054 
  74   0.0000       5.531891       150.5304 
  75   0.0000       5.755095       156.6041 
  76   0.0000       5.774335       157.1276 
  77   0.0000       5.921866       161.1422 
  78   0.0000       6.306489       171.6083 
  79   0.0000       6.522514       177.4866 
  80   0.0000       6.729166       183.1099 
  81   0.0000       6.765359       184.0948 
  82   0.0000       7.036931       191.4846 
  83   0.0000       7.172209       195.1657 
  84   0.0000      22.293232       606.6297 
  85   0.0000      43.630351      1187.2422 

                    ********************************
                    * MULLIKEN POPULATION ANALYSIS *
                    ********************************

-----------------------
MULLIKEN ATOMIC CHARGES
-----------------------
   0 C :   -0.175037
   1 O :   -0.479692
   2 H :    0.313661
   3 H :    0.125432
   4 H :    0.106421
   5 H :    0.109215
Sum of atomic charges:    0.0000000

--------------------------------
MULLIKEN REDUCED ORBITAL CHARGES
--------------------------------
  0 C s       :     3.223232  s :     3.223232
      pz      :     0.974168  p :     2.853533
      px      :     1.078495
      py      :     0.800871
      dz2     :     0.017984  d :     0.091574
      dxz     :     0.018352
      dyz     :     0.016554
      dx2y2   :     0.020732
      dxy     :     0.017951
      f0      :     0.000423  f :     0.006698
      f+1     :    -0.000051
      f-1     :     0.001764
      f+2     :     0.002133
      f-2     :     0.001065
      f+3     :     0.000841
      f-3     :     0.000522
  1 O s       :     3.804327  s :     3.804327
      pz      :     1.569975  p :     4.645253
      px      :     1.555262
      py      :     1.520016
      dz2     :     0.002447  d :     0.028586
      dxz     :     0.007375
      dyz     :     0.005762
      dx2y2   :     0.009389
      dxy     :     0.003612
      f0      :     0.000238  f :     0.001526
      f+1     :     0.000152
      f-1     :     0.000201
      f+2     :     0.000585
      f-2     :     0.000147
      f+3     :     0.000127
      f-3     :     0.000076
  2 H s       :     0.640259  s :     0.640259
      pz      :     0.016761  p :     0.046080
      px      :     0.017242
      py      :     0.012077
  3 H s       :     0.855900  s :     0.855900
      pz      :     0.006539  p :     0.018669
      px      :     0.009530
      py      :     0.002600
  4 H s       :     0.873109  s :     0.873109
      pz      :     0.006176  p :     0.020470
      px      :     0.004835
      py      :     0.009459
  5 H s       :     0.870648  s :     0.870648
      pz      :     0.007039  p :     0.020137
      px      :     0.009409
      py      :     0.003689


                     *******************************
                     * LOEWDIN POPULATION ANALYSIS *
                     *******************************

----------------------
LOEWDIN ATOMIC CHARGES
----------------------
   0 C :   -0.363684
   1 O :   -0.110919
   2 H :    0.173422
   3 H :    0.120335
   4 H :    0.090009
   5 H :    0.090836

-------------------------------
LOEWDIN REDUCED ORBITAL CHARGES
-------------------------------
  0 C s       :     2.870089  s :     2.870089
      pz      :     1.036878  p :     3.060557
      px      :     1.110495
      py      :     0.913183
      dz2     :     0.048123  d :     0.384258
      dxz     :     0.081686
      dyz     :     0.099745
      dx2y2   :     0.107015
      dxy     :     0.047689
      f0      :     0.007389  f :     0.048779
      f+1     :     0.000830
      f-1     :     0.012189
      f+2     :     0.008743
      f-2     :     0.005515
      f+3     :     0.007996
      f-3     :     0.006116
  1 O s       :     3.401010  s :     3.401010
      pz      :     1.544450  p :     4.642496
      px      :     1.546062
      py      :     1.551985
      dz2     :     0.007275  d :     0.063470
      dxz     :     0.016092
      dyz     :     0.013982
      dx2y2   :     0.018081
      dxy     :     0.008039
      f0      :     0.000507  f :     0.003942
      f+1     :     0.000162
      f-1     :     0.000710
      f+2     :     0.001142
      f-2     :     0.000434
      f+3     :     0.000633
      f-3     :     0.000355
  2 H s       :     0.673829  s :     0.673829
      pz      :     0.050828  p :     0.152749
      px      :     0.069211
      py      :     0.032710
  3 H s       :     0.826820  s :     0.826820
      pz      :     0.017895  p :     0.052845
      px      :     0.027361
      py      :     0.007589
  4 H s       :     0.845373  s :     0.845373
      pz      :     0.019915  p :     0.064619
      px      :     0.015477
      py      :     0.029227
  5 H s       :     0.844909  s :     0.844909
      pz      :     0.022300  p :     0.064254
      px      :     0.030119
      py      :     0.011836


                      *****************************
                      * MAYER POPULATION ANALYSIS *
                      *****************************

  NA   - Mulliken gross atomic population
  ZA   - Total nuclear charge
  QA   - Mulliken gross atomic charge
  VA   - Mayer's total valence
  BVA  - Mayer's bonded valence
  FA   - Mayer's free valence

  ATOM       NA         ZA         QA         VA         BVA        FA
  0 C      6.1750     6.0000    -0.1750     3.9268     3.9268     0.0000
  1 O      8.4797     8.0000    -0.4797     1.8907     1.8907    -0.0000
  2 H      0.6863     1.0000     0.3137     0.9132     0.9132    -0.0000
  3 H      0.8746     1.0000     0.1254     0.9636     0.9636     0.0000
  4 H      0.8936     1.0000     0.1064     0.9542     0.9542     0.0000
  5 H      0.8908     1.0000     0.1092     0.9533     0.9533     0.0000

  Mayer bond orders larger than 0.1
B(  0-C ,  1-O ) :   0.9959 B(  0-C ,  3-H ) :   0.9728 B(  0-C ,  4-H ) :   0.9744 
B(  0-C ,  5-H ) :   0.9711 B(  1-O ,  2-H ) :   0.8979 


------------------
HIRSHFELD ANALYSIS
------------------

Total integrated alpha density =      9.000152917
Total integrated beta density  =      9.000152917

  ATOM     CHARGE      SPIN    
   0 C    0.007713    0.000000
   1 O   -0.258302    0.000000
   2 H    0.159004    0.000000
   3 H    0.043965    0.000000
   4 H    0.022851    0.000000
   5 H    0.024463    0.000000

  TOTAL  -0.000306    0.000000

-------
TIMINGS
-------

Total SCF time: 0 days 0 hours 0 min 27 sec 

Total time                  ....      27.680 sec
Sum of individual times     ....      24.858 sec  ( 89.8%)

Fock matrix formation       ....      14.472 sec  ( 52.3%)
  XC integration            ....       3.426 sec  ( 23.7% of F)
    Basis function eval.    ....       0.036 sec  (  1.1% of XC)
    Density eval.           ....       0.049 sec  (  1.4% of XC)
    XC-Functional eval.     ....       0.074 sec  (  2.2% of XC)
    XC-Potential eval.      ....       0.042 sec  (  1.2% of XC)
Diagonalization             ....       1.378 sec  (  5.0%)
Density matrix formation    ....       1.145 sec  (  4.1%)
Population analysis         ....       0.043 sec  (  0.2%)
Initial guess               ....       0.673 sec  (  2.4%)
Orbital Transformation      ....       0.000 sec  (  0.0%)
Orbital Orthonormalization  ....       0.000 sec  (  0.0%)
DIIS solution               ....       0.281 sec  (  1.0%)
SOSCF solution              ....       0.851 sec  (  3.1%)
Grid generation             ....       6.015 sec  ( 21.7%)


-------------------------------------------------------------------------------
                          DFT DISPERSION CORRECTION                            
                                                                               
                              DFTD3 V3.1  Rev 1                                
                              USING zero damping                               
-------------------------------------------------------------------------------
The omegaB97X-D3 functional is recognized. Fit by Chai et al.
Active option DFTDOPT                   ...         3   

molecular C6(AA) [au] = 208.838135 


            DFT-D V3
 parameters
 s6 scaling factor         :     1.0000 
 rs6 scaling factor        :     1.2810 
 s8 scaling factor         :     1.0000 
 rs8 scaling factor        :     1.0940 
 Damping factor alpha6     :    14.0000 
 Damping factor alpha8     :    16.0000 
 ad hoc parameters k1-k3   :    16.0000     1.3333    -4.0000 

 Edisp/kcal,au: -0.168279071424  -0.000268169742 
 E6   /kcal   :  -0.035435473 
 E8   /kcal   :  -0.132843598 
 % E8         :  78.942435979 

-------------------------   ----------------
Dispersion correction           -0.000268170
-------------------------   ----------------


-------------------------   --------------------
FINAL SINGLE POINT ENERGY      -115.731518591885
-------------------------   --------------------


                            ***************************************
                            *     ORCA property calculations      *
                            ***************************************

                                    ---------------------
                                    Active property flags
                                    ---------------------
   (+) Dipole Moment


------------------------------------------------------------------------------
                       ORCA ELECTRIC PROPERTIES CALCULATION
------------------------------------------------------------------------------

Dipole Moment Calculation                       ... on
Quadrupole Moment Calculation                   ... off
Polarizability Calculation                      ... off
GBWName                                         ... 136_charges.gbw
Electron density file                           ... 136_charges.scfp.tmp
The origin for moment calculation is the CENTER OF MASS  = (21.911306,  3.688211 -19.151421)

-------------
DIPOLE MOMENT
-------------
                                X             Y             Z
Electronic contribution:     -0.11388       1.63326      -0.93805
Nuclear contribution   :      0.62498      -2.16340       0.90087
                        -----------------------------------------
Total Dipole Moment    :      0.51111      -0.53013      -0.03719
                        -----------------------------------------
Magnitude (a.u.)       :      0.73733
Magnitude (Debye)      :      1.87415



--------------------
Rotational spectrum 
--------------------
 
Rotational constants in cm-1:     4.327446     0.791546     0.751032 
Rotational constants in MHz : 129733.562971 23729.960360 22515.379106 

 Dipole components along the rotational axes: 
x,y,z [a.u.] :    -0.391941     0.624041     0.024740 
x,y,z [Debye]:    -0.996235     1.586186     0.062885 

 
------------------------------------------------------------------------------
                      ORCA CHELPG CHARGES GENERATION
------------------------------------------------------------------------------

GBW file                           ... 136_charges.gbw

Reading the GBW file               ... done

Grid spacing                       ...     0.300000
Point Cut-Off                      ...     2.800000
Van-der-Waals Radii                ...        COSMO
Total charge                       ...            0


Number of points X direction       ...           24
Number of points Y direction       ...           25
Number of points Z direction       ...           25
Maximum number of possible points  ...        15000
Final number of points             ...         5909


CHELPG Charges            
--------------------------------
  0   C   :       0.057737
  1   O   :      -0.606045
  2   H   :       0.403897
  3   H   :       0.085702
  4   H   :       0.029289
  5   H   :       0.029419
--------------------------------
Total charge:     0.000000
--------------------------------

CHELPG charges calculated...

Timings for individual parts in CHELPG calculation:
Grid generation                 ...        0.002 sec (=   0.000 min)
Potential calculation           ...        0.682 sec (=   0.011 min)
Fit to the potential            ...        0.001 sec (=   0.000 min)
------------------------------------------------------------------------------


Timings for individual modules:

Sum of individual times         ...       37.340 sec (=   0.622 min)
GTO integral calculation        ...        4.960 sec (=   0.083 min)  13.3 %
SCF iterations                  ...       31.618 sec (=   0.527 min)  84.7 %
CHELPG charge generation        ...        0.762 sec (=   0.013 min)   2.0 %
                             ****ORCA TERMINATED NORMALLY****
TOTAL RUN TIME: 0 days 0 hours 0 minutes 40 seconds 792 msec
