
                                 *****************
                                 * O   R   C   A *
                                 *****************

           --- An Ab Initio, DFT and Semiempirical electronic structure package ---

                  #######################################################
                  #                        -***-                        #
                  #          Department of theory and spectroscopy      #
                  #               Directorship: Frank Neese             #
                  #        Max Planck Institute fuer Kohlenforschung    #
                  #                Kaiser Wilhelm Platz 1               #
                  #                 D-45470 Muelheim/Ruhr               #
                  #                      Germany                        #
                  #                                                     #
                  #                  All rights reserved                #
                  #                        -***-                        #
                  #######################################################


                         Program Version 4.1.2  - RELEASE  -


 With contributions from (in alphabetic order):
   Daniel Aravena         : Magnetic Properties
   Michael Atanasov       : Ab Initio Ligand Field Theory
   Alexander A. Auer      : GIAO ZORA
   Ute Becker             : Parallelization
   Giovanni Bistoni       : ED, Open-shell LED
   Martin Brehm           : Molecular dynamics
   Dmytro Bykov           : SCF Hessian
   Vijay G. Chilkuri      : MRCI spin determinant printing
   Dipayan Datta          : RHF DLPNO-CCSD density
   Achintya Kumar Dutta   : EOM-CC, STEOM-CC
   Dmitry Ganyushin       : Spin-Orbit,Spin-Spin,Magnetic field MRCI
   Miquel Garcia          : C-PCM Hessian
   Yang Guo               : DLPNO-NEVPT2, CIM, IAO-localization
   Andreas Hansen         : Spin unrestricted coupled pair/coupled cluster methods
   Benjamin Helmich-Paris : CASSCF linear response (MC-RPA)
   Lee Huntington         : MR-EOM, pCC
   Robert Izsak           : Overlap fitted RIJCOSX, COSX-SCS-MP3, EOM
   Christian Kollmar      : KDIIS, OOCD, Brueckner-CCSD(T), CCSD density
   Simone Kossmann        : Meta GGA functionals, TD-DFT gradient, OOMP2, MP2 Hessian
   Martin Krupicka        : AUTO-CI
   Lucas Lang             : DCDCAS
   Dagmar Lenk            : GEPOL surface, SMD
   Dimitrios Liakos       : Extrapolation schemes; parallel MDCI
   Dimitrios Manganas     : ROCIS; embedding schemes
   Dimitrios Pantazis     : SARC Basis sets
   Taras Petrenko         : DFT Hessian,TD-DFT gradient, ASA, ECA, R-Raman, ABS, FL, XAS/XES, NRVS
   Peter Pinski           : DLPNO-MP2, DLPNO-MP2 Gradient
   Christoph Reimann      : Effective Core Potentials
   Marius Retegan         : Local ZFS, SOC
   Christoph Riplinger    : Optimizer, TS searches, QM/MM, DLPNO-CCSD(T), (RO)-DLPNO pert. Triples
   Tobias Risthaus        : Range-separated hybrids, TD-DFT gradient, RPA, STAB
   Michael Roemelt        : Restricted open shell CIS
   Masaaki Saitow         : Open-shell DLPNO
   Barbara Sandhoefer     : DKH picture change effects
   Avijit Sen             : IP-ROCIS
   Kantharuban Sivalingam : CASSCF convergence, NEVPT2, FIC-MRCI
   Bernardo de Souza      : ESD, SOC TD-DFT
   Georgi Stoychev        : AutoAux, RI-MP2 NMR
   Willem Van den Heuvel  : Paramagnetic NMR
   Boris Wezisla          : Elementary symmetry handling
   Frank Wennmohs         : Technical directorship


 We gratefully acknowledge several colleagues who have allowed us to
 interface, adapt or use parts of their codes:
   Stefan Grimme, W. Hujo, H. Kruse,             : VdW corrections, initial TS optimization,
                  C. Bannwarth                     DFT functionals, gCP, sTDA/sTD-DF
   Ed Valeev                                     : LibInt (2-el integral package), F12 methods
   Garnet Chan, S. Sharma, J. Yang, R. Olivares  : DMRG
   Ulf Ekstrom                                   : XCFun DFT Library
   Mihaly Kallay                                 : mrcc  (arbitrary order and MRCC methods)
   Andreas Klamt, Michael Diedenhofen            : otool_cosmo (COSMO solvation model)
   Jiri Pittner, Ondrej Demel                    : Mk-CCSD
   Frank Weinhold                                : gennbo (NPA and NBO analysis)
   Christopher J. Cramer and Donald G. Truhlar   : smd solvation model
   Lars Goerigk                                  : TD-DFT with DH, B97 family of functionals
   V. Asgeirsson, H. Jonsson                     : NEB implementation
   FAccTs GmbH                                   : IRC, NEB, NEB-TS, Multilevel


 Your calculation uses the libint2 library for the computation of 2-el integrals
 For citations please refer to: http://libint.valeyev.net

 This ORCA versions uses:
   CBLAS   interface :  Fast vector & matrix operations
   LAPACKE interface :  Fast linear algebra routines
   SCALAPACK package :  Parallel linear algebra routines


Your calculation utilizes the atom-pairwise dispersion correction
with the zero-damping scheme (D30)
Cite in your paper:
S.Grimme, J.Antony, S.Ehrlich and H.Krieg, J.Chem.Phys., 132, (2010), 154104 
   

XCFun DFT library Copyright 2009-2010 Ulf Ekstrom and contributors.
See http://admol.org/xcfun for more information. This is free soft-
ware; see the source code for copying conditions. There is ABSOLUTELY
NO WARRANTY; not even for MERCHANTABILITY or FITNESS FOR A PARTICULAR
PURPOSE. For details see the documentation. Scientific users of this 
library should cite U. Ekstrom, L. Visscher, R. Bast, A. J. Thorvald-
sen and K. Ruud; J.Chem.Theor.Comp. 2010, DOI: 10.1021/ct100117s
XCFun Version 0.99 
----- Orbital basis set information -----
Your calculation utilizes the basis: def2-TZVP
   F. Weigend and R. Ahlrichs, Phys. Chem. Chem. Phys. 7, 3297 (2005).

================================================================================
                                        WARNINGS
                       Please study these warnings very carefully!
================================================================================


WARNING: Geometry Optimization
  ===> : Switching off AutoStart
         For restart on a previous wavefunction, please use MOREAD

INFO   : the flag for use of LIBINT has been found!

================================================================================
                                       INPUT FILE
================================================================================
NAME = bonds_angles_[1[6[8][1][1]]]-[6[8[1]][1][1][1]]-[1[6[8][1][1]]]_3.in
|  1> #Run DFT geometry optimization
|  2> ! wB97X-D3 def2-TZVP TIGHTSCF Grid5 FinalGrid6 Opt CHELPG PAL4
|  3> 
|  4> %base "3_geo_opt"
|  5> %geom MaxIter 500
|  6> end
|  7> 
|  8> %geom
|  9>   Constraints
| 10>     { A 5 0 4 C }
| 11>   end
| 12> end
| 13> 
| 14> 
| 15> * xyz 0 1
| 16>   C                    3.011308             -1.180897            0.598492            
| 17>   O                    4.394673             -1.128050            0.874308            
| 18>   H                    4.772196             -0.379022            0.412493            
| 19>   H                    2.806434             -1.318965            -0.469350           
| 20>   H                    2.612824             -2.041407            1.134955            
| 21>   H                    2.485799             -0.283419            0.944466            
| 22> *
| 23> 
| 24>                          ****END OF INPUT****
================================================================================

                       *****************************
                       * Geometry Optimization Run *
                       *****************************

Geometry optimization settings:
Update method            Update   .... BFGS
Choice of coordinates    CoordSys .... Z-matrix Internals
Initial Hessian          InHess   .... Almoef's Model

Convergence Tolerances:
Energy Change            TolE     ....  5.0000e-06 Eh
Max. Gradient            TolMAXG  ....  3.0000e-04 Eh/bohr
RMS Gradient             TolRMSG  ....  1.0000e-04 Eh/bohr
Max. Displacement        TolMAXD  ....  4.0000e-03 bohr
RMS Displacement         TolRMSD  ....  2.0000e-03 bohr

------------------------------------------------------------------------------
                        ORCA OPTIMIZATION COORDINATE SETUP
------------------------------------------------------------------------------

The optimization will be done in new redundant internal coordinates
Making redundant internal coordinates   ...  (new redundants) done
Evaluating the initial hessian          ...  (Almloef) done
Evaluating the coordinates              ...  done
Calculating the B-matrix                .... done
Calculating the G-matrix                .... done
Diagonalizing the G-matrix              .... done
Imposing constraints:
 Iter   0:  RMS(Cart)=    0.0000000000 RMS(Int)=    0.0000000000
CONVERGED
The first mode is                       ....    3
The number of degrees of freedom        ....   12
Storing new coordinates                 .... done

    -----------------------------------------------------------------
                    Redundant Internal Coordinates


    -----------------------------------------------------------------
         Definition                    Initial Value    Approx d2E/dq
    -----------------------------------------------------------------
      1. B(O   1,C   0)                  1.4116         0.516942   
      2. B(H   2,O   1)                  0.9575         0.524720   
      3. B(H   3,C   0)                  1.0960         0.352187   
      4. B(H   4,C   0)                  1.0895         0.360732   
      5. B(H   5,C   0)                  1.0960         0.352186   
      6. A(O   1,C   0,H   4)          106.9652         0.340286   
      7. A(O   1,C   0,H   3)          112.2263         0.338926   
      8. A(O   1,C   0,H   5)          112.1814         0.338926   
      9. A(H   3,C   0,H   5)          108.7270         0.288819   
     10. A(H   4,C   0,H   5)          108.4172         0.289906 C 
     11. A(H   3,C   0,H   4)          108.1712         0.289907   
     12. A(C   0,O   1,H   2)          108.7499         0.359342   
     13. D(H   2,O   1,C   0,H   5)    -61.3350         0.021176   
     14. D(H   2,O   1,C   0,H   3)     61.4271         0.021176   
     15. D(H   2,O   1,C   0,H   4)    179.9086         0.021176   
    -----------------------------------------------------------------

Number of atoms                         .... 6
Number of degrees of freedom            .... 15

         *************************************************************
         *                GEOMETRY OPTIMIZATION CYCLE   1            *
         *************************************************************
---------------------------------
CARTESIAN COORDINATES (ANGSTROEM)
---------------------------------
  C      3.011308   -1.180897    0.598492
  O      4.394673   -1.128050    0.874308
  H      4.772196   -0.379022    0.412493
  H      2.806434   -1.318965   -0.469350
  H      2.612824   -2.041407    1.134955
  H      2.485799   -0.283419    0.944466

----------------------------
CARTESIAN COORDINATES (A.U.)
----------------------------
  NO LB      ZA    FRAG     MASS         X           Y           Z
   0 C     6.0000    0    12.011    5.690547   -2.231572    1.130986
   1 O     8.0000    0    15.999    8.304728   -2.131706    1.652203
   2 H     1.0000    0     1.008    9.018143   -0.716248    0.779499
   3 H     1.0000    0     1.008    5.303392   -2.492483   -0.886943
   4 H     1.0000    0     1.008    4.937522   -3.857700    2.144754
   5 H     1.0000    0     1.008    4.697479   -0.535584    1.784782

--------------------------------
INTERNAL COORDINATES (ANGSTROEM)
--------------------------------
 C      0   0   0     0.000000000000     0.00000000     0.00000000
 O      1   0   0     1.411582797603     0.00000000     0.00000000
 H      2   1   0     0.957517443464   108.74989122     0.00000000
 H      1   2   3     1.096048660172   112.22633944    61.42708393
 H      1   2   3     1.089522605881   106.96516213   179.90858054
 H      1   2   3     1.096049487131   112.18138958   298.66499680

---------------------------
INTERNAL COORDINATES (A.U.)
---------------------------
 C      0   0   0     0.000000000000     0.00000000     0.00000000
 O      1   0   0     2.667504902825     0.00000000     0.00000000
 H      2   1   0     1.809445736600   108.74989122     0.00000000
 H      1   2   3     2.071231797176   112.22633944    61.42708393
 H      1   2   3     2.058899341831   106.96516213   179.90858054
 H      1   2   3     2.071233359903   112.18138958   298.66499680

---------------------
BASIS SET INFORMATION
---------------------
There are 3 groups of distinct atoms

 Group   1 Type C   : 11s6p2d1f contracted to 5s3p2d1f pattern {62111/411/11/1}
 Group   2 Type O   : 11s6p2d1f contracted to 5s3p2d1f pattern {62111/411/11/1}
 Group   3 Type H   : 5s1p contracted to 3s1p pattern {311/1}

Atom   0C    basis set group =>   1
Atom   1O    basis set group =>   2
Atom   2H    basis set group =>   3
Atom   3H    basis set group =>   3
Atom   4H    basis set group =>   3
Atom   5H    basis set group =>   3


           ************************************************************
           *        Program running with 4 parallel MPI-processes     *
           *              working on a common directory               *
           ************************************************************
------------------------------------------------------------------------------
                           ORCA GTO INTEGRAL CALCULATION
------------------------------------------------------------------------------

                         BASIS SET STATISTICS AND STARTUP INFO

 # of primitive gaussian shells          ...   64
 # of primitive gaussian functions       ...  124
 # of contracted shells                  ...   38
 # of contracted basis functions         ...   86
 Highest angular momentum                ...    3
 Maximum contraction depth               ...    6
 Integral package used                   ... LIBINT
 Integral threshhold            Thresh   ...  2.500e-11
 Primitive cut-off              TCut     ...  2.500e-12


------------------------------ INTEGRAL EVALUATION ----------------------------


 * One electron integrals 
 Pre-screening matrix                    ... done
 Shell pair data                         ... done (   0.000 sec)



           ************************************************************
           *        Program running with 4 parallel MPI-processes     *
           *              working on a common directory               *
           ************************************************************
-------------------------------------------------------------------------------
                                 ORCA SCF
-------------------------------------------------------------------------------

------------
SCF SETTINGS
------------
Hamiltonian:
 Density Functional     Method          .... DFT(GTOs)
 Exchange Functional    Exchange        .... WB97X-D3
 Correlation Functional Correlation     .... WB97X-D3
 Gradients option       PostSCFGGA      .... off
 Hybrid DFT is turned on
   Fraction HF Exchange ScalHFX         ....  0.195728
   Scaling of DF-GGA-X  ScalDFX         ....  0.000000
   Scaling of DF-GGA-C  ScalDFC         ....  1.000000
   Scaling of DF-LDA-C  ScalLDAC        ....  1.000000
   Perturbative correction              ....  0.000000
   Density functional embedding theory  .... OFF
 Long-range corrected/Screened/Range-Separated Hybrid DFT is turned on
   Amount of maximum screened exact exchange              ....  0.804272
   Range separation parameter mu (erf(mu*r12)/r12)        ....  0.250000


General Settings:
 Integral files         IntName         .... 3_geo_opt
 Hartree-Fock type      HFTyp           .... RHF
 Total Charge           Charge          ....    0
 Multiplicity           Mult            ....    1
 Number of Electrons    NEL             ....   18
 Basis Dimension        Dim             ....   86
 Nuclear Repulsion      ENuc            ....     40.4393483921 Eh

Convergence Acceleration:
 DIIS                   CNVDIIS         .... on
   Start iteration      DIISMaxIt       ....    12
   Startup error        DIISStart       ....  0.200000
   # of expansion vecs  DIISMaxEq       ....     5
   Bias factor          DIISBfac        ....   1.050
   Max. coefficient     DIISMaxC        ....  10.000
 Newton-Raphson         CNVNR           .... off
 SOSCF                  CNVSOSCF        .... on
   Start iteration      SOSCFMaxIt      ....   150
   Startup grad/error   SOSCFStart      ....  0.003300
 Level Shifting         CNVShift        .... on
   Level shift para.    LevelShift      ....    0.2500
   Turn off err/grad.   ShiftErr        ....    0.0010
 Zerner damping         CNVZerner       .... off
 Static damping         CNVDamp         .... on
   Fraction old density DampFac         ....    0.7000
   Max. Damping (<1)    DampMax         ....    0.9800
   Min. Damping (>=0)   DampMin         ....    0.0000
   Turn off err/grad.   DampErr         ....    0.1000
 Fernandez-Rico         CNVRico         .... off

SCF Procedure:
 Maximum # iterations   MaxIter         ....   125
 SCF integral mode      SCFMode         .... Direct
   Integral package                     .... LIBINT
 Reset frequency        DirectResetFreq ....    20
 Integral Threshold     Thresh          ....  2.500e-11 Eh
 Primitive CutOff       TCut            ....  2.500e-12 Eh

Convergence Tolerance:
 Convergence Check Mode ConvCheckMode   .... Total+1el-Energy
 Convergence forced     ConvForced      .... 0
 Energy Change          TolE            ....  1.000e-08 Eh
 1-El. energy change                    ....  1.000e-05 Eh
 Orbital Gradient       TolG            ....  1.000e-05
 Orbital Rotation angle TolX            ....  1.000e-05
 DIIS Error             TolErr          ....  5.000e-07


Diagonalization of the overlap matrix:
Smallest eigenvalue                        ... 1.650e-03
Time for diagonalization                   ...    0.002 sec
Threshold for overlap eigenvalues          ... 1.000e-08
Number of eigenvalues below threshold      ... 0
Time for construction of square roots      ...    0.004 sec
Total time needed                          ...    0.006 sec

-------------------
DFT GRID GENERATION
-------------------

General Integration Accuracy     IntAcc      ...  5.010
Radial Grid Type                 RadialGrid  ... Gauss-Chebyshev
Angular Grid (max. acc.)         AngularGrid ... Lebedev-434
Angular grid pruning method      GridPruning ... 3 (G Style)
Weight generation scheme         WeightScheme... Becke
Basis function cutoff            BFCut       ...    1.0000e-11
Integration weight cutoff        WCut        ...    1.0000e-14
Grids for H and He will be reduced by one unit

# of grid points (after initial pruning)     ...  48308 (   0.0 sec)
# of grid points (after weights+screening)   ...  46677 (   0.0 sec)
nearest neighbour list constructed           ...    0.0 sec
Grid point re-assignment to atoms done       ...    0.0 sec
Grid point division into batches done        ...    0.3 sec
Reduced shell lists constructed in    0.3 sec

Total number of grid points                  ...    46677
Total number of batches                      ...      733
Average number of points per batch           ...       63
Average number of grid points per atom       ...     7780
Average number of shells per batch           ...    33.11 (87.14%)
Average number of basis functions per batch  ...    76.78 (89.28%)
Average number of large shells per batch     ...    30.63 (92.49%)
Average number of large basis fcns per batch ...    72.26 (94.11%)
Maximum spatial batch extension              ...  15.77, 14.98, 16.58 au
Average spatial batch extension              ...   0.40,  0.40,  0.43 au

Time for grid setup =    0.395 sec

------------------------------
INITIAL GUESS: MODEL POTENTIAL
------------------------------
Loading Hartree-Fock densities                     ... done
Calculating cut-offs                               ... done
Setting up the integral package                    ... done
Initializing the effective Hamiltonian             ... done
Starting the Coulomb interaction                   ... done (   0.0 sec)
Reading the grid                                   ... done
Mapping shells                                     ... done
Starting the XC term evaluation                    ... done (   0.1 sec)
  promolecular density results
     # of electrons  =     17.998045202
     EX              =    -14.430296019
     EC              =     -0.575122104
     EX+EC           =    -15.005418123
Transforming the Hamiltonian                       ... done (   0.0 sec)
Diagonalizing the Hamiltonian                      ... done (   0.0 sec)
Back transforming the eigenvectors                 ... done (   0.0 sec)
Now organizing SCF variables                       ... done
                      ------------------
                      INITIAL GUESS DONE (   0.6 sec)
                      ------------------
--------------
SCF ITERATIONS
--------------
ITER       Energy         Delta-E        Max-DP      RMS-DP      [F,P]     Damp
               ***  Starting incremental Fock matrix formation  ***
  0   -115.6511870861   0.000000000000 0.03697432  0.00147492  0.2524085 0.7000
  1   -115.6882651773  -0.037078091218 0.02203379  0.00104093  0.1262757 0.7000
                               ***Turning on DIIS***
  2   -115.7053330532  -0.017067875888 0.03156904  0.00188128  0.0491041 0.0000
  3   -115.7330747641  -0.027741710907 0.01774220  0.00068032  0.0611416 0.0000
  4   -115.7376004330  -0.004525668886 0.00406643  0.00013183  0.0065556 0.0000
                      *** Initiating the SOSCF procedure ***
                           *** Shutting down DIIS ***
                      *** Re-Reading the Fockian *** 
                      *** Removing any level shift *** 
ITER      Energy       Delta-E        Grad      Rot      Max-DP    RMS-DP
  5   -115.73769466  -0.0000942282  0.000490  0.000490  0.000678  0.000043
               *** Restarting incremental Fock matrix formation ***
  6   -115.73770281  -0.0000081453  0.000152  0.000203  0.000491  0.000026
  7   -115.73770353  -0.0000007225  0.000056  0.000109  0.000208  0.000011
  8   -115.73770359  -0.0000000575  0.000019  0.000017  0.000030  0.000001
  9   -115.73770359  -0.0000000055  0.000011  0.000008  0.000014  0.000001
 10   -115.73770359  -0.0000000015  0.000003  0.000003  0.000003  0.000000
                  ***Gradient check signals convergence***
              ***Rediagonalizing the Fockian in SOSCF/NRSCF***

               *****************************************************
               *                     SUCCESS                       *
               *           SCF CONVERGED AFTER  11 CYCLES          *
               *****************************************************

Setting up the final grid:

General Integration Accuracy     IntAcc      ...  5.340
Radial Grid Type                 RadialGrid  ... Gauss-Chebyshev
Angular Grid (max. acc.)         AngularGrid ... Lebedev-590
Angular grid pruning method      GridPruning ... 3 (G Style)
Weight generation scheme         WeightScheme... Becke
Basis function cutoff            BFCut       ...    1.0000e-11
Integration weight cutoff        WCut        ...    1.0000e-14
Grids for H and He will be reduced by one unit

# of grid points (after initial pruning)     ...  77324 (   0.0 sec)
# of grid points (after weights+screening)   ...  74511 (   0.0 sec)
nearest neighbour list constructed           ...    0.0 sec
Grid point re-assignment to atoms done       ...    0.0 sec
Grid point division into batches done        ...    0.8 sec
Reduced shell lists constructed in    0.8 sec

Total number of grid points                  ...    74511
Total number of batches                      ...     1167
Average number of points per batch           ...       63
Average number of grid points per atom       ...    12418
Average number of shells per batch           ...    32.94 (86.68%)
Average number of basis functions per batch  ...    76.37 (88.80%)
Average number of large shells per batch     ...    30.32 (92.05%)
Average number of large basis fcns per batch ...    71.54 (93.68%)
Maximum spatial batch extension              ...  13.18, 14.25, 15.48 au
Average spatial batch extension              ...   0.34,  0.36,  0.37 au

Final grid set up in    0.9 sec
Final integration                            ... done (   0.2 sec)
Change in XC energy                          ...    -0.000107578
Integrated number of electrons               ...    18.000000746
Previous integrated no of electrons          ...    18.000002272

----------------
TOTAL SCF ENERGY
----------------

Total Energy       :         -115.73781117 Eh           -3149.38595 eV

Components:
Nuclear Repulsion  :           40.43934839 Eh            1100.41061 eV
Electronic Energy  :         -156.17715956 Eh           -4249.79657 eV
One Electron Energy:         -237.29809290 Eh           -6457.20939 eV
Two Electron Energy:           81.12093333 Eh            2207.41282 eV

Virial components:
Potential Energy   :         -230.98863973 Eh           -6285.52044 eV
Kinetic Energy     :          115.25082855 Eh            3136.13448 eV
Virial Ratio       :            2.00422542


DFT components:
N(Alpha)           :        9.000000372840 electrons
N(Beta)            :        9.000000372840 electrons
N(Total)           :       18.000000745681 electrons
E(XC)              :      -10.655645822417 Eh       
DFET-embed. en.    :        0.000000000000 Eh       

---------------
SCF CONVERGENCE
---------------

  Last Energy change         ...   -7.7350e-11  Tolerance :   1.0000e-08
  Last MAX-Density change    ...    1.8668e-06  Tolerance :   1.0000e-07
  Last RMS-Density change    ...    7.7548e-08  Tolerance :   5.0000e-09
  Last Orbital Gradient      ...    1.3500e-06  Tolerance :   1.0000e-05
  Last Orbital Rotation      ...    7.8020e-07  Tolerance :   1.0000e-05

             **** THE GBW FILE WAS UPDATED (3_geo_opt.gbw) ****
             **** DENSITY FILE WAS UPDATED (3_geo_opt.scfp.tmp) ****
             **** ENERGY FILE WAS UPDATED (3_geo_opt.en.tmp) ****
----------------
ORBITAL ENERGIES
----------------

  NO   OCC          E(Eh)            E(eV) 
   0   2.0000     -19.228045      -523.2217 
   1   2.0000     -10.315117      -280.6886 
   2   2.0000      -1.136789       -30.9336 
   3   2.0000      -0.795315       -21.6416 
   4   2.0000      -0.611623       -16.6431 
   5   2.0000      -0.541728       -14.7412 
   6   2.0000      -0.526309       -14.3216 
   7   2.0000      -0.433865       -11.8061 
   8   2.0000      -0.373556       -10.1650 
   9   0.0000       0.116616         3.1733 
  10   0.0000       0.156734         4.2649 
  11   0.0000       0.202530         5.5111 
  12   0.0000       0.205090         5.5808 
  13   0.0000       0.226406         6.1608 
  14   0.0000       0.304283         8.2800 
  15   0.0000       0.313270         8.5245 
  16   0.0000       0.404521        11.0076 
  17   0.0000       0.452622        12.3165 
  18   0.0000       0.485103        13.2003 
  19   0.0000       0.535792        14.5796 
  20   0.0000       0.543584        14.7917 
  21   0.0000       0.567722        15.4485 
  22   0.0000       0.598526        16.2867 
  23   0.0000       0.603344        16.4178 
  24   0.0000       0.671368        18.2689 
  25   0.0000       0.779204        21.2032 
  26   0.0000       0.832322        22.6486 
  27   0.0000       0.861234        23.4354 
  28   0.0000       0.989487        26.9253 
  29   0.0000       1.013933        27.5905 
  30   0.0000       1.109789        30.1989 
  31   0.0000       1.382688        37.6249 
  32   0.0000       1.512667        41.1618 
  33   0.0000       1.553521        42.2735 
  34   0.0000       1.602959        43.6187 
  35   0.0000       1.613156        43.8962 
  36   0.0000       1.623840        44.1869 
  37   0.0000       1.660457        45.1833 
  38   0.0000       1.688126        45.9362 
  39   0.0000       1.774406        48.2840 
  40   0.0000       1.952089        53.1191 
  41   0.0000       2.030765        55.2599 
  42   0.0000       2.055067        55.9212 
  43   0.0000       2.094549        56.9956 
  44   0.0000       2.114743        57.5451 
  45   0.0000       2.268540        61.7301 
  46   0.0000       2.333580        63.4999 
  47   0.0000       2.345254        63.8176 
  48   0.0000       2.380848        64.7862 
  49   0.0000       2.429785        66.1178 
  50   0.0000       2.496991        67.9466 
  51   0.0000       2.596755        70.6613 
  52   0.0000       2.639466        71.8235 
  53   0.0000       2.707246        73.6679 
  54   0.0000       2.841499        77.3211 
  55   0.0000       2.871455        78.1363 
  56   0.0000       2.888615        78.6032 
  57   0.0000       2.993207        81.4493 
  58   0.0000       3.096100        84.2492 
  59   0.0000       3.172828        86.3371 
  60   0.0000       3.300037        89.7986 
  61   0.0000       3.409057        92.7652 
  62   0.0000       3.441551        93.6494 
  63   0.0000       3.487967        94.9124 
  64   0.0000       3.612988        98.3144 
  65   0.0000       3.645309        99.1939 
  66   0.0000       3.666637        99.7743 
  67   0.0000       4.005478       108.9946 
  68   0.0000       4.224230       114.9471 
  69   0.0000       4.272514       116.2610 
  70   0.0000       4.456192       121.2591 
  71   0.0000       4.564441       124.2048 
  72   0.0000       5.346117       145.4752 
  73   0.0000       5.425352       147.6313 
  74   0.0000       5.554444       151.1441 
  75   0.0000       5.826134       158.5372 
  76   0.0000       5.834088       158.7536 
  77   0.0000       5.985542       162.8749 
  78   0.0000       6.379657       173.5993 
  79   0.0000       6.531086       177.7199 
  80   0.0000       6.745072       183.5427 
  81   0.0000       6.804114       185.1494 
  82   0.0000       7.039460       191.5534 
  83   0.0000       7.216043       196.3585 
  84   0.0000      22.406025       609.6989 
  85   0.0000      43.664424      1188.1694 

                    ********************************
                    * MULLIKEN POPULATION ANALYSIS *
                    ********************************

-----------------------
MULLIKEN ATOMIC CHARGES
-----------------------
   0 C :   -0.150754
   1 O :   -0.477679
   2 H :    0.312966
   3 H :    0.098559
   4 H :    0.118261
   5 H :    0.098646
Sum of atomic charges:   -0.0000000

--------------------------------
MULLIKEN REDUCED ORBITAL CHARGES
--------------------------------
  0 C s       :     3.223182  s :     3.223182
      pz      :     1.047446  p :     2.825913
      px      :     0.702169
      py      :     1.076299
      dz2     :     0.011134  d :     0.094237
      dxz     :     0.032469
      dyz     :     0.002625
      dx2y2   :     0.012781
      dxy     :     0.035229
      f0      :     0.001356  f :     0.007422
      f+1     :     0.000956
      f-1     :     0.000175
      f+2     :     0.001466
      f-2     :     0.000121
      f+3     :     0.001360
      f-3     :     0.001988
  1 O s       :     3.792779  s :     3.792779
      pz      :     1.759358  p :     4.652633
      px      :     1.313674
      py      :     1.579600
      dz2     :     0.003137  d :     0.030581
      dxz     :     0.006480
      dyz     :     0.005835
      dx2y2   :     0.008936
      dxy     :     0.006193
      f0      :     0.000269  f :     0.001685
      f+1     :     0.000233
      f-1     :     0.000087
      f+2     :     0.000287
      f-2     :     0.000235
      f+3     :     0.000367
      f-3     :     0.000206
  2 H s       :     0.639343  s :     0.639343
      pz      :     0.017006  p :     0.047692
      px      :     0.012720
      py      :     0.017966
  3 H s       :     0.882076  s :     0.882076
      pz      :     0.012071  p :     0.019364
      px      :     0.003008
      py      :     0.004285
  4 H s       :     0.861522  s :     0.861522
      pz      :     0.006291  p :     0.020217
      px      :     0.004184
      py      :     0.009741
  5 H s       :     0.881995  s :     0.881995
      pz      :     0.004922  p :     0.019358
      px      :     0.004967
      py      :     0.009470


                     *******************************
                     * LOEWDIN POPULATION ANALYSIS *
                     *******************************

----------------------
LOEWDIN ATOMIC CHARGES
----------------------
   0 C :   -0.385081
   1 O :   -0.076152
   2 H :    0.165753
   3 H :    0.093366
   4 H :    0.108712
   5 H :    0.093403

-------------------------------
LOEWDIN REDUCED ORBITAL CHARGES
-------------------------------
  0 C s       :     2.863013  s :     2.863013
      pz      :     1.096812  p :     3.052118
      px      :     0.846070
      py      :     1.109235
      dz2     :     0.072475  d :     0.412914
      dxz     :     0.113960
      dyz     :     0.020663
      dx2y2   :     0.082266
      dxy     :     0.123550
      f0      :     0.007825  f :     0.057036
      f+1     :     0.007166
      f-1     :     0.000855
      f+2     :     0.012539
      f-2     :     0.004807
      f+3     :     0.011735
      f-3     :     0.012110
  1 O s       :     3.366287  s :     3.366287
      pz      :     1.699013  p :     4.633644
      px      :     1.381227
      py      :     1.553404
      dz2     :     0.006136  d :     0.071576
      dxz     :     0.017868
      dyz     :     0.008086
      dx2y2   :     0.019339
      dxy     :     0.020147
      f0      :     0.000483  f :     0.004645
      f+1     :     0.000623
      f-1     :     0.000072
      f+2     :     0.001051
      f-2     :     0.000560
      f+3     :     0.000890
      f-3     :     0.000966
  2 H s       :     0.675165  s :     0.675165
      pz      :     0.055756  p :     0.159082
      px      :     0.033909
      py      :     0.069418
  3 H s       :     0.846811  s :     0.846811
      pz      :     0.036182  p :     0.059823
      px      :     0.009716
      py      :     0.013925
  4 H s       :     0.831700  s :     0.831700
      pz      :     0.019197  p :     0.059588
      px      :     0.011585
      py      :     0.028806
  5 H s       :     0.846780  s :     0.846780
      pz      :     0.015591  p :     0.059817
      px      :     0.015181
      py      :     0.029045


                      *****************************
                      * MAYER POPULATION ANALYSIS *
                      *****************************

  NA   - Mulliken gross atomic population
  ZA   - Total nuclear charge
  QA   - Mulliken gross atomic charge
  VA   - Mayer's total valence
  BVA  - Mayer's bonded valence
  FA   - Mayer's free valence

  ATOM       NA         ZA         QA         VA         BVA        FA
  0 C      6.1508     6.0000    -0.1508     3.9349     3.9349    -0.0000
  1 O      8.4777     8.0000    -0.4777     1.8879     1.8879    -0.0000
  2 H      0.6870     1.0000     0.3130     0.9136     0.9136     0.0000
  3 H      0.9014     1.0000     0.0986     0.9595     0.9595    -0.0000
  4 H      0.8817     1.0000     0.1183     0.9598     0.9598     0.0000
  5 H      0.9014     1.0000     0.0986     0.9597     0.9597    -0.0000

  Mayer bond orders larger than 0.1
B(  0-C ,  1-O ) :   0.9986 B(  0-C ,  3-H ) :   0.9755 B(  0-C ,  4-H ) :   0.9749 
B(  0-C ,  5-H ) :   0.9756 B(  1-O ,  2-H ) :   0.9002 

-------
TIMINGS
-------

Total SCF time: 0 days 0 hours 0 min 8 sec 

Total time                  ....       8.636 sec
Sum of individual times     ....       8.275 sec  ( 95.8%)

Fock matrix formation       ....       6.733 sec  ( 78.0%)
  XC integration            ....       1.924 sec  ( 28.6% of F)
    Basis function eval.    ....       0.406 sec  ( 21.1% of XC)
    Density eval.           ....       0.263 sec  ( 13.7% of XC)
    XC-Functional eval.     ....       0.670 sec  ( 34.8% of XC)
    XC-Potential eval.      ....       0.276 sec  ( 14.4% of XC)
Diagonalization             ....       0.016 sec  (  0.2%)
Density matrix formation    ....       0.002 sec  (  0.0%)
Population analysis         ....       0.013 sec  (  0.2%)
Initial guess               ....       0.190 sec  (  2.2%)
Orbital Transformation      ....       0.000 sec  (  0.0%)
Orbital Orthonormalization  ....       0.000 sec  (  0.0%)
DIIS solution               ....       0.010 sec  (  0.1%)
SOSCF solution              ....       0.027 sec  (  0.3%)
Grid generation             ....       1.285 sec  ( 14.9%)


-------------------------------------------------------------------------------
                          DFT DISPERSION CORRECTION                            
                                                                               
                              DFTD3 V3.1  Rev 1                                
                              USING zero damping                               
-------------------------------------------------------------------------------
The omegaB97X-D3 functional is recognized. Fit by Chai et al.
Active option DFTDOPT                   ...         3   

molecular C6(AA) [au] = 208.715651 


            DFT-D V3
 parameters
 s6 scaling factor         :     1.0000 
 rs6 scaling factor        :     1.2810 
 s8 scaling factor         :     1.0000 
 rs8 scaling factor        :     1.0940 
 Damping factor alpha6     :    14.0000 
 Damping factor alpha8     :    16.0000 
 ad hoc parameters k1-k3   :    16.0000     1.3333    -4.0000 

 Edisp/kcal,au: -0.150000246635  -0.000239040583 
 E6   /kcal   :  -0.029570913 
 E8   /kcal   :  -0.120429334 
 % E8         :  80.286090599 

-------------------------   ----------------
Dispersion correction           -0.000239041
-------------------------   ----------------


-------------------------   --------------------
FINAL SINGLE POINT ENERGY      -115.738050211927
-------------------------   --------------------



           ************************************************************
           *        Program running with 4 parallel MPI-processes     *
           *              working on a common directory               *
           ************************************************************
------------------------------------------------------------------------------
                         ORCA SCF GRADIENT CALCULATION
------------------------------------------------------------------------------

Gradient of the Kohn-Sham DFT energy:
Kohn-Sham wavefunction type      ... RKS
Hartree-Fock exchange scaling    ...    0.196
Number of operators              ...    1
Number of atoms                  ...    6
Basis set dimensions             ...   86
Integral neglect threshold       ... 2.5e-11
Integral primitive cutoff        ... 2.5e-12

Nuclear repulsion gradient       ... done
One Electron Gradient            ... done
Pre-screening matrix             ... done
Starting the two electron gradient:
Two electron gradient done
Exchange-correlation gradient    ... done
Dispersion correction            ... done

------------------
CARTESIAN GRADIENT
------------------

   1   C   :   -0.000276850    0.000037494    0.000145700
   2   O   :   -0.000064368   -0.000044450    0.000063297
   3   H   :   -0.000013116    0.000014113   -0.000010506
   4   H   :   -0.000026598    0.000009017    0.000050911
   5   H   :    0.000221191   -0.000212400   -0.000101412
   6   H   :    0.000159742    0.000196225   -0.000147990

Difference to translation invariance:
           :    0.0000000000   -0.0000000000    0.0000000000

Norm of the cartesian gradient     ...    0.0005509215
RMS gradient                       ...    0.0001298534
MAX gradient                       ...    0.0002768502

-------
TIMINGS
-------

Total SCF gradient time            ...        1.850 sec

One electron gradient       ....       0.005 sec  (  0.3%)
Prescreening matrices       ....       0.024 sec  (  1.3%)
Two electron gradient       ....       0.839 sec  ( 45.4%)
XC gradient                 ....       0.691 sec  ( 37.4%)
------------------------------------------------------------------------------
                         ORCA GEOMETRY RELAXATION STEP
------------------------------------------------------------------------------

Reading the OPT-File                    .... done
Getting information on internals        .... done
Copying old internal coords+grads       .... done
Making the new internal coordinates     .... (new redundants).... done
Validating the new internal coordinates .... (new redundants).... done
Calculating the B-matrix                .... done
Calculating the G,G- and P matrices     .... done
Transforming gradient to internals      .... done
Projecting the internal gradient        .... done
Number of atoms                         ....   6
Number of internal coordinates          ....  15
Current Energy                          ....  -115.738050212 Eh
Current gradient norm                   ....     0.000550922 Eh/bohr
Maximum allowed component of the step   ....  0.300
Current trust radius                    ....  0.300
Evaluating the initial hessian          ....  (Almloef) done
Projecting the Hessian                  .... done
Forming the augmented Hessian           .... done
Diagonalizing the augmented Hessian     .... done
Last element of RFO vector              ....  0.999999848
Lowest eigenvalues of augmented Hessian:
 -0.000000091  0.021176451  0.184595799  0.268498821  0.324359131
Length of the computed step             ....  0.000551326
The final length of the internal step   ....  0.000551326
Converting the step to cartesian space:
 Initial RMS(Int)=    0.0001423518
Transforming coordinates:
 Iter   0:  RMS(Cart)=    0.0001408147 RMS(Int)=    0.0001423517
 Iter   1:  RMS(Cart)=    0.0000000165 RMS(Int)=    0.0000000169
Imposing constraints:
 Iter   0:  RMS(Cart)=    0.0000000052 RMS(Int)=    0.0000000100
CONVERGED
done
Storing new coordinates                 .... done

                                .--------------------.
          ----------------------|Geometry convergence|-------------------------
          Item                value                   Tolerance       Converged
          ---------------------------------------------------------------------
          RMS gradient        0.0000441116            0.0001000000      YES
          MAX gradient        0.0000883132            0.0003000000      YES
          RMS step            0.0001423518            0.0020000000      YES
          MAX step            0.0003136521            0.0040000000      YES
          ........................................................
          Max(Bonds)      0.0001      Max(Angles)    0.02
          Max(Dihed)        0.01      Max(Improp)    0.00
          ---------------------------------------------------------------------

                    ***********************HURRAY********************
                    ***        THE OPTIMIZATION HAS CONVERGED     ***
                    *************************************************


    ---------------------------------------------------------------------------
                         Redundant Internal Coordinates

                          --- Optimized Parameters ---  
                            (Angstroem and degrees)

        Definition                    OldVal   dE/dq     Step     FinalVal
    ----------------------------------------------------------------------------
     1. B(O   1,C   0)                1.4116 -0.000066  0.0001    1.4117   
     2. B(H   2,O   1)                0.9575  0.000010 -0.0000    0.9575   
     3. B(H   3,C   0)                1.0960 -0.000046  0.0001    1.0961   
     4. B(H   4,C   0)                1.0895  0.000037 -0.0001    1.0895   
     5. B(H   5,C   0)                1.0960  0.000037 -0.0001    1.0960   
     6. A(O   1,C   0,H   4)          106.97 -0.000230    0.02    106.98   
     7. A(O   1,C   0,H   3)          112.23  0.000046   -0.02    112.21   
     8. A(O   1,C   0,H   5)          112.18 -0.000156    0.01    112.19   
     9. A(H   3,C   0,H   5)          108.73 -0.000026   -0.00    108.72   
    10. A(H   4,C   0,H   5)          108.42  0.000402   -0.00    108.42 C 
    11. A(H   3,C   0,H   4)          108.17 -0.000017   -0.00    108.17   
    12. A(C   0,O   1,H   2)          108.75 -0.000033    0.01    108.76   
    13. D(H   2,O   1,C   0,H   5)    -61.34  0.000126    0.01    -61.33   
    14. D(H   2,O   1,C   0,H   3)     61.43  0.000009   -0.01     61.42   
    15. D(H   2,O   1,C   0,H   4)    179.91 -0.000130   -0.01    179.90   
    ----------------------------------------------------------------------------
                 *******************************************************
                 *** FINAL ENERGY EVALUATION AT THE STATIONARY POINT ***
                 ***               (AFTER    1 CYCLES)               ***
                 *******************************************************
---------------------------------
CARTESIAN COORDINATES (ANGSTROEM)
---------------------------------
  C      3.011288   -1.180920    0.598627
  O      4.394755   -1.127998    0.874265
  H      4.772259   -0.379007    0.412397
  H      2.806547   -1.318943   -0.469316
  H      2.612651   -2.041402    1.134911
  H      2.485733   -0.283490    0.944480

----------------------------
CARTESIAN COORDINATES (A.U.)
----------------------------
  NO LB      ZA    FRAG     MASS         X           Y           Z
   0 C     6.0000    0    12.011    5.690510   -2.231615    1.131242
   1 O     8.0000    0    15.999    8.304884   -2.131608    1.652121
   2 H     1.0000    0     1.008    9.018263   -0.716219    0.779317
   3 H     1.0000    0     1.008    5.303606   -2.492441   -0.886879
   4 H     1.0000    0     1.008    4.937194   -3.857691    2.144671
   5 H     1.0000    0     1.008    4.697356   -0.535719    1.784808

--------------------------------
INTERNAL COORDINATES (ANGSTROEM)
--------------------------------
 C      0   0   0     0.000000000000     0.00000000     0.00000000
 O      1   0   0     1.411650785716     0.00000000     0.00000000
 H      2   1   0     0.957506999891   108.75515931     0.00000000
 H      1   2   3     1.096117051728   112.21103474    61.42021835
 H      1   2   3     1.089468664090   106.98313211   179.89954508
 H      1   2   3     1.095993377518   112.18737227   298.67075276

---------------------------
INTERNAL COORDINATES (A.U.)
---------------------------
 C      0   0   0     0.000000000000     0.00000000     0.00000000
 O      1   0   0     2.667633381738     0.00000000     0.00000000
 H      2   1   0     1.809426001106   108.75515931     0.00000000
 H      1   2   3     2.071361038488   112.21103474    61.42021835
 H      1   2   3     2.058797406620   106.98313211   179.89954508
 H      1   2   3     2.071127328100   112.18737227   298.67075276

---------------------
BASIS SET INFORMATION
---------------------
There are 3 groups of distinct atoms

 Group   1 Type C   : 11s6p2d1f contracted to 5s3p2d1f pattern {62111/411/11/1}
 Group   2 Type O   : 11s6p2d1f contracted to 5s3p2d1f pattern {62111/411/11/1}
 Group   3 Type H   : 5s1p contracted to 3s1p pattern {311/1}

Atom   0C    basis set group =>   1
Atom   1O    basis set group =>   2
Atom   2H    basis set group =>   3
Atom   3H    basis set group =>   3
Atom   4H    basis set group =>   3
Atom   5H    basis set group =>   3


           ************************************************************
           *        Program running with 4 parallel MPI-processes     *
           *              working on a common directory               *
           ************************************************************
------------------------------------------------------------------------------
                           ORCA GTO INTEGRAL CALCULATION
------------------------------------------------------------------------------

                         BASIS SET STATISTICS AND STARTUP INFO

 # of primitive gaussian shells          ...   64
 # of primitive gaussian functions       ...  124
 # of contracted shells                  ...   38
 # of contracted basis functions         ...   86
 Highest angular momentum                ...    3
 Maximum contraction depth               ...    6
 Integral package used                   ... LIBINT
 Integral threshhold            Thresh   ...  2.500e-11
 Primitive cut-off              TCut     ...  2.500e-12


------------------------------ INTEGRAL EVALUATION ----------------------------


 * One electron integrals 
 Pre-screening matrix                    ... done
 Shell pair data                         ... done (   0.000 sec)



           ************************************************************
           *        Program running with 4 parallel MPI-processes     *
           *              working on a common directory               *
           ************************************************************
-------------------------------------------------------------------------------
                                 ORCA SCF
-------------------------------------------------------------------------------

------------
SCF SETTINGS
------------
Hamiltonian:
 Density Functional     Method          .... DFT(GTOs)
 Exchange Functional    Exchange        .... WB97X-D3
 Correlation Functional Correlation     .... WB97X-D3
 Gradients option       PostSCFGGA      .... off
 Hybrid DFT is turned on
   Fraction HF Exchange ScalHFX         ....  0.195728
   Scaling of DF-GGA-X  ScalDFX         ....  0.000000
   Scaling of DF-GGA-C  ScalDFC         ....  1.000000
   Scaling of DF-LDA-C  ScalLDAC        ....  1.000000
   Perturbative correction              ....  0.000000
   Density functional embedding theory  .... OFF
 Long-range corrected/Screened/Range-Separated Hybrid DFT is turned on
   Amount of maximum screened exact exchange              ....  0.804272
   Range separation parameter mu (erf(mu*r12)/r12)        ....  0.250000


General Settings:
 Integral files         IntName         .... 3_geo_opt
 Hartree-Fock type      HFTyp           .... RHF
 Total Charge           Charge          ....    0
 Multiplicity           Mult            ....    1
 Number of Electrons    NEL             ....   18
 Basis Dimension        Dim             ....   86
 Nuclear Repulsion      ENuc            ....     40.4382826220 Eh

Convergence Acceleration:
 DIIS                   CNVDIIS         .... on
   Start iteration      DIISMaxIt       ....    12
   Startup error        DIISStart       ....  0.200000
   # of expansion vecs  DIISMaxEq       ....     5
   Bias factor          DIISBfac        ....   1.050
   Max. coefficient     DIISMaxC        ....  10.000
 Newton-Raphson         CNVNR           .... off
 SOSCF                  CNVSOSCF        .... on
   Start iteration      SOSCFMaxIt      ....   150
   Startup grad/error   SOSCFStart      ....  0.003300
 Level Shifting         CNVShift        .... on
   Level shift para.    LevelShift      ....    0.2500
   Turn off err/grad.   ShiftErr        ....    0.0010
 Zerner damping         CNVZerner       .... off
 Static damping         CNVDamp         .... on
   Fraction old density DampFac         ....    0.7000
   Max. Damping (<1)    DampMax         ....    0.9800
   Min. Damping (>=0)   DampMin         ....    0.0000
   Turn off err/grad.   DampErr         ....    0.1000
 Fernandez-Rico         CNVRico         .... off

SCF Procedure:
 Maximum # iterations   MaxIter         ....   125
 SCF integral mode      SCFMode         .... Direct
   Integral package                     .... LIBINT
 Reset frequency        DirectResetFreq ....    20
 Integral Threshold     Thresh          ....  2.500e-11 Eh
 Primitive CutOff       TCut            ....  2.500e-12 Eh

Convergence Tolerance:
 Convergence Check Mode ConvCheckMode   .... Total+1el-Energy
 Convergence forced     ConvForced      .... 0
 Energy Change          TolE            ....  1.000e-08 Eh
 1-El. energy change                    ....  1.000e-05 Eh
 Orbital Gradient       TolG            ....  1.000e-05
 Orbital Rotation angle TolX            ....  1.000e-05
 DIIS Error             TolErr          ....  5.000e-07


Diagonalization of the overlap matrix:
Smallest eigenvalue                        ... 1.650e-03
Time for diagonalization                   ...    0.002 sec
Threshold for overlap eigenvalues          ... 1.000e-08
Number of eigenvalues below threshold      ... 0
Time for construction of square roots      ...    0.003 sec
Total time needed                          ...    0.006 sec

---------------------
INITIAL GUESS: MOREAD
---------------------
Guess MOs are being read from file: 3_geo_opt.gbw
Input Geometry matches current geometry (good)
Input basis set matches current basis set (good)
MOs were renormalized
MOs were reorthogonalized (Cholesky)
                      ------------------
                      INITIAL GUESS DONE (   0.0 sec)
                      ------------------
-------------------
DFT GRID GENERATION
-------------------

General Integration Accuracy     IntAcc      ...  5.010
Radial Grid Type                 RadialGrid  ... Gauss-Chebyshev
Angular Grid (max. acc.)         AngularGrid ... Lebedev-434
Angular grid pruning method      GridPruning ... 3 (G Style)
Weight generation scheme         WeightScheme... Becke
Basis function cutoff            BFCut       ...    1.0000e-11
Integration weight cutoff        WCut        ...    1.0000e-14
Grids for H and He will be reduced by one unit

# of grid points (after initial pruning)     ...  48308 (   0.0 sec)
# of grid points (after weights+screening)   ...  46677 (   0.0 sec)
nearest neighbour list constructed           ...    0.0 sec
Grid point re-assignment to atoms done       ...    0.0 sec
Grid point division into batches done        ...    0.3 sec
Reduced shell lists constructed in    0.3 sec

Total number of grid points                  ...    46677
Total number of batches                      ...      733
Average number of points per batch           ...       63
Average number of grid points per atom       ...     7780
Average number of shells per batch           ...    33.12 (87.16%)
Average number of basis functions per batch  ...    76.78 (89.28%)
Average number of large shells per batch     ...    30.62 (92.46%)
Average number of large basis fcns per batch ...    72.25 (94.10%)
Maximum spatial batch extension              ...  15.76, 14.98, 16.58 au
Average spatial batch extension              ...   0.40,  0.40,  0.43 au

Time for grid setup =    0.391 sec

--------------
SCF ITERATIONS
--------------
ITER       Energy         Delta-E        Max-DP      RMS-DP      [F,P]     Damp
               ***  Starting incremental Fock matrix formation  ***
                      *** Initiating the SOSCF procedure ***
                      *** Re-Reading the Fockian *** 
                      *** Removing any level shift *** 
ITER      Energy       Delta-E        Grad      Rot      Max-DP    RMS-DP
  0   -115.73770364 -115.7377036384  0.000014  0.000014  0.000033  0.000001
               *** Restarting incremental Fock matrix formation ***
  1   -115.73770365  -0.0000000120  0.000007  0.000009  0.000012  0.000001
                  ***Gradient check signals convergence***
              ***Rediagonalizing the Fockian in SOSCF/NRSCF***

               *****************************************************
               *                     SUCCESS                       *
               *           SCF CONVERGED AFTER   2 CYCLES          *
               *****************************************************

Setting up the final grid:

General Integration Accuracy     IntAcc      ...  5.340
Radial Grid Type                 RadialGrid  ... Gauss-Chebyshev
Angular Grid (max. acc.)         AngularGrid ... Lebedev-590
Angular grid pruning method      GridPruning ... 3 (G Style)
Weight generation scheme         WeightScheme... Becke
Basis function cutoff            BFCut       ...    1.0000e-11
Integration weight cutoff        WCut        ...    1.0000e-14
Grids for H and He will be reduced by one unit

# of grid points (after initial pruning)     ...  77324 (   0.0 sec)
# of grid points (after weights+screening)   ...  74510 (   0.0 sec)
nearest neighbour list constructed           ...    0.0 sec
Grid point re-assignment to atoms done       ...    0.0 sec
Grid point division into batches done        ...    0.8 sec
Reduced shell lists constructed in    0.8 sec

Total number of grid points                  ...    74510
Total number of batches                      ...     1167
Average number of points per batch           ...       63
Average number of grid points per atom       ...    12418
Average number of shells per batch           ...    32.94 (86.67%)
Average number of basis functions per batch  ...    76.37 (88.80%)
Average number of large shells per batch     ...    30.32 (92.07%)
Average number of large basis fcns per batch ...    71.51 (93.64%)
Maximum spatial batch extension              ...  13.18, 14.25, 15.48 au
Average spatial batch extension              ...   0.34,  0.36,  0.37 au

Final grid set up in    0.9 sec
Final integration                            ... done (   0.2 sec)
Change in XC energy                          ...    -0.000107548
Integrated number of electrons               ...    18.000000746
Previous integrated no of electrons          ...    18.000002273

----------------
TOTAL SCF ENERGY
----------------

Total Energy       :         -115.73781120 Eh           -3149.38595 eV

Components:
Nuclear Repulsion  :           40.43828262 Eh            1100.38161 eV
Electronic Energy  :         -156.17609382 Eh           -4249.76757 eV
One Electron Energy:         -237.29607485 Eh           -6457.15447 eV
Two Electron Energy:           81.11998102 Eh            2207.38691 eV

Virial components:
Potential Energy   :         -230.98857899 Eh           -6285.51878 eV
Kinetic Energy     :          115.25076779 Eh            3136.13283 eV
Virial Ratio       :            2.00422595


DFT components:
N(Alpha)           :        9.000000373069 electrons
N(Beta)            :        9.000000373069 electrons
N(Total)           :       18.000000746138 electrons
E(XC)              :      -10.655634869017 Eh       
DFET-embed. en.    :        0.000000000000 Eh       

---------------
SCF CONVERGENCE
---------------

  Last Energy change         ...   -1.6826e-09  Tolerance :   1.0000e-08
  Last MAX-Density change    ...    4.7907e-06  Tolerance :   1.0000e-07
  Last RMS-Density change    ...    2.8754e-07  Tolerance :   5.0000e-09
  Last Orbital Gradient      ...    2.4474e-06  Tolerance :   1.0000e-05
  Last Orbital Rotation      ...    4.4431e-06  Tolerance :   1.0000e-05

             **** THE GBW FILE WAS UPDATED (3_geo_opt.gbw) ****
             **** DENSITY FILE WAS UPDATED (3_geo_opt.scfp.tmp) ****
             **** ENERGY FILE WAS UPDATED (3_geo_opt.en.tmp) ****
----------------
ORBITAL ENERGIES
----------------

  NO   OCC          E(Eh)            E(eV) 
   0   2.0000     -19.228037      -523.2215 
   1   2.0000     -10.315116      -280.6886 
   2   2.0000      -1.136762       -30.9329 
   3   2.0000      -0.795325       -21.6419 
   4   2.0000      -0.611606       -16.6426 
   5   2.0000      -0.541712       -14.7407 
   6   2.0000      -0.526323       -14.3220 
   7   2.0000      -0.433862       -11.8060 
   8   2.0000      -0.373552       -10.1649 
   9   0.0000       0.116618         3.1733 
  10   0.0000       0.156726         4.2647 
  11   0.0000       0.202547         5.5116 
  12   0.0000       0.205086         5.5807 
  13   0.0000       0.226396         6.1605 
  14   0.0000       0.304300         8.2804 
  15   0.0000       0.313261         8.5243 
  16   0.0000       0.404497        11.0069 
  17   0.0000       0.452619        12.3164 
  18   0.0000       0.485078        13.1997 
  19   0.0000       0.535789        14.5796 
  20   0.0000       0.543596        14.7920 
  21   0.0000       0.567746        15.4492 
  22   0.0000       0.598515        16.2864 
  23   0.0000       0.603368        16.4185 
  24   0.0000       0.671357        18.2686 
  25   0.0000       0.779215        21.2035 
  26   0.0000       0.832304        22.6481 
  27   0.0000       0.861262        23.4361 
  28   0.0000       0.989487        26.9253 
  29   0.0000       1.013904        27.5897 
  30   0.0000       1.109771        30.1984 
  31   0.0000       1.382702        37.6252 
  32   0.0000       1.512668        41.1618 
  33   0.0000       1.553492        42.2727 
  34   0.0000       1.602953        43.6186 
  35   0.0000       1.613122        43.8953 
  36   0.0000       1.623860        44.1875 
  37   0.0000       1.660471        45.1837 
  38   0.0000       1.688131        45.9364 
  39   0.0000       1.774412        48.2842 
  40   0.0000       1.952125        53.1200 
  41   0.0000       2.030688        55.2578 
  42   0.0000       2.055046        55.9206 
  43   0.0000       2.094588        56.9966 
  44   0.0000       2.114692        57.5437 
  45   0.0000       2.268537        61.7300 
  46   0.0000       2.333543        63.4989 
  47   0.0000       2.345286        63.8185 
  48   0.0000       2.380874        64.7869 
  49   0.0000       2.429815        66.1186 
  50   0.0000       2.497024        67.9475 
  51   0.0000       2.596712        70.6601 
  52   0.0000       2.639480        71.8239 
  53   0.0000       2.707294        73.6692 
  54   0.0000       2.841568        77.3230 
  55   0.0000       2.871486        78.1371 
  56   0.0000       2.888512        78.6004 
  57   0.0000       2.993144        81.4476 
  58   0.0000       3.096097        84.2491 
  59   0.0000       3.172805        86.3364 
  60   0.0000       3.299884        89.7944 
  61   0.0000       3.409012        92.7639 
  62   0.0000       3.441661        93.6523 
  63   0.0000       3.487906        94.9108 
  64   0.0000       3.612888        98.3117 
  65   0.0000       3.645326        99.1944 
  66   0.0000       3.666626        99.7740 
  67   0.0000       4.005527       108.9959 
  68   0.0000       4.224262       114.9480 
  69   0.0000       4.272579       116.2628 
  70   0.0000       4.456139       121.2577 
  71   0.0000       4.564473       124.2056 
  72   0.0000       5.346083       145.4743 
  73   0.0000       5.425294       147.6298 
  74   0.0000       5.554453       151.1444 
  75   0.0000       5.826019       158.5340 
  76   0.0000       5.834042       158.7524 
  77   0.0000       5.985429       162.8718 
  78   0.0000       6.379668       173.5996 
  79   0.0000       6.531083       177.7198 
  80   0.0000       6.745030       183.5416 
  81   0.0000       6.804089       185.1487 
  82   0.0000       7.039460       191.5535 
  83   0.0000       7.216011       196.3577 
  84   0.0000      22.405934       609.6965 
  85   0.0000      43.664378      1188.1681 

                    ********************************
                    * MULLIKEN POPULATION ANALYSIS *
                    ********************************

-----------------------
MULLIKEN ATOMIC CHARGES
-----------------------
   0 C :   -0.150767
   1 O :   -0.477703
   2 H :    0.312973
   3 H :    0.098562
   4 H :    0.118275
   5 H :    0.098661
Sum of atomic charges:   -0.0000000

--------------------------------
MULLIKEN REDUCED ORBITAL CHARGES
--------------------------------
  0 C s       :     3.223185  s :     3.223185
      pz      :     1.047465  p :     2.825931
      px      :     0.702164
      py      :     1.076302
      dz2     :     0.011136  d :     0.094231
      dxz     :     0.032465
      dyz     :     0.002623
      dx2y2   :     0.012779
      dxy     :     0.035227
      f0      :     0.001356  f :     0.007420
      f+1     :     0.000955
      f-1     :     0.000175
      f+2     :     0.001466
      f-2     :     0.000121
      f+3     :     0.001360
      f-3     :     0.001987
  1 O s       :     3.792773  s :     3.792773
      pz      :     1.759378  p :     4.652669
      px      :     1.313664
      py      :     1.579626
      dz2     :     0.003136  d :     0.030575
      dxz     :     0.006478
      dyz     :     0.005835
      dx2y2   :     0.008936
      dxy     :     0.006190
      f0      :     0.000269  f :     0.001685
      f+1     :     0.000233
      f-1     :     0.000087
      f+2     :     0.000287
      f-2     :     0.000235
      f+3     :     0.000367
      f-3     :     0.000206
  2 H s       :     0.639334  s :     0.639334
      pz      :     0.017007  p :     0.047694
      px      :     0.012720
      py      :     0.017966
  3 H s       :     0.882076  s :     0.882076
      pz      :     0.012071  p :     0.019363
      px      :     0.003007
      py      :     0.004284
  4 H s       :     0.861507  s :     0.861507
      pz      :     0.006291  p :     0.020218
      px      :     0.004185
      py      :     0.009742
  5 H s       :     0.881979  s :     0.881979
      pz      :     0.004922  p :     0.019360
      px      :     0.004968
      py      :     0.009470


                     *******************************
                     * LOEWDIN POPULATION ANALYSIS *
                     *******************************

----------------------
LOEWDIN ATOMIC CHARGES
----------------------
   0 C :   -0.385020
   1 O :   -0.076201
   2 H :    0.165744
   3 H :    0.093388
   4 H :    0.108695
   5 H :    0.093394

-------------------------------
LOEWDIN REDUCED ORBITAL CHARGES
-------------------------------
  0 C s       :     2.863015  s :     2.863015
      pz      :     1.096817  p :     3.052121
      px      :     0.846050
      py      :     1.109253
      dz2     :     0.072473  d :     0.412860
      dxz     :     0.113925
      dyz     :     0.020653
      dx2y2   :     0.082263
      dxy     :     0.123547
      f0      :     0.007826  f :     0.057023
      f+1     :     0.007163
      f-1     :     0.000855
      f+2     :     0.012533
      f-2     :     0.004805
      f+3     :     0.011736
      f-3     :     0.012106
  1 O s       :     3.366307  s :     3.366307
      pz      :     1.699041  p :     4.633689
      px      :     1.381208
      py      :     1.553439
      dz2     :     0.006134  d :     0.071561
      dxz     :     0.017864
      dyz     :     0.008087
      dx2y2   :     0.019338
      dxy     :     0.020138
      f0      :     0.000483  f :     0.004644
      f+1     :     0.000622
      f-1     :     0.000072
      f+2     :     0.001050
      f-2     :     0.000560
      f+3     :     0.000890
      f-3     :     0.000966
  2 H s       :     0.675166  s :     0.675166
      pz      :     0.055761  p :     0.159090
      px      :     0.033909
      py      :     0.069420
  3 H s       :     0.846800  s :     0.846800
      pz      :     0.036179  p :     0.059812
      px      :     0.009713
      py      :     0.013921
  4 H s       :     0.831706  s :     0.831706
      pz      :     0.019197  p :     0.059599
      px      :     0.011591
      py      :     0.028811
  5 H s       :     0.846779  s :     0.846779
      pz      :     0.015594  p :     0.059827
      px      :     0.015185
      py      :     0.029049


                      *****************************
                      * MAYER POPULATION ANALYSIS *
                      *****************************

  NA   - Mulliken gross atomic population
  ZA   - Total nuclear charge
  QA   - Mulliken gross atomic charge
  VA   - Mayer's total valence
  BVA  - Mayer's bonded valence
  FA   - Mayer's free valence

  ATOM       NA         ZA         QA         VA         BVA        FA
  0 C      6.1508     6.0000    -0.1508     3.9349     3.9349     0.0000
  1 O      8.4777     8.0000    -0.4777     1.8879     1.8879    -0.0000
  2 H      0.6870     1.0000     0.3130     0.9136     0.9136     0.0000
  3 H      0.9014     1.0000     0.0986     0.9595     0.9595     0.0000
  4 H      0.8817     1.0000     0.1183     0.9598     0.9598     0.0000
  5 H      0.9013     1.0000     0.0987     0.9597     0.9597    -0.0000

  Mayer bond orders larger than 0.1
B(  0-C ,  1-O ) :   0.9985 B(  0-C ,  3-H ) :   0.9755 B(  0-C ,  4-H ) :   0.9749 
B(  0-C ,  5-H ) :   0.9755 B(  1-O ,  2-H ) :   0.9002 

-------
TIMINGS
-------

Total SCF time: 0 days 0 hours 0 min 3 sec 

Total time                  ....       3.632 sec
Sum of individual times     ....       3.335 sec  ( 91.8%)

Fock matrix formation       ....       1.983 sec  ( 54.6%)
  XC integration            ....       0.642 sec  ( 32.4% of F)
    Basis function eval.    ....       0.141 sec  ( 22.0% of XC)
    Density eval.           ....       0.087 sec  ( 13.6% of XC)
    XC-Functional eval.     ....       0.222 sec  ( 34.5% of XC)
    XC-Potential eval.      ....       0.091 sec  ( 14.2% of XC)
Diagonalization             ....       0.005 sec  (  0.2%)
Density matrix formation    ....       0.014 sec  (  0.4%)
Population analysis         ....       0.021 sec  (  0.6%)
Initial guess               ....       0.003 sec  (  0.1%)
Orbital Transformation      ....       0.000 sec  (  0.0%)
Orbital Orthonormalization  ....       0.002 sec  (  0.0%)
DIIS solution               ....       0.000 sec  (  0.0%)
SOSCF solution              ....       0.005 sec  (  0.1%)
Grid generation             ....       1.303 sec  ( 35.9%)


-------------------------------------------------------------------------------
                          DFT DISPERSION CORRECTION                            
                                                                               
                              DFTD3 V3.1  Rev 1                                
                              USING zero damping                               
-------------------------------------------------------------------------------
The omegaB97X-D3 functional is recognized. Fit by Chai et al.
Active option DFTDOPT                   ...         3   

molecular C6(AA) [au] = 208.715727 


            DFT-D V3
 parameters
 s6 scaling factor         :     1.0000 
 rs6 scaling factor        :     1.2810 
 s8 scaling factor         :     1.0000 
 rs8 scaling factor        :     1.0940 
 Damping factor alpha6     :    14.0000 
 Damping factor alpha8     :    16.0000 
 ad hoc parameters k1-k3   :    16.0000     1.3333    -4.0000 

 Edisp/kcal,au: -0.150019220639  -0.000239070820 
 E6   /kcal   :  -0.029579112 
 E8   /kcal   :  -0.120440109 
 % E8         :  80.283118768 

-------------------------   ----------------
Dispersion correction           -0.000239071
-------------------------   ----------------


-------------------------   --------------------
FINAL SINGLE POINT ENERGY      -115.738050270766
-------------------------   --------------------

                                *** OPTIMIZATION RUN DONE ***

                            ***************************************
                            *     ORCA property calculations      *
                            ***************************************

                                    ---------------------
                                    Active property flags
                                    ---------------------
   (+) Dipole Moment


------------------------------------------------------------------------------
                       ORCA ELECTRIC PROPERTIES CALCULATION
------------------------------------------------------------------------------

Dipole Moment Calculation                       ... on
Quadrupole Moment Calculation                   ... off
Polarizability Calculation                      ... off
GBWName                                         ... 3_geo_opt.gbw
Electron density file                           ... 3_geo_opt.scfp.tmp
The origin for moment calculation is the CENTER OF MASS  = ( 7.033475, -2.140016  1.369207)

-------------
DIPOLE MOMENT
-------------
                                X             Y             Z
Electronic contribution:      1.75419      -0.02816       0.42143
Nuclear contribution   :     -2.06401       0.47567      -0.81938
                        -----------------------------------------
Total Dipole Moment    :     -0.30982       0.44751      -0.39796
                        -----------------------------------------
Magnitude (a.u.)       :      0.67426
Magnitude (Debye)      :      1.71383



--------------------
Rotational spectrum 
--------------------
 
Rotational constants in cm-1:     4.291497     0.833924     0.804902 
Rotational constants in MHz : 128655.847744 25000.413634 24130.360661 

 Dipole components along the rotational axes: 
x,y,z [a.u.] :    -0.332975     0.586300     0.002433 
x,y,z [Debye]:    -0.846356     1.490255     0.006183 

 
------------------------------------------------------------------------------
                      ORCA CHELPG CHARGES GENERATION
------------------------------------------------------------------------------

GBW file                           ... 3_geo_opt.gbw

Reading the GBW file               ... done

Grid spacing                       ...     0.300000
Point Cut-Off                      ...     2.800000
Van-der-Waals Radii                ...        COSMO
Total charge                       ...            0


Number of points X direction       ...           26
Number of points Y direction       ...           24
Number of points Z direction       ...           24
Maximum number of possible points  ...        14976
Final number of points             ...         5945


CHELPG Charges            
--------------------------------
  0   C   :       0.091208
  1   O   :      -0.606408
  2   H   :       0.403829
  3   H   :       0.015198
  4   H   :       0.081696
  5   H   :       0.014478
--------------------------------
Total charge:     0.000000
--------------------------------

CHELPG charges calculated...

Timings for individual parts in CHELPG calculation:
Grid generation                 ...        0.001 sec (=   0.000 min)
Potential calculation           ...        0.631 sec (=   0.011 min)
Fit to the potential            ...        0.004 sec (=   0.000 min)
------------------------------------------------------------------------------


Timings for individual modules:

Sum of individual times         ...       31.259 sec (=   0.521 min)
GTO integral calculation        ...        5.373 sec (=   0.090 min)  17.2 %
SCF iterations                  ...       17.603 sec (=   0.293 min)  56.3 %
SCF Gradient evaluation         ...        4.276 sec (=   0.071 min)  13.7 %
Geometry relaxation             ...        3.075 sec (=   0.051 min)   9.8 %
CHELPG charge generation        ...        0.932 sec (=   0.016 min)   3.0 %
                             ****ORCA TERMINATED NORMALLY****
TOTAL RUN TIME: 0 days 0 hours 0 minutes 35 seconds 401 msec
