
                                 *****************
                                 * O   R   C   A *
                                 *****************

           --- An Ab Initio, DFT and Semiempirical electronic structure package ---

                  #######################################################
                  #                        -***-                        #
                  #          Department of theory and spectroscopy      #
                  #               Directorship: Frank Neese             #
                  #        Max Planck Institute fuer Kohlenforschung    #
                  #                Kaiser Wilhelm Platz 1               #
                  #                 D-45470 Muelheim/Ruhr               #
                  #                      Germany                        #
                  #                                                     #
                  #                  All rights reserved                #
                  #                        -***-                        #
                  #######################################################


                         Program Version 4.1.2  - RELEASE  -


 With contributions from (in alphabetic order):
   Daniel Aravena         : Magnetic Properties
   Michael Atanasov       : Ab Initio Ligand Field Theory
   Alexander A. Auer      : GIAO ZORA
   Ute Becker             : Parallelization
   Giovanni Bistoni       : ED, Open-shell LED
   Martin Brehm           : Molecular dynamics
   Dmytro Bykov           : SCF Hessian
   Vijay G. Chilkuri      : MRCI spin determinant printing
   Dipayan Datta          : RHF DLPNO-CCSD density
   Achintya Kumar Dutta   : EOM-CC, STEOM-CC
   Dmitry Ganyushin       : Spin-Orbit,Spin-Spin,Magnetic field MRCI
   Miquel Garcia          : C-PCM Hessian
   Yang Guo               : DLPNO-NEVPT2, CIM, IAO-localization
   Andreas Hansen         : Spin unrestricted coupled pair/coupled cluster methods
   Benjamin Helmich-Paris : CASSCF linear response (MC-RPA)
   Lee Huntington         : MR-EOM, pCC
   Robert Izsak           : Overlap fitted RIJCOSX, COSX-SCS-MP3, EOM
   Christian Kollmar      : KDIIS, OOCD, Brueckner-CCSD(T), CCSD density
   Simone Kossmann        : Meta GGA functionals, TD-DFT gradient, OOMP2, MP2 Hessian
   Martin Krupicka        : AUTO-CI
   Lucas Lang             : DCDCAS
   Dagmar Lenk            : GEPOL surface, SMD
   Dimitrios Liakos       : Extrapolation schemes; parallel MDCI
   Dimitrios Manganas     : ROCIS; embedding schemes
   Dimitrios Pantazis     : SARC Basis sets
   Taras Petrenko         : DFT Hessian,TD-DFT gradient, ASA, ECA, R-Raman, ABS, FL, XAS/XES, NRVS
   Peter Pinski           : DLPNO-MP2, DLPNO-MP2 Gradient
   Christoph Reimann      : Effective Core Potentials
   Marius Retegan         : Local ZFS, SOC
   Christoph Riplinger    : Optimizer, TS searches, QM/MM, DLPNO-CCSD(T), (RO)-DLPNO pert. Triples
   Tobias Risthaus        : Range-separated hybrids, TD-DFT gradient, RPA, STAB
   Michael Roemelt        : Restricted open shell CIS
   Masaaki Saitow         : Open-shell DLPNO
   Barbara Sandhoefer     : DKH picture change effects
   Avijit Sen             : IP-ROCIS
   Kantharuban Sivalingam : CASSCF convergence, NEVPT2, FIC-MRCI
   Bernardo de Souza      : ESD, SOC TD-DFT
   Georgi Stoychev        : AutoAux, RI-MP2 NMR
   Willem Van den Heuvel  : Paramagnetic NMR
   Boris Wezisla          : Elementary symmetry handling
   Frank Wennmohs         : Technical directorship


 We gratefully acknowledge several colleagues who have allowed us to
 interface, adapt or use parts of their codes:
   Stefan Grimme, W. Hujo, H. Kruse,             : VdW corrections, initial TS optimization,
                  C. Bannwarth                     DFT functionals, gCP, sTDA/sTD-DF
   Ed Valeev                                     : LibInt (2-el integral package), F12 methods
   Garnet Chan, S. Sharma, J. Yang, R. Olivares  : DMRG
   Ulf Ekstrom                                   : XCFun DFT Library
   Mihaly Kallay                                 : mrcc  (arbitrary order and MRCC methods)
   Andreas Klamt, Michael Diedenhofen            : otool_cosmo (COSMO solvation model)
   Jiri Pittner, Ondrej Demel                    : Mk-CCSD
   Frank Weinhold                                : gennbo (NPA and NBO analysis)
   Christopher J. Cramer and Donald G. Truhlar   : smd solvation model
   Lars Goerigk                                  : TD-DFT with DH, B97 family of functionals
   V. Asgeirsson, H. Jonsson                     : NEB implementation
   FAccTs GmbH                                   : IRC, NEB, NEB-TS, Multilevel


 Your calculation uses the libint2 library for the computation of 2-el integrals
 For citations please refer to: http://libint.valeyev.net

 This ORCA versions uses:
   CBLAS   interface :  Fast vector & matrix operations
   LAPACKE interface :  Fast linear algebra routines
   SCALAPACK package :  Parallel linear algebra routines


Your calculation utilizes the atom-pairwise dispersion correction
with the zero-damping scheme (D30)
Cite in your paper:
S.Grimme, J.Antony, S.Ehrlich and H.Krieg, J.Chem.Phys., 132, (2010), 154104 
   

XCFun DFT library Copyright 2009-2010 Ulf Ekstrom and contributors.
See http://admol.org/xcfun for more information. This is free soft-
ware; see the source code for copying conditions. There is ABSOLUTELY
NO WARRANTY; not even for MERCHANTABILITY or FITNESS FOR A PARTICULAR
PURPOSE. For details see the documentation. Scientific users of this 
library should cite U. Ekstrom, L. Visscher, R. Bast, A. J. Thorvald-
sen and K. Ruud; J.Chem.Theor.Comp. 2010, DOI: 10.1021/ct100117s
XCFun Version 0.99 
----- Orbital basis set information -----
Your calculation utilizes the basis: def2-TZVP
   F. Weigend and R. Ahlrichs, Phys. Chem. Chem. Phys. 7, 3297 (2005).

================================================================================
                                        WARNINGS
                       Please study these warnings very carefully!
================================================================================


INFO   : the flag for use of LIBINT has been found!

Your calculation utilizes the atom-pairwise dispersion correction
with the zero-damping scheme (D30)
Cite in your paper:
S.Grimme, J.Antony, S.Ehrlich and H.Krieg, J.Chem.Phys., 132, (2010), 154104 
   

XCFun DFT library Copyright 2009-2010 Ulf Ekstrom and contributors.
See http://admol.org/xcfun for more information. This is free soft-
ware; see the source code for copying conditions. There is ABSOLUTELY
NO WARRANTY; not even for MERCHANTABILITY or FITNESS FOR A PARTICULAR
PURPOSE. For details see the documentation. Scientific users of this 
library should cite U. Ekstrom, L. Visscher, R. Bast, A. J. Thorvald-
sen and K. Ruud; J.Chem.Theor.Comp. 2010, DOI: 10.1021/ct100117s
XCFun Version 0.99 
----- Orbital basis set information -----
Your calculation utilizes the basis: def2-TZVP
   F. Weigend and R. Ahlrichs, Phys. Chem. Chem. Phys. 7, 3297 (2005).

================================================================================
                                        WARNINGS
                       Please study these warnings very carefully!
================================================================================


WARNING: MOInp is set but Guess=PModel. MOInp will be ignored!
         To read the initial guess from a file you must also specify
         'MORead' in the simple input or 'Guess MORead' in the %scf block


INFO   : the flag for use of LIBINT has been found!

Your calculation utilizes the atom-pairwise dispersion correction
with the zero-damping scheme (D30)
Cite in your paper:
S.Grimme, J.Antony, S.Ehrlich and H.Krieg, J.Chem.Phys., 132, (2010), 154104 
   

XCFun DFT library Copyright 2009-2010 Ulf Ekstrom and contributors.
See http://admol.org/xcfun for more information. This is free soft-
ware; see the source code for copying conditions. There is ABSOLUTELY
NO WARRANTY; not even for MERCHANTABILITY or FITNESS FOR A PARTICULAR
PURPOSE. For details see the documentation. Scientific users of this 
library should cite U. Ekstrom, L. Visscher, R. Bast, A. J. Thorvald-
sen and K. Ruud; J.Chem.Theor.Comp. 2010, DOI: 10.1021/ct100117s
XCFun Version 0.99 
----- Orbital basis set information -----
Your calculation utilizes the basis: def2-TZVP
   F. Weigend and R. Ahlrichs, Phys. Chem. Chem. Phys. 7, 3297 (2005).

================================================================================
                                        WARNINGS
                       Please study these warnings very carefully!
================================================================================


WARNING: MOInp is set but Guess=PModel. MOInp will be ignored!
         To read the initial guess from a file you must also specify
         'MORead' in the simple input or 'Guess MORead' in the %scf block


INFO   : the flag for use of LIBINT has been found!

================================================================================
                                       INPUT FILE
================================================================================
NAME = 16-8.in
|  1> #Run DFT-D3 single point of the dimer
|  2> ! wB97X-D3 def2-TZVP TIGHTSCF CHELPG PMODEL PAL8
|  3> 
|  4> %base "16-8_DFT_AB"
|  5> 
|  6> %scf
|  7> MaxIter 1000
|  8> end
|  9> 
| 10> * xyz 0 1
| 11>   C                      -3.613576            2.949622             3.934506            
| 12>   O                      -3.601508            3.698823             5.159507            
| 13>   H                      -2.638820            3.713132             5.390762            
| 14>   H                      -2.909974            3.467466             3.239017            
| 15>   H                      -3.265800            1.935287             3.994618            
| 16>   H                      -4.596142            2.930245             3.440482            
| 17>   C                      -6.937713            2.373086             6.655401            
| 18>   O                      -5.794244            1.905989             5.977256            
| 19>   H                      -5.128187            2.605545             6.038818            
| 20>   H                      -6.876055            2.211186             7.722361            
| 21>   H                      -7.201990            3.407024             6.351372            
| 22>   H                      -7.791973            1.711379             6.400325            
| 23> *
| 24> 
| 25> #Run DFT-D3 single point of the molecule with dimer basis set
| 26> $new_job
| 27> %base "16-8_DFT_A"
| 28> ! wB97X-D3 def2-TZVP TIGHTSCF CHELPG PMODEL
| 29> 
| 30> %scf
| 31> MaxIter 1000
| 32> end
| 33> 
| 34> * xyz 0 1
| 35>   C                      -3.613576            2.949622             3.934506            
| 36>   O                      -3.601508            3.698823             5.159507            
| 37>   H                      -2.638820            3.713132             5.390762            
| 38>   H                      -2.909974            3.467466             3.239017            
| 39>   H                      -3.265800            1.935287             3.994618            
| 40>   H                      -4.596142            2.930245             3.440482            
| 41>   C                    : -6.937713            2.373086             6.655401            
| 42>   O                    : -5.794244            1.905989             5.977256            
| 43>   H                    : -5.128187            2.605545             6.038818            
| 44>   H                    : -6.876055            2.211186             7.722361            
| 45>   H                    : -7.201990            3.407024             6.351372            
| 46>   H                    : -7.791973            1.711379             6.400325            
| 47> *
| 48> 
| 49> #Run DFT-D3 single point of the particle with dimer basis set
| 50> $new_job
| 51> %base "16-8_DFT_B"
| 52> ! wB97X-D3 def2-TZVP TIGHTSCF CHELPG PMODEL
| 53> 
| 54> %scf
| 55> MaxIter 1000
| 56> end
| 57> 
| 58> * xyz 0 1
| 59>   C                    : -3.613576            2.949622             3.934506            
| 60>   O                    : -3.601508            3.698823             5.159507            
| 61>   H                    : -2.638820            3.713132             5.390762            
| 62>   H                    : -2.909974            3.467466             3.239017            
| 63>   H                    : -3.265800            1.935287             3.994618            
| 64>   H                    : -4.596142            2.930245             3.440482            
| 65>   C                      -6.937713            2.373086             6.655401            
| 66>   O                      -5.794244            1.905989             5.977256            
| 67>   H                      -5.128187            2.605545             6.038818            
| 68>   H                      -6.876055            2.211186             7.722361            
| 69>   H                      -7.201990            3.407024             6.351372            
| 70>   H                      -7.791973            1.711379             6.400325            
| 71> *
| 72> 
| 73>                          ****END OF INPUT****
================================================================================


                 $$$$$$$$$$$$$$$$$$$$$$$$$$$$$$$$$$$$$$$$$$$$$$ 
                 $ THERE ARE  3 JOBS TO BE PROCESSED THIS RUN $
                 $$$$$$$$$$$$$$$$$$$$$$$$$$$$$$$$$$$$$$$$$$$$$$ 




                 $$$$$$$$$$$$$$$$  JOB NUMBER  1 $$$$$$$$$$$$$$


                       ****************************
                       * Single Point Calculation *
                       ****************************

---------------------------------
CARTESIAN COORDINATES (ANGSTROEM)
---------------------------------
  C     -3.613576    2.949622    3.934506
  O     -3.601508    3.698823    5.159507
  H     -2.638820    3.713132    5.390762
  H     -2.909974    3.467466    3.239017
  H     -3.265800    1.935287    3.994618
  H     -4.596142    2.930245    3.440482
  C     -6.937713    2.373086    6.655401
  O     -5.794244    1.905989    5.977256
  H     -5.128187    2.605545    6.038818
  H     -6.876055    2.211186    7.722361
  H     -7.201990    3.407024    6.351372
  H     -7.791973    1.711379    6.400325

----------------------------
CARTESIAN COORDINATES (A.U.)
----------------------------
  NO LB      ZA    FRAG     MASS         X           Y           Z
   0 C     6.0000    0    12.011   -6.828669    5.573978    7.435139
   1 O     8.0000    0    15.999   -6.805864    6.989762    9.750055
   2 H     1.0000    0     1.008   -4.986647    7.016803   10.187064
   3 H     1.0000    0     1.008   -5.499054    6.552561    6.120855
   4 H     1.0000    0     1.008   -6.171468    3.657162    7.548734
   5 H     1.0000    0     1.008   -8.685450    5.537361    6.501569
   6 C     6.0000    0    12.011  -13.110378    4.484483   12.576885
   7 O     8.0000    0    15.999  -10.949534    3.601797   11.295377
   8 H     1.0000    0     1.008   -9.690869    4.923766   11.411712
   9 H     1.0000    0     1.008  -12.993861    4.178536   14.593147
  10 H     1.0000    0     1.008  -13.609789    6.438342   12.002354
  11 H     1.0000    0     1.008  -14.724695    3.234038   12.094861

--------------------------------
INTERNAL COORDINATES (ANGSTROEM)
--------------------------------
 C      0   0   0     0.000000000000     0.00000000     0.00000000
 O      1   0   0     1.435992766356     0.00000000     0.00000000
 H      2   1   0     0.990177664791   102.41221534     0.00000000
 H      1   2   3     1.116657123678   106.50344799   304.83664775
 H      1   2   3     1.073981885762   116.24981740    62.14036873
 H      1   2   3     1.099941418922   113.56834750   187.40416327
 C      2   1   3     3.889156882209    98.22500793   216.21401514
 O      7   2   1     1.409106668210    39.80560939    42.54928639
 H      8   7   2     0.967884499426   106.75218740    15.47104160
 H      7   2   1     1.080933374711   112.44427527   140.88753352
 H      7   2   1     1.109641272400    77.36693210   253.04138231
 H      7   2   1     1.110261260796   140.78896455   356.12816282

---------------------------
INTERNAL COORDINATES (A.U.)
---------------------------
 C      0   0   0     0.000000000000     0.00000000     0.00000000
 O      1   0   0     2.713633058704     0.00000000     0.00000000
 H      2   1   0     1.871164610380   102.41221534     0.00000000
 H      1   2   3     2.110176149244   106.50344799   304.83664775
 H      1   2   3     2.029531636883   116.24981740    62.14036873
 H      1   2   3     2.078588045120   113.56834750   187.40416327
 C      2   1   3     7.349441399229    98.22500793   216.21401514
 O      7   2   1     2.662825696400    39.80560939    42.54928639
 H      8   7   2     1.829036633182   106.75218740    15.47104160
 H      7   2   1     2.042668047219   112.44427527   140.88753352
 H      7   2   1     2.096918111732    77.36693210   253.04138231
 H      7   2   1     2.098089720007   140.78896455   356.12816282

---------------------
BASIS SET INFORMATION
---------------------
There are 3 groups of distinct atoms

 Group   1 Type C   : 11s6p2d1f contracted to 5s3p2d1f pattern {62111/411/11/1}
 Group   2 Type O   : 11s6p2d1f contracted to 5s3p2d1f pattern {62111/411/11/1}
 Group   3 Type H   : 5s1p contracted to 3s1p pattern {311/1}

Atom   0C    basis set group =>   1
Atom   1O    basis set group =>   2
Atom   2H    basis set group =>   3
Atom   3H    basis set group =>   3
Atom   4H    basis set group =>   3
Atom   5H    basis set group =>   3
Atom   6C    basis set group =>   1
Atom   7O    basis set group =>   2
Atom   8H    basis set group =>   3
Atom   9H    basis set group =>   3
Atom  10H    basis set group =>   3
Atom  11H    basis set group =>   3


           ************************************************************
           *        Program running with 8 parallel MPI-processes     *
           *              working on a common directory               *
           ************************************************************
------------------------------------------------------------------------------
                           ORCA GTO INTEGRAL CALCULATION
------------------------------------------------------------------------------

                         BASIS SET STATISTICS AND STARTUP INFO

 # of primitive gaussian shells          ...  128
 # of primitive gaussian functions       ...  248
 # of contracted shells                  ...   76
 # of contracted basis functions         ...  172
 Highest angular momentum                ...    3
 Maximum contraction depth               ...    6
 Integral package used                   ... LIBINT
 Integral threshhold            Thresh   ...  2.500e-11
 Primitive cut-off              TCut     ...  2.500e-12


------------------------------ INTEGRAL EVALUATION ----------------------------


 * One electron integrals 
 Pre-screening matrix                    ... done
 Shell pair data                         ... done (   0.001 sec)



           ************************************************************
           *        Program running with 8 parallel MPI-processes     *
           *              working on a common directory               *
           ************************************************************
-------------------------------------------------------------------------------
                                 ORCA SCF
-------------------------------------------------------------------------------

------------
SCF SETTINGS
------------
Hamiltonian:
 Density Functional     Method          .... DFT(GTOs)
 Exchange Functional    Exchange        .... WB97X-D3
 Correlation Functional Correlation     .... WB97X-D3
 Gradients option       PostSCFGGA      .... off
 Hybrid DFT is turned on
   Fraction HF Exchange ScalHFX         ....  0.195728
   Scaling of DF-GGA-X  ScalDFX         ....  0.000000
   Scaling of DF-GGA-C  ScalDFC         ....  1.000000
   Scaling of DF-LDA-C  ScalLDAC        ....  1.000000
   Perturbative correction              ....  0.000000
   Density functional embedding theory  .... OFF
 Long-range corrected/Screened/Range-Separated Hybrid DFT is turned on
   Amount of maximum screened exact exchange              ....  0.804272
   Range separation parameter mu (erf(mu*r12)/r12)        ....  0.250000


General Settings:
 Integral files         IntName         .... 16-8_DFT_AB
 Hartree-Fock type      HFTyp           .... RHF
 Total Charge           Charge          ....    0
 Multiplicity           Mult            ....    1
 Number of Electrons    NEL             ....   36
 Basis Dimension        Dim             ....  172
 Nuclear Repulsion      ENuc            ....    128.5077373203 Eh

Convergence Acceleration:
 DIIS                   CNVDIIS         .... on
   Start iteration      DIISMaxIt       ....    12
   Startup error        DIISStart       ....  0.200000
   # of expansion vecs  DIISMaxEq       ....     5
   Bias factor          DIISBfac        ....   1.050
   Max. coefficient     DIISMaxC        ....  10.000
 Newton-Raphson         CNVNR           .... off
 SOSCF                  CNVSOSCF        .... on
   Start iteration      SOSCFMaxIt      ....   150
   Startup grad/error   SOSCFStart      ....  0.003300
 Level Shifting         CNVShift        .... on
   Level shift para.    LevelShift      ....    0.2500
   Turn off err/grad.   ShiftErr        ....    0.0010
 Zerner damping         CNVZerner       .... off
 Static damping         CNVDamp         .... on
   Fraction old density DampFac         ....    0.7000
   Max. Damping (<1)    DampMax         ....    0.9800
   Min. Damping (>=0)   DampMin         ....    0.0000
   Turn off err/grad.   DampErr         ....    0.1000
 Fernandez-Rico         CNVRico         .... off

SCF Procedure:
 Maximum # iterations   MaxIter         ....  1000
 SCF integral mode      SCFMode         .... Direct
   Integral package                     .... LIBINT
 Reset frequency        DirectResetFreq ....    20
 Integral Threshold     Thresh          ....  2.500e-11 Eh
 Primitive CutOff       TCut            ....  2.500e-12 Eh

Convergence Tolerance:
 Convergence Check Mode ConvCheckMode   .... Total+1el-Energy
 Convergence forced     ConvForced      .... 0
 Energy Change          TolE            ....  1.000e-08 Eh
 1-El. energy change                    ....  1.000e-05 Eh
 Orbital Gradient       TolG            ....  1.000e-05
 Orbital Rotation angle TolX            ....  1.000e-05
 DIIS Error             TolErr          ....  5.000e-07


Diagonalization of the overlap matrix:
Smallest eigenvalue                        ... 1.498e-03
Time for diagonalization                   ...    0.005 sec
Threshold for overlap eigenvalues          ... 1.000e-08
Number of eigenvalues below threshold      ... 0
Time for construction of square roots      ...    0.005 sec
Total time needed                          ...    0.010 sec

-------------------
DFT GRID GENERATION
-------------------

General Integration Accuracy     IntAcc      ...  4.340
Radial Grid Type                 RadialGrid  ... Gauss-Chebyshev
Angular Grid (max. acc.)         AngularGrid ... Lebedev-110
Angular grid pruning method      GridPruning ... 3 (G Style)
Weight generation scheme         WeightScheme... Becke
Basis function cutoff            BFCut       ...    1.0000e-11
Integration weight cutoff        WCut        ...    1.0000e-14
Grids for H and He will be reduced by one unit

# of grid points (after initial pruning)     ...  13096 (   0.0 sec)
# of grid points (after weights+screening)   ...  12507 (   0.0 sec)
nearest neighbour list constructed           ...    0.0 sec
Grid point re-assignment to atoms done       ...    0.0 sec
Grid point division into batches done        ...    0.0 sec
Reduced shell lists constructed in    0.0 sec

Total number of grid points                  ...    12507
Total number of batches                      ...      200
Average number of points per batch           ...       62
Average number of grid points per atom       ...     1042
Average number of shells per batch           ...    55.65 (73.23%)
Average number of basis functions per batch  ...   125.42 (72.92%)
Average number of large shells per batch     ...    45.35 (81.48%)
Average number of large basis fcns per batch ...    99.88 (79.64%)
Maximum spatial batch extension              ...   5.85, 16.71, 13.33 au
Average spatial batch extension              ...   0.23,  0.30,  0.29 au

Time for grid setup =    0.039 sec

------------------------------
INITIAL GUESS: MODEL POTENTIAL
------------------------------
Loading Hartree-Fock densities                     ... done
Calculating cut-offs                               ... done
Setting up the integral package                    ... done
Initializing the effective Hamiltonian             ... done
Starting the Coulomb interaction                   ... done (   0.0 sec)
Reading the grid                                   ... done
Mapping shells                                     ... done
Starting the XC term evaluation                    ... done (   0.0 sec)
  promolecular density results
     # of electrons  =     36.003549715
     EX              =    -28.851363384
     EC              =     -1.154721030
     EX+EC           =    -30.006084414
Transforming the Hamiltonian                       ... done (   0.0 sec)
Diagonalizing the Hamiltonian                      ... done (   0.0 sec)
Back transforming the eigenvectors                 ... done (   0.0 sec)
Now organizing SCF variables                       ... done
                      ------------------
                      INITIAL GUESS DONE (   0.1 sec)
                      ------------------
--------------
SCF ITERATIONS
--------------
ITER       Energy         Delta-E        Max-DP      RMS-DP      [F,P]     Damp
               ***  Starting incremental Fock matrix formation  ***
  0   -231.3148264049   0.000000000000 0.03560454  0.00102847  0.2415353 0.7000
  1   -231.3826486723  -0.067822267413 0.02089236  0.00073275  0.1203813 0.7000
                               ***Turning on DIIS***
  2   -231.4141074378  -0.031458765470 0.03323529  0.00133567  0.0490462 0.0000
  3   -231.4653267313  -0.051219293595 0.01736026  0.00047821  0.0592425 0.0000
  4   -231.4735890319  -0.008262300512 0.00410129  0.00009454  0.0060123 0.0000
                      *** Initiating the SOSCF procedure ***
                           *** Shutting down DIIS ***
                      *** Re-Reading the Fockian *** 
                      *** Removing any level shift *** 
ITER      Energy       Delta-E        Grad      Rot      Max-DP    RMS-DP
  5   -231.47376548  -0.0001764509  0.000423  0.000423  0.000772  0.000033
               *** Restarting incremental Fock matrix formation ***
  6   -231.47378267  -0.0000171919  0.000118  0.000183  0.000500  0.000021
  7   -231.47378438  -0.0000017033  0.000046  0.000105  0.000267  0.000010
  8   -231.47378453  -0.0000001485  0.000025  0.000019  0.000042  0.000001
  9   -231.47378455  -0.0000000244  0.000010  0.000009  0.000017  0.000001
 10   -231.47378455  -0.0000000033  0.000004  0.000004  0.000006  0.000000
                  ***Gradient check signals convergence***
              ***Rediagonalizing the Fockian in SOSCF/NRSCF***

               *****************************************************
               *                     SUCCESS                       *
               *           SCF CONVERGED AFTER  11 CYCLES          *
               *****************************************************

Setting up the final grid:

General Integration Accuracy     IntAcc      ...  4.670
Radial Grid Type                 RadialGrid  ... Gauss-Chebyshev
Angular Grid (max. acc.)         AngularGrid ... Lebedev-302
Angular grid pruning method      GridPruning ... 3 (G Style)
Weight generation scheme         WeightScheme... Becke
Basis function cutoff            BFCut       ...    1.0000e-11
Integration weight cutoff        WCut        ...    1.0000e-14
Grids for H and He will be reduced by one unit

# of grid points (after initial pruning)     ...  52000 (   0.0 sec)
# of grid points (after weights+screening)   ...  49143 (   0.0 sec)
nearest neighbour list constructed           ...    0.0 sec
Grid point re-assignment to atoms done       ...    0.0 sec
Grid point division into batches done        ...    0.2 sec
Reduced shell lists constructed in    0.2 sec

Total number of grid points                  ...    49143
Total number of batches                      ...      775
Average number of points per batch           ...       63
Average number of grid points per atom       ...     4095
Average number of shells per batch           ...    55.03 (72.41%)
Average number of basis functions per batch  ...   122.54 (71.24%)
Average number of large shells per batch     ...    44.74 (81.31%)
Average number of large basis fcns per batch ...    98.89 (80.70%)
Maximum spatial batch extension              ...   6.71, 12.14, 11.33 au
Average spatial batch extension              ...   0.16,  0.18,  0.18 au

Final grid set up in    0.2 sec
Final integration                            ... done (   0.1 sec)
Change in XC energy                          ...    -0.000196090
Integrated number of electrons               ...    35.999975800
Previous integrated no of electrons          ...    35.999882032

----------------
TOTAL SCF ENERGY
----------------

Total Energy       :         -231.47398064 Eh           -6298.72723 eV

Components:
Nuclear Repulsion  :          128.50773732 Eh            3496.87331 eV
Electronic Energy  :         -359.98171796 Eh           -9795.60054 eV
One Electron Energy:         -569.96712464 Eh          -15509.59395 eV
Two Electron Energy:          209.98540668 Eh            5713.99341 eV

Virial components:
Potential Energy   :         -461.84827426 Eh          -12567.53046 eV
Kinetic Energy     :          230.37429361 Eh            6268.80323 eV
Virial Ratio       :            2.00477348


DFT components:
N(Alpha)           :       17.999987900121 electrons
N(Beta)            :       17.999987900121 electrons
N(Total)           :       35.999975800242 electrons
E(XC)              :      -21.285387297808 Eh       
DFET-embed. en.    :        0.000000000000 Eh       

---------------
SCF CONVERGENCE
---------------

  Last Energy change         ...   -7.0565e-10  Tolerance :   1.0000e-08
  Last MAX-Density change    ...    2.2808e-06  Tolerance :   1.0000e-07
  Last RMS-Density change    ...    9.4287e-08  Tolerance :   5.0000e-09
  Last Orbital Gradient      ...    1.1135e-06  Tolerance :   1.0000e-05
  Last Orbital Rotation      ...    2.0622e-06  Tolerance :   1.0000e-05

             **** THE GBW FILE WAS UPDATED (16-8_DFT_AB.gbw) ****
             **** DENSITY FILE WAS UPDATED (16-8_DFT_AB.scfp.tmp) ****
             **** ENERGY FILE WAS UPDATED (16-8_DFT_AB.en.tmp) ****
----------------
ORBITAL ENERGIES
----------------

  NO   OCC          E(Eh)            E(eV) 
   0   2.0000     -19.254349      -523.9375 
   1   2.0000     -19.210641      -522.7481 
   2   2.0000     -10.320939      -280.8470 
   3   2.0000     -10.300826      -280.2997 
   4   2.0000      -1.145911       -31.1818 
   5   2.0000      -1.117377       -30.4054 
   6   2.0000      -0.799251       -21.7487 
   7   2.0000      -0.778704       -21.1896 
   8   2.0000      -0.621277       -16.9058 
   9   2.0000      -0.590093       -16.0572 
  10   2.0000      -0.544876       -14.8268 
  11   2.0000      -0.536629       -14.6024 
  12   2.0000      -0.534188       -14.5360 
  13   2.0000      -0.507482       -13.8093 
  14   2.0000      -0.453704       -12.3459 
  15   2.0000      -0.415285       -11.3005 
  16   2.0000      -0.387147       -10.5348 
  17   2.0000      -0.357818        -9.7367 
  18   0.0000       0.098755         2.6873 
  19   0.0000       0.145002         3.9457 
  20   0.0000       0.149403         4.0655 
  21   0.0000       0.181509         4.9391 
  22   0.0000       0.198152         5.3920 
  23   0.0000       0.201179         5.4744 
  24   0.0000       0.213484         5.8092 
  25   0.0000       0.217904         5.9295 
  26   0.0000       0.228538         6.2188 
  27   0.0000       0.261461         7.1147 
  28   0.0000       0.309638         8.4257 
  29   0.0000       0.316852         8.6220 
  30   0.0000       0.333868         9.0850 
  31   0.0000       0.359320         9.7776 
  32   0.0000       0.389016        10.5857 
  33   0.0000       0.425130        11.5684 
  34   0.0000       0.435908        11.8617 
  35   0.0000       0.466463        12.6931 
  36   0.0000       0.492755        13.4086 
  37   0.0000       0.509064        13.8523 
  38   0.0000       0.529786        14.4162 
  39   0.0000       0.545977        14.8568 
  40   0.0000       0.551574        15.0091 
  41   0.0000       0.559900        15.2357 
  42   0.0000       0.566434        15.4135 
  43   0.0000       0.581236        15.8162 
  44   0.0000       0.606984        16.5169 
  45   0.0000       0.622607        16.9420 
  46   0.0000       0.643651        17.5146 
  47   0.0000       0.684630        18.6297 
  48   0.0000       0.687664        18.7123 
  49   0.0000       0.766465        20.8566 
  50   0.0000       0.773407        21.0455 
  51   0.0000       0.819869        22.3098 
  52   0.0000       0.833524        22.6813 
  53   0.0000       0.856774        23.3140 
  54   0.0000       0.877090        23.8668 
  55   0.0000       0.931808        25.3558 
  56   0.0000       0.996391        27.1132 
  57   0.0000       1.018719        27.7208 
  58   0.0000       1.045009        28.4361 
  59   0.0000       1.065754        29.0006 
  60   0.0000       1.097022        29.8515 
  61   0.0000       1.144925        31.1550 
  62   0.0000       1.386382        37.7254 
  63   0.0000       1.427520        38.8448 
  64   0.0000       1.487072        40.4653 
  65   0.0000       1.535443        41.7815 
  66   0.0000       1.555263        42.3208 
  67   0.0000       1.573937        42.8290 
  68   0.0000       1.590953        43.2920 
  69   0.0000       1.604810        43.6691 
  70   0.0000       1.629191        44.3325 
  71   0.0000       1.635356        44.5003 
  72   0.0000       1.648039        44.8454 
  73   0.0000       1.669179        45.4207 
  74   0.0000       1.683235        45.8031 
  75   0.0000       1.707229        46.4561 
  76   0.0000       1.724325        46.9213 
  77   0.0000       1.759197        47.8702 
  78   0.0000       1.810242        49.2592 
  79   0.0000       1.898245        51.6539 
  80   0.0000       1.978668        53.8423 
  81   0.0000       1.993736        54.2523 
  82   0.0000       2.000863        54.4463 
  83   0.0000       2.029622        55.2288 
  84   0.0000       2.041563        55.5538 
  85   0.0000       2.076075        56.4929 
  86   0.0000       2.087373        56.8003 
  87   0.0000       2.108360        57.3714 
  88   0.0000       2.137883        58.1748 
  89   0.0000       2.159967        58.7757 
  90   0.0000       2.221740        60.4566 
  91   0.0000       2.298080        62.5339 
  92   0.0000       2.326298        63.3018 
  93   0.0000       2.350281        63.9544 
  94   0.0000       2.387931        64.9789 
  95   0.0000       2.390809        65.0572 
  96   0.0000       2.408745        65.5453 
  97   0.0000       2.436107        66.2898 
  98   0.0000       2.450823        66.6903 
  99   0.0000       2.473459        67.3062 
 100   0.0000       2.507672        68.2372 
 101   0.0000       2.561938        69.7139 
 102   0.0000       2.587493        70.4093 
 103   0.0000       2.599081        70.7246 
 104   0.0000       2.658680        72.3464 
 105   0.0000       2.684917        73.0603 
 106   0.0000       2.709706        73.7349 
 107   0.0000       2.713905        73.8491 
 108   0.0000       2.807830        76.4049 
 109   0.0000       2.848589        77.5140 
 110   0.0000       2.872396        78.1619 
 111   0.0000       2.890253        78.6478 
 112   0.0000       2.898518        78.8727 
 113   0.0000       2.931356        79.7663 
 114   0.0000       3.007661        81.8426 
 115   0.0000       3.025412        82.3256 
 116   0.0000       3.091885        84.1345 
 117   0.0000       3.145152        85.5839 
 118   0.0000       3.179259        86.5120 
 119   0.0000       3.206493        87.2531 
 120   0.0000       3.244722        88.2934 
 121   0.0000       3.294218        89.6402 
 122   0.0000       3.369519        91.6893 
 123   0.0000       3.394993        92.3825 
 124   0.0000       3.406630        92.6991 
 125   0.0000       3.456131        94.0461 
 126   0.0000       3.482269        94.7573 
 127   0.0000       3.533387        96.1483 
 128   0.0000       3.568414        97.1015 
 129   0.0000       3.615185        98.3742 
 130   0.0000       3.640546        99.0643 
 131   0.0000       3.657902        99.5366 
 132   0.0000       3.687318       100.3370 
 133   0.0000       3.708149       100.9039 
 134   0.0000       3.999026       108.8190 
 135   0.0000       4.026330       109.5620 
 136   0.0000       4.189846       114.0115 
 137   0.0000       4.266061       116.0854 
 138   0.0000       4.284529       116.5879 
 139   0.0000       4.315489       117.4304 
 140   0.0000       4.419515       120.2611 
 141   0.0000       4.486786       122.0917 
 142   0.0000       4.556678       123.9935 
 143   0.0000       4.599941       125.1707 
 144   0.0000       5.347058       145.5009 
 145   0.0000       5.368831       146.0933 
 146   0.0000       5.439308       148.0111 
 147   0.0000       5.459377       148.5572 
 148   0.0000       5.495749       149.5469 
 149   0.0000       5.572458       151.6343 
 150   0.0000       5.705694       155.2598 
 151   0.0000       5.774488       157.1318 
 152   0.0000       5.841192       158.9469 
 153   0.0000       5.860137       159.4624 
 154   0.0000       5.971700       162.4982 
 155   0.0000       6.018728       163.7779 
 156   0.0000       6.232476       169.5943 
 157   0.0000       6.363613       173.1627 
 158   0.0000       6.535488       177.8397 
 159   0.0000       6.573267       178.8677 
 160   0.0000       6.747148       183.5992 
 161   0.0000       6.772065       184.2773 
 162   0.0000       6.786866       184.6800 
 163   0.0000       6.832689       185.9269 
 164   0.0000       6.990116       190.2107 
 165   0.0000       7.091230       192.9622 
 166   0.0000       7.166601       195.0131 
 167   0.0000       7.274838       197.9584 
 168   0.0000      22.362861       608.5244 
 169   0.0000      22.411645       609.8519 
 170   0.0000      43.665621      1188.2020 
 171   0.0000      43.749219      1190.4768 

                    ********************************
                    * MULLIKEN POPULATION ANALYSIS *
                    ********************************

-----------------------
MULLIKEN ATOMIC CHARGES
-----------------------
   0 C :   -0.202237
   1 O :   -0.499722
   2 H :    0.329369
   3 H :    0.107658
   4 H :    0.131388
   5 H :    0.143438
   6 C :   -0.160037
   7 O :   -0.481016
   8 H :    0.323252
   9 H :    0.100554
  10 H :    0.100747
  11 H :    0.106606
Sum of atomic charges:    0.0000000

--------------------------------
MULLIKEN REDUCED ORBITAL CHARGES
--------------------------------
  0 C s       :     3.233959  s :     3.233959
      pz      :     0.777501  p :     2.871202
      px      :     1.113774
      py      :     0.979927
      dz2     :     0.020384  d :     0.090078
      dxz     :     0.027758
      dyz     :     0.017380
      dx2y2   :     0.014323
      dxy     :     0.010234
      f0      :     0.001953  f :     0.006998
      f+1     :     0.000691
      f-1     :     0.001516
      f+2     :     0.001296
      f-2     :     0.000964
      f+3     :     0.000407
      f-3     :     0.000170
  1 O s       :     3.820351  s :     3.820351
      pz      :     1.470942  p :     4.648256
      px      :     1.411630
      py      :     1.765684
      dz2     :     0.007597  d :     0.029633
      dxz     :     0.004412
      dyz     :     0.006641
      dx2y2   :     0.008853
      dxy     :     0.002129
      f0      :     0.000182  f :     0.001483
      f+1     :     0.000177
      f-1     :     0.000389
      f+2     :     0.000222
      f-2     :     0.000117
      f+3     :     0.000353
      f-3     :     0.000041
  2 H s       :     0.627244  s :     0.627244
      pz      :     0.011829  p :     0.043387
      px      :     0.017496
      py      :     0.014061
  3 H s       :     0.873171  s :     0.873171
      pz      :     0.006685  p :     0.019171
      px      :     0.007058
      py      :     0.005428
  4 H s       :     0.848601  s :     0.848601
      pz      :     0.002799  p :     0.020011
      px      :     0.005305
      py      :     0.011907
  5 H s       :     0.836756  s :     0.836756
      pz      :     0.004942  p :     0.019805
      px      :     0.010966
      py      :     0.003898
  6 C s       :     3.223349  s :     3.223349
      pz      :     0.977884  p :     2.830330
      px      :     0.833312
      py      :     1.019134
      dz2     :     0.030291  d :     0.098621
      dxz     :     0.017313
      dyz     :     0.005833
      dx2y2   :     0.017431
      dxy     :     0.027753
      f0      :     0.000980  f :     0.007736
      f+1     :     0.001996
      f-1     :     0.000474
      f+2     :     0.000874
      f-2     :     0.000915
      f+3     :     0.001173
      f-3     :     0.001323
  7 O s       :     3.793438  s :     3.793438
      pz      :     1.761609  p :     4.655972
      px      :     1.305051
      py      :     1.589312
      dz2     :     0.004996  d :     0.030026
      dxz     :     0.005262
      dyz     :     0.003853
      dx2y2   :     0.003882
      dxy     :     0.012032
      f0      :     0.000213  f :     0.001580
      f+1     :     0.000321
      f-1     :     0.000170
      f+2     :     0.000186
      f-2     :     0.000186
      f+3     :     0.000306
      f-3     :     0.000200
  8 H s       :     0.625600  s :     0.625600
      pz      :     0.014897  p :     0.051148
      px      :     0.018441
      py      :     0.017810
  9 H s       :     0.879057  s :     0.879057
      pz      :     0.012457  p :     0.020389
      px      :     0.003576
      py      :     0.004356
 10 H s       :     0.880165  s :     0.880165
      pz      :     0.004033  p :     0.019088
      px      :     0.003652
      py      :     0.011403
 11 H s       :     0.873810  s :     0.873810
      pz      :     0.004456  p :     0.019584
      px      :     0.008426
      py      :     0.006702


                     *******************************
                     * LOEWDIN POPULATION ANALYSIS *
                     *******************************

----------------------
LOEWDIN ATOMIC CHARGES
----------------------
   0 C :   -0.383799
   1 O :   -0.105044
   2 H :    0.193668
   3 H :    0.102069
   4 H :    0.095439
   5 H :    0.114760
   6 C :   -0.399588
   7 O :   -0.077637
   8 H :    0.163529
   9 H :    0.090401
  10 H :    0.098346
  11 H :    0.107855

-------------------------------
LOEWDIN REDUCED ORBITAL CHARGES
-------------------------------
  0 C s       :     2.868906  s :     2.868906
      pz      :     0.891471  p :     3.067439
      px      :     1.125430
      py      :     1.050538
      dz2     :     0.102842  d :     0.395061
      dxz     :     0.097610
      dyz     :     0.092128
      dx2y2   :     0.069120
      dxy     :     0.033361
      f0      :     0.013993  f :     0.052392
      f+1     :     0.005190
      f-1     :     0.012469
      f+2     :     0.007310
      f-2     :     0.008417
      f+3     :     0.002959
      f-3     :     0.002054
  1 O s       :     3.400939  s :     3.400939
      pz      :     1.508140  p :     4.632780
      px      :     1.416751
      py      :     1.707890
      dz2     :     0.018394  d :     0.067042
      dxz     :     0.013810
      dyz     :     0.015259
      dx2y2   :     0.015724
      dxy     :     0.003855
      f0      :     0.000785  f :     0.004282
      f+1     :     0.000784
      f-1     :     0.000859
      f+2     :     0.000564
      f-2     :     0.000440
      f+3     :     0.000795
      f-3     :     0.000055
  2 H s       :     0.662001  s :     0.662001
      pz      :     0.030929  p :     0.144331
      px      :     0.076044
      py      :     0.037357
  3 H s       :     0.840932  s :     0.840932
      pz      :     0.019372  p :     0.056999
      px      :     0.021316
      py      :     0.016310
  4 H s       :     0.839670  s :     0.839670
      pz      :     0.009984  p :     0.064891
      px      :     0.017575
      py      :     0.037333
  5 H s       :     0.825396  s :     0.825396
      pz      :     0.014617  p :     0.059843
      px      :     0.033524
      py      :     0.011702
  6 C s       :     2.865339  s :     2.865339
      pz      :     1.051904  p :     3.056781
      px      :     0.928718
      py      :     1.076160
      dz2     :     0.130615  d :     0.420025
      dxz     :     0.077475
      dyz     :     0.026768
      dx2y2   :     0.072593
      dxy     :     0.112575
      f0      :     0.004703  f :     0.057443
      f+1     :     0.011932
      f-1     :     0.003594
      f+2     :     0.009854
      f-2     :     0.010854
      f+3     :     0.006841
      f-3     :     0.009665
  7 O s       :     3.367132  s :     3.367132
      pz      :     1.708329  p :     4.635677
      px      :     1.343442
      py      :     1.583905
      dz2     :     0.012428  d :     0.070236
      dxz     :     0.013916
      dyz     :     0.005589
      dx2y2   :     0.010941
      dxy     :     0.027362
      f0      :     0.000293  f :     0.004592
      f+1     :     0.000911
      f-1     :     0.000394
      f+2     :     0.000575
      f-2     :     0.000636
      f+3     :     0.001186
      f-3     :     0.000597
  8 H s       :     0.672052  s :     0.672052
      pz      :     0.042040  p :     0.164419
      px      :     0.054674
      py      :     0.067706
  9 H s       :     0.846820  s :     0.846820
      pz      :     0.037536  p :     0.062779
      px      :     0.011183
      py      :     0.014060
 10 H s       :     0.843749  s :     0.843749
      pz      :     0.012838  p :     0.057905
      px      :     0.011626
      py      :     0.033441
 11 H s       :     0.835649  s :     0.835649
      pz      :     0.013188  p :     0.056495
      px      :     0.023224
      py      :     0.020083


                      *****************************
                      * MAYER POPULATION ANALYSIS *
                      *****************************

  NA   - Mulliken gross atomic population
  ZA   - Total nuclear charge
  QA   - Mulliken gross atomic charge
  VA   - Mayer's total valence
  BVA  - Mayer's bonded valence
  FA   - Mayer's free valence

  ATOM       NA         ZA         QA         VA         BVA        FA
  0 C      6.2022     6.0000    -0.2022     3.8817     3.8817     0.0000
  1 O      8.4997     8.0000    -0.4997     1.8787     1.8787     0.0000
  2 H      0.6706     1.0000     0.3294     0.9009     0.9009     0.0000
  3 H      0.8923     1.0000     0.1077     0.9643     0.9643    -0.0000
  4 H      0.8686     1.0000     0.1314     0.9528     0.9528    -0.0000
  5 H      0.8566     1.0000     0.1434     0.9699     0.9699     0.0000
  6 C      6.1600     6.0000    -0.1600     3.9495     3.9495     0.0000
  7 O      8.4810     8.0000    -0.4810     1.8873     1.8873     0.0000
  8 H      0.6767     1.0000     0.3233     0.9208     0.9208    -0.0000
  9 H      0.8994     1.0000     0.1006     0.9560     0.9560    -0.0000
 10 H      0.8993     1.0000     0.1007     0.9641     0.9641     0.0000
 11 H      0.8934     1.0000     0.1066     0.9572     0.9572    -0.0000

  Mayer bond orders larger than 0.1
B(  0-C ,  1-O ) :   0.9459 B(  0-C ,  3-H ) :   0.9779 B(  0-C ,  4-H ) :   0.9691 
B(  0-C ,  5-H ) :   0.9713 B(  1-O ,  2-H ) :   0.8887 B(  6-C ,  7-O ) :   1.0128 
B(  6-C ,  9-H ) :   0.9756 B(  6-C , 10-H ) :   0.9772 B(  6-C , 11-H ) :   0.9770 
B(  7-O ,  8-H ) :   0.8701 

-------
TIMINGS
-------

Total SCF time: 0 days 0 hours 0 min 15 sec 

Total time                  ....      15.648 sec
Sum of individual times     ....      15.326 sec  ( 97.9%)

Fock matrix formation       ....      14.766 sec  ( 94.4%)
  XC integration            ....       5.026 sec  ( 34.0% of F)
    Basis function eval.    ....       0.069 sec  (  1.4% of XC)
    Density eval.           ....       0.067 sec  (  1.3% of XC)
    XC-Functional eval.     ....       0.091 sec  (  1.8% of XC)
    XC-Potential eval.      ....       0.077 sec  (  1.5% of XC)
Diagonalization             ....       0.075 sec  (  0.5%)
Density matrix formation    ....       0.007 sec  (  0.0%)
Population analysis         ....       0.016 sec  (  0.1%)
Initial guess               ....       0.110 sec  (  0.7%)
Orbital Transformation      ....       0.000 sec  (  0.0%)
Orbital Orthonormalization  ....       0.000 sec  (  0.0%)
DIIS solution               ....       0.041 sec  (  0.3%)
SOSCF solution              ....       0.031 sec  (  0.2%)
Grid generation             ....       0.283 sec  (  1.8%)


-------------------------------------------------------------------------------
                          DFT DISPERSION CORRECTION                            
                                                                               
                              DFTD3 V3.1  Rev 1                                
                              USING zero damping                               
-------------------------------------------------------------------------------
The omegaB97X-D3 functional is recognized. Fit by Chai et al.
Active option DFTDOPT                   ...         3   

molecular C6(AA) [au] = 834.944636 


            DFT-D V3
 parameters
 s6 scaling factor         :     1.0000 
 rs6 scaling factor        :     1.2810 
 s8 scaling factor         :     1.0000 
 rs8 scaling factor        :     1.0940 
 Damping factor alpha6     :    14.0000 
 Damping factor alpha8     :    16.0000 
 ad hoc parameters k1-k3   :    16.0000     1.3333    -4.0000 

 Edisp/kcal,au: -1.110795791892  -0.001770165582 
 E6   /kcal   :  -0.462326858 
 E8   /kcal   :  -0.648468934 
 % E8         :  58.378771179 

-------------------------   ----------------
Dispersion correction           -0.001770166
-------------------------   ----------------


-------------------------   --------------------
FINAL SINGLE POINT ENERGY      -231.475750810172
-------------------------   --------------------


                            ***************************************
                            *     ORCA property calculations      *
                            ***************************************

                                    ---------------------
                                    Active property flags
                                    ---------------------
   (+) Dipole Moment


------------------------------------------------------------------------------
                       ORCA ELECTRIC PROPERTIES CALCULATION
------------------------------------------------------------------------------

Dipole Moment Calculation                       ... on
Quadrupole Moment Calculation                   ... off
Polarizability Calculation                      ... off
GBWName                                         ... 16-8_DFT_AB.gbw
Electron density file                           ... 16-8_DFT_AB.scfp.tmp
The origin for moment calculation is the CENTER OF MASS  = (-9.370970,  5.182845 10.270493)

-------------
DIPOLE MOMENT
-------------
                                X             Y             Z
Electronic contribution:      1.36182       0.31056       0.67801
Nuclear contribution   :     -0.68438       0.03941      -0.84185
                        -----------------------------------------
Total Dipole Moment    :      0.67744       0.34996      -0.16384
                        -----------------------------------------
Magnitude (a.u.)       :      0.77990
Magnitude (Debye)      :      1.98234



--------------------
Rotational spectrum 
--------------------
 
Rotational constants in cm-1:     0.574651     0.077378     0.072285 
Rotational constants in MHz : 17227.597416  2319.722738  2167.064242 

 Dipole components along the rotational axes: 
x,y,z [a.u.] :    -0.730284    -0.261596    -0.080563 
x,y,z [Debye]:    -1.856235    -0.664925    -0.204776 

 
------------------------------------------------------------------------------
                      ORCA CHELPG CHARGES GENERATION
------------------------------------------------------------------------------

GBW file                           ... 16-8_DFT_AB.gbw

Reading the GBW file               ... done

Grid spacing                       ...     0.300000
Point Cut-Off                      ...     2.800000
Van-der-Waals Radii                ...        COSMO
Total charge                       ...            0


Number of points X direction       ...           35
Number of points Y direction       ...           25
Number of points Z direction       ...           33
Maximum number of possible points  ...        28875
Final number of points             ...         9932


CHELPG Charges            
--------------------------------
  0   C   :       0.060545
  1   O   :      -0.567433
  2   H   :       0.390005
  3   H   :       0.022357
  4   H   :       0.025739
  5   H   :       0.086061
  6   C   :       0.009381
  7   O   :      -0.550431
  8   H   :       0.372556
  9   H   :       0.030791
 10   H   :       0.043584
 11   H   :       0.076845
--------------------------------
Total charge:     0.000000
--------------------------------

CHELPG charges calculated...

Timings for individual parts in CHELPG calculation:
Grid generation                 ...        0.001 sec (=   0.000 min)
Potential calculation           ...        2.173 sec (=   0.036 min)
Fit to the potential            ...        0.003 sec (=   0.000 min)
------------------------------------------------------------------------------


Timings for individual modules:

Sum of individual times         ...       28.270 sec (=   0.471 min)
GTO integral calculation        ...        5.471 sec (=   0.091 min)  19.4 %
SCF iterations                  ...       20.590 sec (=   0.343 min)  72.8 %
CHELPG charge generation        ...        2.210 sec (=   0.037 min)   7.8 %


                 $$$$$$$$$$$$$$$$  JOB NUMBER  2 $$$$$$$$$$$$$$


                       ****************************
                       * Single Point Calculation *
                       ****************************

---------------------------------
CARTESIAN COORDINATES (ANGSTROEM)
---------------------------------
  C     -3.613576    2.949622    3.934506
  O     -3.601508    3.698823    5.159507
  H     -2.638820    3.713132    5.390762
  H     -2.909974    3.467466    3.239017
  H     -3.265800    1.935287    3.994618
  H     -4.596142    2.930245    3.440482
  C     -6.937713    2.373086    6.655401
  O     -5.794244    1.905989    5.977256
  H     -5.128187    2.605545    6.038818
  H     -6.876055    2.211186    7.722361
  H     -7.201990    3.407024    6.351372
  H     -7.791973    1.711379    6.400325

----------------------------
CARTESIAN COORDINATES (A.U.)
----------------------------
  NO LB      ZA    FRAG     MASS         X           Y           Z
   0 C     6.0000    0    12.011   -6.828669    5.573978    7.435139
   1 O     8.0000    0    15.999   -6.805864    6.989762    9.750055
   2 H     1.0000    0     1.008   -4.986647    7.016803   10.187064
   3 H     1.0000    0     1.008   -5.499054    6.552561    6.120855
   4 H     1.0000    0     1.008   -6.171468    3.657162    7.548734
   5 H     1.0000    0     1.008   -8.685450    5.537361    6.501569
   6 C     0.0000    0     0.000  -13.110378    4.484483   12.576885
   7 O     0.0000    0     0.000  -10.949534    3.601797   11.295377
   8 H     0.0000    0     0.000   -9.690869    4.923766   11.411712
   9 H     0.0000    0     0.000  -12.993861    4.178536   14.593147
  10 H     0.0000    0     0.000  -13.609789    6.438342   12.002354
  11 H     0.0000    0     0.000  -14.724695    3.234038   12.094861

--------------------------------
INTERNAL COORDINATES (ANGSTROEM)
--------------------------------
 C      0   0   0     0.000000000000     0.00000000     0.00000000
 O      1   0   0     1.435992766356     0.00000000     0.00000000
 H      2   1   0     0.990177664791   102.41221534     0.00000000
 H      1   2   3     1.116657123678   106.50344799   304.83664775
 H      1   2   3     1.073981885762   116.24981740    62.14036873
 H      1   2   3     1.099941418922   113.56834750   187.40416327
 C      2   1   3     3.889156882209    98.22500793   216.21401514
 O      7   2   1     1.409106668210    39.80560939    42.54928639
 H      8   7   2     0.967884499426   106.75218740    15.47104160
 H      7   2   1     1.080933374711   112.44427527   140.88753352
 H      7   2   1     1.109641272400    77.36693210   253.04138231
 H      7   2   1     1.110261260796   140.78896455   356.12816282

---------------------------
INTERNAL COORDINATES (A.U.)
---------------------------
 C      0   0   0     0.000000000000     0.00000000     0.00000000
 O      1   0   0     2.713633058704     0.00000000     0.00000000
 H      2   1   0     1.871164610380   102.41221534     0.00000000
 H      1   2   3     2.110176149244   106.50344799   304.83664775
 H      1   2   3     2.029531636883   116.24981740    62.14036873
 H      1   2   3     2.078588045120   113.56834750   187.40416327
 C      2   1   3     7.349441399229    98.22500793   216.21401514
 O      7   2   1     2.662825696400    39.80560939    42.54928639
 H      8   7   2     1.829036633182   106.75218740    15.47104160
 H      7   2   1     2.042668047219   112.44427527   140.88753352
 H      7   2   1     2.096918111732    77.36693210   253.04138231
 H      7   2   1     2.098089720007   140.78896455   356.12816282

---------------------
BASIS SET INFORMATION
---------------------
There are 3 groups of distinct atoms

 Group   1 Type C   : 11s6p2d1f contracted to 5s3p2d1f pattern {62111/411/11/1}
 Group   2 Type O   : 11s6p2d1f contracted to 5s3p2d1f pattern {62111/411/11/1}
 Group   3 Type H   : 5s1p contracted to 3s1p pattern {311/1}

Atom   0C    basis set group =>   1
Atom   1O    basis set group =>   2
Atom   2H    basis set group =>   3
Atom   3H    basis set group =>   3
Atom   4H    basis set group =>   3
Atom   5H    basis set group =>   3
Atom   6C    basis set group =>   1
Atom   7O    basis set group =>   2
Atom   8H    basis set group =>   3
Atom   9H    basis set group =>   3
Atom  10H    basis set group =>   3
Atom  11H    basis set group =>   3


           ************************************************************
           *        Program running with 8 parallel MPI-processes     *
           *              working on a common directory               *
           ************************************************************
------------------------------------------------------------------------------
                           ORCA GTO INTEGRAL CALCULATION
------------------------------------------------------------------------------

                         BASIS SET STATISTICS AND STARTUP INFO

 # of primitive gaussian shells          ...  128
 # of primitive gaussian functions       ...  248
 # of contracted shells                  ...   76
 # of contracted basis functions         ...  172
 Highest angular momentum                ...    3
 Maximum contraction depth               ...    6
 Integral package used                   ... LIBINT
 Integral threshhold            Thresh   ...  2.500e-11
 Primitive cut-off              TCut     ...  2.500e-12


------------------------------ INTEGRAL EVALUATION ----------------------------


 * One electron integrals 
 Pre-screening matrix                    ... done
 Shell pair data                         ... done (   0.001 sec)



           ************************************************************
           *        Program running with 8 parallel MPI-processes     *
           *              working on a common directory               *
           ************************************************************
-------------------------------------------------------------------------------
                                 ORCA SCF
-------------------------------------------------------------------------------

------------
SCF SETTINGS
------------
Hamiltonian:
 Density Functional     Method          .... DFT(GTOs)
 Exchange Functional    Exchange        .... WB97X-D3
 Correlation Functional Correlation     .... WB97X-D3
 Gradients option       PostSCFGGA      .... off
 Hybrid DFT is turned on
   Fraction HF Exchange ScalHFX         ....  0.195728
   Scaling of DF-GGA-X  ScalDFX         ....  0.000000
   Scaling of DF-GGA-C  ScalDFC         ....  1.000000
   Scaling of DF-LDA-C  ScalLDAC        ....  1.000000
   Perturbative correction              ....  0.000000
   Density functional embedding theory  .... OFF
 Long-range corrected/Screened/Range-Separated Hybrid DFT is turned on
   Amount of maximum screened exact exchange              ....  0.804272
   Range separation parameter mu (erf(mu*r12)/r12)        ....  0.250000


General Settings:
 Integral files         IntName         .... 16-8_DFT_A
 Hartree-Fock type      HFTyp           .... RHF
 Total Charge           Charge          ....    0
 Multiplicity           Mult            ....    1
 Number of Electrons    NEL             ....   18
 Basis Dimension        Dim             ....  172
 Nuclear Repulsion      ENuc            ....     39.8929442319 Eh

Convergence Acceleration:
 DIIS                   CNVDIIS         .... on
   Start iteration      DIISMaxIt       ....    12
   Startup error        DIISStart       ....  0.200000
   # of expansion vecs  DIISMaxEq       ....     5
   Bias factor          DIISBfac        ....   1.050
   Max. coefficient     DIISMaxC        ....  10.000
 Newton-Raphson         CNVNR           .... off
 SOSCF                  CNVSOSCF        .... on
   Start iteration      SOSCFMaxIt      ....   150
   Startup grad/error   SOSCFStart      ....  0.003300
 Level Shifting         CNVShift        .... on
   Level shift para.    LevelShift      ....    0.2500
   Turn off err/grad.   ShiftErr        ....    0.0010
 Zerner damping         CNVZerner       .... off
 Static damping         CNVDamp         .... on
   Fraction old density DampFac         ....    0.7000
   Max. Damping (<1)    DampMax         ....    0.9800
   Min. Damping (>=0)   DampMin         ....    0.0000
   Turn off err/grad.   DampErr         ....    0.1000
 Fernandez-Rico         CNVRico         .... off

SCF Procedure:
 Maximum # iterations   MaxIter         ....  1000
 SCF integral mode      SCFMode         .... Direct
   Integral package                     .... LIBINT
 Reset frequency        DirectResetFreq ....    20
 Integral Threshold     Thresh          ....  2.500e-11 Eh
 Primitive CutOff       TCut            ....  2.500e-12 Eh

Convergence Tolerance:
 Convergence Check Mode ConvCheckMode   .... Total+1el-Energy
 Convergence forced     ConvForced      .... 0
 Energy Change          TolE            ....  1.000e-08 Eh
 1-El. energy change                    ....  1.000e-05 Eh
 Orbital Gradient       TolG            ....  1.000e-05
 Orbital Rotation angle TolX            ....  1.000e-05
 DIIS Error             TolErr          ....  5.000e-07


Diagonalization of the overlap matrix:
Smallest eigenvalue                        ... 1.498e-03
Time for diagonalization                   ...    0.004 sec
Threshold for overlap eigenvalues          ... 1.000e-08
Number of eigenvalues below threshold      ... 0
Time for construction of square roots      ...    0.005 sec
Total time needed                          ...    0.009 sec

-------------------
DFT GRID GENERATION
-------------------

General Integration Accuracy     IntAcc      ...  4.340
Radial Grid Type                 RadialGrid  ... Gauss-Chebyshev
Angular Grid (max. acc.)         AngularGrid ... Lebedev-110
Angular grid pruning method      GridPruning ... 3 (G Style)
Weight generation scheme         WeightScheme... Becke
Basis function cutoff            BFCut       ...    1.0000e-11
Integration weight cutoff        WCut        ...    1.0000e-14
Grids for H and He will be reduced by one unit

# of grid points (after initial pruning)     ...  13096 (   0.0 sec)
# of grid points (after weights+screening)   ...  12507 (   0.0 sec)
nearest neighbour list constructed           ...    0.0 sec
Grid point re-assignment to atoms done       ...    0.0 sec
Grid point division into batches done        ...    0.0 sec
Reduced shell lists constructed in    0.0 sec

Total number of grid points                  ...    12507
Total number of batches                      ...      200
Average number of points per batch           ...       62
Average number of grid points per atom       ...     1042
Average number of shells per batch           ...    55.65 (73.23%)
Average number of basis functions per batch  ...   125.42 (72.92%)
Average number of large shells per batch     ...    45.35 (81.48%)
Average number of large basis fcns per batch ...    99.88 (79.64%)
Maximum spatial batch extension              ...   5.85, 16.71, 13.33 au
Average spatial batch extension              ...   0.23,  0.30,  0.29 au

Time for grid setup =    0.045 sec

------------------------------
INITIAL GUESS: MODEL POTENTIAL
------------------------------
Loading Hartree-Fock densities                     ... done
Calculating cut-offs                               ... done
Setting up the integral package                    ... done
Initializing the effective Hamiltonian             ... done
Starting the Coulomb interaction                   ... done (   0.0 sec)
Reading the grid                                   ... done
Mapping shells                                     ... done
Starting the XC term evaluation                    ... done (   0.0 sec)
  promolecular density results
     # of electrons  =     18.003257830
     EX              =    -14.416538743
     EC              =     -0.573801063
     EX+EC           =    -14.990339806
Transforming the Hamiltonian                       ... done (   0.0 sec)
Diagonalizing the Hamiltonian                      ... done (   0.0 sec)
Back transforming the eigenvectors                 ... done (   0.0 sec)
Now organizing SCF variables                       ... done
                      ------------------
                      INITIAL GUESS DONE (   0.2 sec)
                      ------------------
--------------
SCF ITERATIONS
--------------
ITER       Energy         Delta-E        Max-DP      RMS-DP      [F,P]     Damp
               ***  Starting incremental Fock matrix formation  ***
  0   -115.6496987589   0.000000000000 0.03578423  0.00073715  0.2503170 0.7000
  1   -115.6849878505  -0.035289091593 0.02191754  0.00052045  0.1254277 0.7000
                               ***Turning on DIIS***
  2   -115.7012004298  -0.016212579297 0.03322422  0.00093925  0.0500643 0.0000
  3   -115.7276300125  -0.026429582733 0.01644893  0.00034483  0.0582259 0.0000
  4   -115.7319437459  -0.004313733387 0.00405479  0.00006888  0.0061247 0.0000
                      *** Initiating the SOSCF procedure ***
                           *** Shutting down DIIS ***
                      *** Re-Reading the Fockian *** 
                      *** Removing any level shift *** 
ITER      Energy       Delta-E        Grad      Rot      Max-DP    RMS-DP
  5   -115.73203829  -0.0000945468  0.000432  0.000432  0.000736  0.000024
               *** Restarting incremental Fock matrix formation ***
  6   -115.73204705  -0.0000087607  0.000138  0.000152  0.000522  0.000015
  7   -115.73204793  -0.0000008814  0.000033  0.000095  0.000262  0.000007
  8   -115.73204802  -0.0000000808  0.000017  0.000014  0.000028  0.000001
  9   -115.73204802  -0.0000000055  0.000010  0.000008  0.000015  0.000000
                  ***Gradient check signals convergence***
              ***Rediagonalizing the Fockian in SOSCF/NRSCF***

               *****************************************************
               *                     SUCCESS                       *
               *           SCF CONVERGED AFTER  10 CYCLES          *
               *****************************************************

Setting up the final grid:

General Integration Accuracy     IntAcc      ...  4.670
Radial Grid Type                 RadialGrid  ... Gauss-Chebyshev
Angular Grid (max. acc.)         AngularGrid ... Lebedev-302
Angular grid pruning method      GridPruning ... 3 (G Style)
Weight generation scheme         WeightScheme... Becke
Basis function cutoff            BFCut       ...    1.0000e-11
Integration weight cutoff        WCut        ...    1.0000e-14
Grids for H and He will be reduced by one unit

# of grid points (after initial pruning)     ...  52000 (   0.0 sec)
# of grid points (after weights+screening)   ...  49143 (   0.0 sec)
nearest neighbour list constructed           ...    0.0 sec
Grid point re-assignment to atoms done       ...    0.0 sec
Grid point division into batches done        ...    0.2 sec
Reduced shell lists constructed in    0.2 sec

Total number of grid points                  ...    49143
Total number of batches                      ...      775
Average number of points per batch           ...       63
Average number of grid points per atom       ...     4095
Average number of shells per batch           ...    55.03 (72.41%)
Average number of basis functions per batch  ...   122.54 (71.24%)
Average number of large shells per batch     ...    44.74 (81.31%)
Average number of large basis fcns per batch ...    98.89 (80.70%)
Maximum spatial batch extension              ...   6.71, 12.14, 11.33 au
Average spatial batch extension              ...   0.16,  0.18,  0.18 au

Final grid set up in    0.2 sec
Final integration                            ... done (   0.1 sec)
Change in XC energy                          ...    -0.000109303
Integrated number of electrons               ...    18.000027297
Previous integrated no of electrons          ...    17.999999434

----------------
TOTAL SCF ENERGY
----------------

Total Energy       :         -115.73215733 Eh           -3149.23210 eV

Components:
Nuclear Repulsion  :           39.89294423 Eh            1085.54220 eV
Electronic Energy  :         -155.62510156 Eh           -4234.77431 eV
One Electron Energy:         -236.22375443 Eh           -6427.97515 eV
Two Electron Energy:           80.59865287 Eh            2193.20084 eV

Virial components:
Potential Energy   :         -230.88187543 Eh           -6282.61523 eV
Kinetic Energy     :          115.14971810 Eh            3133.38313 eV
Virial Ratio       :            2.00505810


DFT components:
N(Alpha)           :        9.000013648509 electrons
N(Beta)            :        9.000013648509 electrons
N(Total)           :       18.000027297019 electrons
E(XC)              :      -10.631873616529 Eh       
DFET-embed. en.    :        0.000000000000 Eh       

---------------
SCF CONVERGENCE
---------------

  Last Energy change         ...   -2.0343e-09  Tolerance :   1.0000e-08
  Last MAX-Density change    ...    3.5584e-06  Tolerance :   1.0000e-07
  Last RMS-Density change    ...    1.0994e-07  Tolerance :   5.0000e-09
  Last Orbital Gradient      ...    2.2889e-06  Tolerance :   1.0000e-05
  Last Orbital Rotation      ...    3.0198e-06  Tolerance :   1.0000e-05

             **** THE GBW FILE WAS UPDATED (16-8_DFT_A.gbw) ****
             **** DENSITY FILE WAS UPDATED (16-8_DFT_A.scfp.tmp) ****
             **** ENERGY FILE WAS UPDATED (16-8_DFT_A.en.tmp) ****
----------------
ORBITAL ENERGIES
----------------

  NO   OCC          E(Eh)            E(eV) 
   0   2.0000     -19.236557      -523.4533 
   1   2.0000     -10.316022      -280.7132 
   2   2.0000      -1.128725       -30.7142 
   3   2.0000      -0.792425       -21.5630 
   4   2.0000      -0.604107       -16.4386 
   5   2.0000      -0.537877       -14.6364 
   6   2.0000      -0.525737       -14.3060 
   7   2.0000      -0.440386       -11.9835 
   8   2.0000      -0.373621       -10.1667 
   9   0.0000       0.095498         2.5986 
  10   0.0000       0.117643         3.2012 
  11   0.0000       0.149125         4.0579 
  12   0.0000       0.190404         5.1812 
  13   0.0000       0.197389         5.3712 
  14   0.0000       0.202008         5.4969 
  15   0.0000       0.210543         5.7292 
  16   0.0000       0.221215         6.0196 
  17   0.0000       0.240301         6.5389 
  18   0.0000       0.312482         8.5031 
  19   0.0000       0.318415         8.6645 
  20   0.0000       0.324379         8.8268 
  21   0.0000       0.344163         9.3652 
  22   0.0000       0.350583         9.5398 
  23   0.0000       0.391296        10.6477 
  24   0.0000       0.417756        11.3677 
  25   0.0000       0.442388        12.0380 
  26   0.0000       0.485500        13.2111 
  27   0.0000       0.505767        13.7626 
  28   0.0000       0.530297        14.4301 
  29   0.0000       0.540218        14.7001 
  30   0.0000       0.556654        15.1473 
  31   0.0000       0.569667        15.5014 
  32   0.0000       0.611829        16.6487 
  33   0.0000       0.620795        16.8927 
  34   0.0000       0.657981        17.9046 
  35   0.0000       0.669328        18.2133 
  36   0.0000       0.717868        19.5342 
  37   0.0000       0.736172        20.0322 
  38   0.0000       0.798890        21.7389 
  39   0.0000       0.812161        22.1000 
  40   0.0000       0.826239        22.4831 
  41   0.0000       0.835387        22.7320 
  42   0.0000       0.851166        23.1614 
  43   0.0000       0.971625        26.4393 
  44   0.0000       1.018885        27.7253 
  45   0.0000       1.047832        28.5130 
  46   0.0000       1.068486        29.0750 
  47   0.0000       1.106900        30.1203 
  48   0.0000       1.171630        31.8817 
  49   0.0000       1.183231        32.1973 
  50   0.0000       1.201166        32.6854 
  51   0.0000       1.241928        33.7946 
  52   0.0000       1.249439        33.9990 
  53   0.0000       1.375677        37.4341 
  54   0.0000       1.408310        38.3221 
  55   0.0000       1.443408        39.2771 
  56   0.0000       1.503441        40.9107 
  57   0.0000       1.519495        41.3476 
  58   0.0000       1.557000        42.3681 
  59   0.0000       1.583241        43.0822 
  60   0.0000       1.603854        43.6431 
  61   0.0000       1.632694        44.4279 
  62   0.0000       1.655605        45.0513 
  63   0.0000       1.682409        45.7807 
  64   0.0000       1.733627        47.1744 
  65   0.0000       1.832945        49.8770 
  66   0.0000       1.858073        50.5607 
  67   0.0000       1.941098        52.8200 
  68   0.0000       1.976094        53.7723 
  69   0.0000       1.992434        54.2169 
  70   0.0000       2.037657        55.4475 
  71   0.0000       2.047309        55.7101 
  72   0.0000       2.092939        56.9518 
  73   0.0000       2.122581        57.7584 
  74   0.0000       2.143239        58.3205 
  75   0.0000       2.211678        60.1828 
  76   0.0000       2.225959        60.5714 
  77   0.0000       2.237247        60.8786 
  78   0.0000       2.261287        61.5327 
  79   0.0000       2.309509        62.8449 
  80   0.0000       2.351506        63.9877 
  81   0.0000       2.402547        65.3766 
  82   0.0000       2.430594        66.1398 
  83   0.0000       2.460719        66.9596 
  84   0.0000       2.510551        68.3156 
  85   0.0000       2.531800        68.8938 
  86   0.0000       2.583398        70.2978 
  87   0.0000       2.640085        71.8404 
  88   0.0000       2.646213        72.0071 
  89   0.0000       2.669259        72.6342 
  90   0.0000       2.691985        73.2526 
  91   0.0000       2.724298        74.1319 
  92   0.0000       2.816469        76.6400 
  93   0.0000       2.857632        77.7601 
  94   0.0000       2.868482        78.0554 
  95   0.0000       2.889725        78.6334 
  96   0.0000       2.957646        80.4816 
  97   0.0000       3.025621        82.3313 
  98   0.0000       3.089795        84.0776 
  99   0.0000       3.096636        84.2637 
 100   0.0000       3.146407        85.6181 
 101   0.0000       3.167635        86.1957 
 102   0.0000       3.204925        87.2104 
 103   0.0000       3.237200        88.0887 
 104   0.0000       3.279079        89.2283 
 105   0.0000       3.362964        91.5109 
 106   0.0000       3.374056        91.8127 
 107   0.0000       3.378137        91.9238 
 108   0.0000       3.413107        92.8754 
 109   0.0000       3.421994        93.1172 
 110   0.0000       3.485769        94.8526 
 111   0.0000       3.574592        97.2696 
 112   0.0000       3.603525        98.0569 
 113   0.0000       3.647247        99.2466 
 114   0.0000       3.697869       100.6241 
 115   0.0000       3.711386       100.9919 
 116   0.0000       3.748575       102.0039 
 117   0.0000       4.009576       109.1061 
 118   0.0000       4.121688       112.1568 
 119   0.0000       4.154222       113.0421 
 120   0.0000       4.270788       116.2141 
 121   0.0000       4.273579       116.2900 
 122   0.0000       4.291304       116.7723 
 123   0.0000       4.304469       117.1306 
 124   0.0000       4.356919       118.5578 
 125   0.0000       4.423770       120.3769 
 126   0.0000       4.535472       123.4165 
 127   0.0000       4.556791       123.9966 
 128   0.0000       4.572445       124.4226 
 129   0.0000       4.603004       125.2541 
 130   0.0000       4.627276       125.9146 
 131   0.0000       5.007448       136.2596 
 132   0.0000       5.065586       137.8416 
 133   0.0000       5.136473       139.7705 
 134   0.0000       5.340366       145.3187 
 135   0.0000       5.373526       146.2211 
 136   0.0000       5.461669       148.6196 
 137   0.0000       5.492127       149.4484 
 138   0.0000       5.516406       150.1090 
 139   0.0000       5.723817       155.7530 
 140   0.0000       5.767315       156.9366 
 141   0.0000       5.792670       157.6266 
 142   0.0000       5.863160       159.5447 
 143   0.0000       5.986882       162.9113 
 144   0.0000       6.102317       166.0525 
 145   0.0000       6.250926       170.0963 
 146   0.0000       6.554248       178.3502 
 147   0.0000       6.625049       180.2768 
 148   0.0000       6.739786       183.3989 
 149   0.0000       6.766108       184.1152 
 150   0.0000       6.802613       185.1085 
 151   0.0000       6.868908       186.9125 
 152   0.0000       7.010241       190.7584 
 153   0.0000       7.125302       193.8893 
 154   0.0000       7.186031       195.5418 
 155   0.0000       7.280690       198.1176 
 156   0.0000       7.458291       202.9504 
 157   0.0000       8.092242       220.2011 
 158   0.0000       8.946664       243.4511 
 159   0.0000       9.340942       254.1799 
 160   0.0000       9.575858       260.5723 
 161   0.0000       9.619205       261.7519 
 162   0.0000       9.814821       267.0749 
 163   0.0000       9.913107       269.7493 
 164   0.0000       9.970823       271.3199 
 165   0.0000      10.150306       276.2039 
[...]
  82   0.0000       2.392684        65.1082 
  83   0.0000       2.467358        67.1402 
  84   0.0000       2.524595        68.6977 
  85   0.0000       2.550550        69.4040 
  86   0.0000       2.578658        70.1689 
  87   0.0000       2.591820        70.5270 
  88   0.0000       2.635204        71.7075 
  89   0.0000       2.660811        72.4044 
  90   0.0000       2.670278        72.6620 
  91   0.0000       2.700186        73.4758 
  92   0.0000       2.818290        76.6896 
  93   0.0000       2.826134        76.9030 
  94   0.0000       2.862624        77.8960 
  95   0.0000       2.901224        78.9463 
  96   0.0000       2.915778        79.3424 
  97   0.0000       3.010493        81.9197 
  98   0.0000       3.079854        83.8071 
  99   0.0000       3.124300        85.0165 
 100   0.0000       3.140404        85.4547 
 101   0.0000       3.175943        86.4218 
 102   0.0000       3.187657        86.7406 
 103   0.0000       3.255246        88.5797 
 104   0.0000       3.283662        89.3530 
 105   0.0000       3.315582        90.2216 
 106   0.0000       3.361236        91.4639 
 107   0.0000       3.380861        91.9979 
 108   0.0000       3.436005        93.4984 
 109   0.0000       3.455127        94.0188 
 110   0.0000       3.526987        95.9742 
 111   0.0000       3.601833        98.0109 
 112   0.0000       3.606892        98.1485 
 113   0.0000       3.641708        99.0959 
 114   0.0000       3.679972       100.1371 
 115   0.0000       3.690336       100.4191 
 116   0.0000       3.707871       100.8963 
 117   0.0000       3.997974       108.7904 
 118   0.0000       4.045467       110.0828 
 119   0.0000       4.135508       112.5329 
 120   0.0000       4.170295       113.4795 
 121   0.0000       4.229266       115.0842 
 122   0.0000       4.269798       116.1871 
 123   0.0000       4.300161       117.0133 
 124   0.0000       4.316531       117.4588 
 125   0.0000       4.472571       121.7048 
 126   0.0000       4.520257       123.0024 
 127   0.0000       4.539244       123.5191 
 128   0.0000       4.572541       124.4252 
 129   0.0000       4.590728       124.9201 
 130   0.0000       4.654640       126.6592 
 131   0.0000       5.025511       136.7511 
 132   0.0000       5.107842       138.9915 
 133   0.0000       5.159236       140.3900 
 134   0.0000       5.242975       142.6686 
 135   0.0000       5.350285       145.5887 
 136   0.0000       5.441611       148.0738 
 137   0.0000       5.460720       148.5937 
 138   0.0000       5.551524       151.0646 
 139   0.0000       5.748123       156.4144 
 140   0.0000       5.821378       158.4077 
 141   0.0000       5.839759       158.9079 
 142   0.0000       5.953120       161.9926 
 143   0.0000       6.001878       163.3194 
 144   0.0000       6.077621       165.3805 
 145   0.0000       6.354955       172.9271 
 146   0.0000       6.531843       177.7405 
 147   0.0000       6.609712       179.8594 
 148   0.0000       6.716703       182.7708 
 149   0.0000       6.758436       183.9064 
 150   0.0000       6.775442       184.3692 
 151   0.0000       6.813146       185.3951 
 152   0.0000       6.975677       189.8178 
 153   0.0000       7.074363       192.5032 
 154   0.0000       7.179438       195.3625 
 155   0.0000       7.253522       197.3784 
 156   0.0000       7.356809       200.1889 
 157   0.0000       7.912975       215.3230 
 158   0.0000       8.873691       241.4654 
 159   0.0000       9.350608       254.4430 
 160   0.0000       9.499010       258.4812 
 161   0.0000       9.584943       260.8196 
 162   0.0000       9.764541       265.7067 
 163   0.0000       9.872059       268.6324 
 164   0.0000       9.913175       269.7512 
 165   0.0000      10.075631       274.1718 
 166   0.0000      11.132016       302.9176 
 167   0.0000      19.103708       519.8383 
 168   0.0000      22.396355       609.4358 
 169   0.0000      43.719726      1189.6742 
 170   0.0000      65.880226      1792.6921 
 171   0.0000     126.437294      3440.5337 

                    ********************************
                    * MULLIKEN POPULATION ANALYSIS *
                    ********************************

-----------------------
MULLIKEN ATOMIC CHARGES
-----------------------
   0 C :   -0.002160
   1 O :   -0.001256
   2 H :   -0.000153
   3 H :   -0.000341
   4 H :   -0.000413
   5 H :   -0.004456
   6 C :   -0.169994
   7 O :   -0.460772
   8 H :    0.313914
   9 H :    0.107688
  10 H :    0.102234
  11 H :    0.115708
Sum of atomic charges:    0.0000000

--------------------------------
MULLIKEN REDUCED ORBITAL CHARGES
--------------------------------
  0 C s       :    -0.000926  s :    -0.000926
      pz      :     0.000639  p :     0.003052
      px      :     0.001409
      py      :     0.001003
      dz2     :    -0.000008  d :     0.000037
      dxz     :    -0.000076
      dyz     :     0.000001
      dx2y2   :     0.000088
      dxy     :     0.000031
      f0      :    -0.000002  f :    -0.000002
      f+1     :     0.000000
      f-1     :     0.000000
      f+2     :    -0.000001
      f-2     :    -0.000000
      f+3     :    -0.000000
      f-3     :     0.000000
  1 O s       :    -0.000726  s :    -0.000726
      pz      :     0.000086  p :     0.002079
      px      :     0.001993
      py      :    -0.000001
      dz2     :    -0.000011  d :    -0.000094
      dxz     :    -0.000029
      dyz     :    -0.000010
      dx2y2   :    -0.000017
      dxy     :    -0.000028
      f0      :    -0.000000  f :    -0.000002
      f+1     :     0.000000
      f-1     :    -0.000000
      f+2     :    -0.000000
      f-2     :    -0.000001
      f+3     :    -0.000000
      f-3     :    -0.000001
  2 H s       :     0.000151  s :     0.000151
      pz      :     0.000000  p :     0.000002
      px      :     0.000002
      py      :    -0.000000
  3 H s       :     0.000342  s :     0.000342
      pz      :    -0.000000  p :    -0.000001
      px      :    -0.000000
      py      :    -0.000000
  4 H s       :     0.000408  s :     0.000408
      pz      :     0.000001  p :     0.000005
      px      :     0.000002
      py      :     0.000002
  5 H s       :     0.004450  s :     0.004450
      pz      :    -0.000001  p :     0.000006
      px      :     0.000008
      py      :    -0.000001
  6 C s       :     3.225931  s :     3.225931
      pz      :     0.981405  p :     2.838302
      px      :     0.833418
      py      :     1.023480
      dz2     :     0.030163  d :     0.098051
      dxz     :     0.017682
      dyz     :     0.005910
      dx2y2   :     0.017239
      dxy     :     0.027058
      f0      :     0.000989  f :     0.007710
      f+1     :     0.002010
      f-1     :     0.000481
      f+2     :     0.000873
      f-2     :     0.000902
      f+3     :     0.001147
      f-3     :     0.001309
  7 O s       :     3.799397  s :     3.799397
      pz      :     1.763818  p :     4.628665
      px      :     1.294804
      py      :     1.570042
      dz2     :     0.005251  d :     0.031073
      dxz     :     0.005195
      dyz     :     0.003971
      dx2y2   :     0.003891
      dxy     :     0.012765
      f0      :     0.000216  f :     0.001638
      f+1     :     0.000331
      f-1     :     0.000183
      f+2     :     0.000184
      f-2     :     0.000188
      f+3     :     0.000329
      f-3     :     0.000207
  8 H s       :     0.639194  s :     0.639194
      pz      :     0.015612  p :     0.046892
      px      :     0.015458
      py      :     0.015822
  9 H s       :     0.871913  s :     0.871913
      pz      :     0.012502  p :     0.020399
      px      :     0.003523
      py      :     0.004374
 10 H s       :     0.878725  s :     0.878725
      pz      :     0.004037  p :     0.019041
      px      :     0.003661
      py      :     0.011343
 11 H s       :     0.864596  s :     0.864596
      pz      :     0.004466  p :     0.019696
      px      :     0.008508
      py      :     0.006722


                     *******************************
                     * LOEWDIN POPULATION ANALYSIS *
                     *******************************

----------------------
LOEWDIN ATOMIC CHARGES
----------------------
   0 C :   -0.014223
   1 O :   -0.013321
   2 H :   -0.000686
   3 H :   -0.000162
   4 H :   -0.000904
   5 H :   -0.003688
   6 C :   -0.395295
   7 O :   -0.059333
   8 H :    0.183614
   9 H :    0.092871
  10 H :    0.099089
  11 H :    0.112036

-------------------------------
LOEWDIN REDUCED ORBITAL CHARGES
-------------------------------
  0 C s       :     0.001763  s :     0.001763
      pz      :     0.004565  p :     0.011728
      px      :     0.005471
      py      :     0.001691
      dz2     :     0.000072  d :     0.000722
      dxz     :     0.000324
      dyz     :     0.000055
      dx2y2   :     0.000158
      dxy     :     0.000113
      f0      :     0.000001  f :     0.000011
      f+1     :     0.000002
      f-1     :     0.000001
      f+2     :     0.000003
      f-2     :     0.000002
      f+3     :     0.000001
      f-3     :     0.000001
  1 O s       :     0.001627  s :     0.001627
      pz      :     0.002468  p :     0.011338
      px      :     0.006267
      py      :     0.002603
      dz2     :     0.000020  d :     0.000346
      dxz     :     0.000104
      dyz     :     0.000052
      dx2y2   :     0.000028
      dxy     :     0.000143
      f0      :     0.000002  f :     0.000009
      f+1     :     0.000000
      f-1     :     0.000000
      f+2     :     0.000001
      f-2     :     0.000003
      f+3     :     0.000000
      f-3     :     0.000003
  2 H s       :     0.000679  s :     0.000679
      pz      :     0.000002  p :     0.000006
      px      :     0.000001
      py      :     0.000003
  3 H s       :     0.000158  s :     0.000158
      pz      :     0.000001  p :     0.000004
      px      :     0.000001
      py      :     0.000001
  4 H s       :     0.000901  s :     0.000901
      pz      :     0.000001  p :     0.000003
      px      :     0.000001
      py      :     0.000000
  5 H s       :     0.003661  s :     0.003661
      pz      :     0.000014  p :     0.000026
      px      :     0.000009
      py      :     0.000003
  6 C s       :     2.865451  s :     2.865451
      pz      :     1.052400  p :     3.056006
      px      :     0.926445
      py      :     1.077160
      dz2     :     0.129413  d :     0.416522
      dxz     :     0.077707
      dyz     :     0.026594
      dx2y2   :     0.071415
      dxy     :     0.111392
      f0      :     0.004710  f :     0.057317
      f+1     :     0.011992
      f-1     :     0.003574
      f+2     :     0.009827
      f-2     :     0.010825
      f+3     :     0.006671
      f-3     :     0.009718
  7 O s       :     3.368831  s :     3.368831
      pz      :     1.708121  p :     4.613862
      px      :     1.335264
      py      :     1.570477
      dz2     :     0.012773  d :     0.071968
      dxz     :     0.013919
      dyz     :     0.005708
      dx2y2   :     0.010966
      dxy     :     0.028602
      f0      :     0.000295  f :     0.004672
      f+1     :     0.000928
      f-1     :     0.000413
      f+2     :     0.000572
      f-2     :     0.000631
      f+3     :     0.001232
      f-3     :     0.000600
  8 H s       :     0.661352  s :     0.661352
      pz      :     0.042397  p :     0.155034
      px      :     0.048647
      py      :     0.063990
  9 H s       :     0.844111  s :     0.844111
      pz      :     0.037822  p :     0.063018
      px      :     0.011115
      py      :     0.014081
 10 H s       :     0.842907  s :     0.842907
      pz      :     0.012863  p :     0.058004
      px      :     0.011714
      py      :     0.033427
 11 H s       :     0.831170  s :     0.831170
      pz      :     0.013154  p :     0.056793
      px      :     0.023476
      py      :     0.020163


                      *****************************
                      * MAYER POPULATION ANALYSIS *
                      *****************************

  NA   - Mulliken gross atomic population
  ZA   - Total nuclear charge
  QA   - Mulliken gross atomic charge
  VA   - Mayer's total valence
  BVA  - Mayer's bonded valence
  FA   - Mayer's free valence

  ATOM       NA         ZA         QA         VA         BVA        FA
  0 C      0.0022     0.0000    -0.0022     0.0043     0.0043    -0.0000
  1 O      0.0013     0.0000    -0.0013     0.0025     0.0025    -0.0000
  2 H      0.0002     0.0000    -0.0002     0.0003     0.0003    -0.0000
  3 H      0.0003     0.0000    -0.0003     0.0007     0.0007    -0.0000
  4 H      0.0004     0.0000    -0.0004     0.0008     0.0008     0.0000
  5 H      0.0045     0.0000    -0.0045     0.0089     0.0089    -0.0000
  6 C      6.1700     6.0000    -0.1700     3.9370     3.9370     0.0000
  7 O      8.4608     8.0000    -0.4608     1.9093     1.9093     0.0000
  8 H      0.6861     1.0000     0.3139     0.9084     0.9084    -0.0000
  9 H      0.8923     1.0000     0.1077     0.9557     0.9557    -0.0000
 10 H      0.8978     1.0000     0.1022     0.9637     0.9637     0.0000
 11 H      0.8843     1.0000     0.1157     0.9589     0.9589    -0.0000

  Mayer bond orders larger than 0.1
B(  6-C ,  7-O ) :   1.0028 B(  6-C ,  9-H ) :   0.9742 B(  6-C , 10-H ) :   0.9762 
B(  6-C , 11-H ) :   0.9755 B(  7-O ,  8-H ) :   0.9007 

-------
TIMINGS
-------

Total SCF time: 0 days 0 hours 0 min 12 sec 

Total time                  ....      12.204 sec
Sum of individual times     ....      11.879 sec  ( 97.3%)

Fock matrix formation       ....      11.341 sec  ( 92.9%)
  XC integration            ....       3.297 sec  ( 29.1% of F)
    Basis function eval.    ....       0.060 sec  (  1.8% of XC)
    Density eval.           ....       0.056 sec  (  1.7% of XC)
    XC-Functional eval.     ....       0.082 sec  (  2.5% of XC)
    XC-Potential eval.      ....       0.066 sec  (  2.0% of XC)
Diagonalization             ....       0.058 sec  (  0.5%)
Density matrix formation    ....       0.005 sec  (  0.0%)
Population analysis         ....       0.017 sec  (  0.1%)
Initial guess               ....       0.106 sec  (  0.9%)
Orbital Transformation      ....       0.000 sec  (  0.0%)
Orbital Orthonormalization  ....       0.000 sec  (  0.0%)
DIIS solution               ....       0.027 sec  (  0.2%)
SOSCF solution              ....       0.021 sec  (  0.2%)
Grid generation             ....       0.304 sec  (  2.5%)


-------------------------------------------------------------------------------
                          DFT DISPERSION CORRECTION                            
                                                                               
                              DFTD3 V3.1  Rev 1                                
                              USING zero damping                               
-------------------------------------------------------------------------------
The omegaB97X-D3 functional is recognized. Fit by Chai et al.
Active option DFTDOPT                   ...         3   

molecular C6(AA) [au] = 208.738196 


            DFT-D V3
 parameters
 s6 scaling factor         :     1.0000 
 rs6 scaling factor        :     1.2810 
 s8 scaling factor         :     1.0000 
 rs8 scaling factor        :     1.0940 
 Damping factor alpha6     :    14.0000 
 Damping factor alpha8     :    16.0000 
 ad hoc parameters k1-k3   :    16.0000     1.3333    -4.0000 

 Edisp/kcal,au: -0.152176478565  -0.000242508629 
 E6   /kcal   :  -0.030573200 
 E8   /kcal   :  -0.121603279 
 % E8         :  79.909378766 

-------------------------   ----------------
Dispersion correction           -0.000242509
-------------------------   ----------------


-------------------------   --------------------
FINAL SINGLE POINT ENERGY      -115.735088628864
-------------------------   --------------------


                            ***************************************
                            *     ORCA property calculations      *
                            ***************************************

                                    ---------------------
                                    Active property flags
                                    ---------------------
   (+) Dipole Moment


------------------------------------------------------------------------------
                       ORCA ELECTRIC PROPERTIES CALCULATION
------------------------------------------------------------------------------

Dipole Moment Calculation                       ... on
Quadrupole Moment Calculation                   ... off
Polarizability Calculation                      ... off
GBWName                                         ... 16-8_DFT_B.gbw
Electron density file                           ... 16-8_DFT_B.scfp.tmp
The origin for moment calculation is the CENTER OF MASS  = (-11.986696,  4.070069 11.930547)

-------------
DIPOLE MOMENT
-------------
                                X             Y             Z
Electronic contribution:      1.46373      -0.63773      -0.86845
Nuclear contribution   :     -1.51723       1.23471       1.17655
                        -----------------------------------------
Total Dipole Moment    :     -0.05350       0.59698       0.30810
                        -----------------------------------------
Magnitude (a.u.)       :      0.67393
Magnitude (Debye)      :      1.71299



--------------------
Rotational spectrum 
--------------------
 
Rotational constants in cm-1:     4.241585     0.835470     0.804862 
Rotational constants in MHz : 127159.515403 25046.747593 24129.160488 

 Dipole components along the rotational axes: 
x,y,z [a.u.] :    -0.351803     0.559728     0.130839 
x,y,z [Debye]:    -0.894212     1.422716     0.332566 

 
------------------------------------------------------------------------------
                      ORCA CHELPG CHARGES GENERATION
------------------------------------------------------------------------------

GBW file                           ... 16-8_DFT_B.gbw

Reading the GBW file               ... done

Grid spacing                       ...     0.300000
Point Cut-Off                      ...     2.800000
Van-der-Waals Radii                ...        COSMO
Total charge                       ...            0


Number of points X direction       ...           35
Number of points Y direction       ...           25
Number of points Z direction       ...           33
Maximum number of possible points  ...        28875
Final number of points             ...         5999


CHELPG Charges            
--------------------------------
  0   C   :       0.002263
  1   O   :       0.002712
  2   H   :       0.000697
  3   H   :      -0.011082
  4   H   :      -0.003522
  5   H   :      -0.002821
  6   C   :      -0.007687
  7   O   :      -0.555107
  8   H   :       0.390629
  9   H   :       0.046735
 10   H   :       0.037715
 11   H   :       0.099467
--------------------------------
Total charge:     0.000000
--------------------------------

CHELPG charges calculated...

Timings for individual parts in CHELPG calculation:
Grid generation                 ...        0.001 sec (=   0.000 min)
Potential calculation           ...        1.257 sec (=   0.021 min)
Fit to the potential            ...        0.002 sec (=   0.000 min)
------------------------------------------------------------------------------


Timings for individual modules:

Sum of individual times         ...       14.536 sec (=   0.242 min)
GTO integral calculation        ...        0.661 sec (=   0.011 min)   4.5 %
SCF iterations                  ...       12.587 sec (=   0.210 min)  86.6 %
CHELPG charge generation        ...        1.288 sec (=   0.021 min)   8.9 %



                             ****ORCA TERMINATED NORMALLY****
TOTAL RUN TIME: 0 days 0 hours 1 minutes 3 seconds 518 msec
