
                                 *****************
                                 * O   R   C   A *
                                 *****************

           --- An Ab Initio, DFT and Semiempirical electronic structure package ---

                  #######################################################
                  #                        -***-                        #
                  #          Department of theory and spectroscopy      #
                  #               Directorship: Frank Neese             #
                  #        Max Planck Institute fuer Kohlenforschung    #
                  #                Kaiser Wilhelm Platz 1               #
                  #                 D-45470 Muelheim/Ruhr               #
                  #                      Germany                        #
                  #                                                     #
                  #                  All rights reserved                #
                  #                        -***-                        #
                  #######################################################


                         Program Version 4.1.2  - RELEASE  -


 With contributions from (in alphabetic order):
   Daniel Aravena         : Magnetic Properties
   Michael Atanasov       : Ab Initio Ligand Field Theory
   Alexander A. Auer      : GIAO ZORA
   Ute Becker             : Parallelization
   Giovanni Bistoni       : ED, Open-shell LED
   Martin Brehm           : Molecular dynamics
   Dmytro Bykov           : SCF Hessian
   Vijay G. Chilkuri      : MRCI spin determinant printing
   Dipayan Datta          : RHF DLPNO-CCSD density
   Achintya Kumar Dutta   : EOM-CC, STEOM-CC
   Dmitry Ganyushin       : Spin-Orbit,Spin-Spin,Magnetic field MRCI
   Miquel Garcia          : C-PCM Hessian
   Yang Guo               : DLPNO-NEVPT2, CIM, IAO-localization
   Andreas Hansen         : Spin unrestricted coupled pair/coupled cluster methods
   Benjamin Helmich-Paris : CASSCF linear response (MC-RPA)
   Lee Huntington         : MR-EOM, pCC
   Robert Izsak           : Overlap fitted RIJCOSX, COSX-SCS-MP3, EOM
   Christian Kollmar      : KDIIS, OOCD, Brueckner-CCSD(T), CCSD density
   Simone Kossmann        : Meta GGA functionals, TD-DFT gradient, OOMP2, MP2 Hessian
   Martin Krupicka        : AUTO-CI
   Lucas Lang             : DCDCAS
   Dagmar Lenk            : GEPOL surface, SMD
   Dimitrios Liakos       : Extrapolation schemes; parallel MDCI
   Dimitrios Manganas     : ROCIS; embedding schemes
   Dimitrios Pantazis     : SARC Basis sets
   Taras Petrenko         : DFT Hessian,TD-DFT gradient, ASA, ECA, R-Raman, ABS, FL, XAS/XES, NRVS
   Peter Pinski           : DLPNO-MP2, DLPNO-MP2 Gradient
   Christoph Reimann      : Effective Core Potentials
   Marius Retegan         : Local ZFS, SOC
   Christoph Riplinger    : Optimizer, TS searches, QM/MM, DLPNO-CCSD(T), (RO)-DLPNO pert. Triples
   Tobias Risthaus        : Range-separated hybrids, TD-DFT gradient, RPA, STAB
   Michael Roemelt        : Restricted open shell CIS
   Masaaki Saitow         : Open-shell DLPNO
   Barbara Sandhoefer     : DKH picture change effects
   Avijit Sen             : IP-ROCIS
   Kantharuban Sivalingam : CASSCF convergence, NEVPT2, FIC-MRCI
   Bernardo de Souza      : ESD, SOC TD-DFT
   Georgi Stoychev        : AutoAux, RI-MP2 NMR
   Willem Van den Heuvel  : Paramagnetic NMR
   Boris Wezisla          : Elementary symmetry handling
   Frank Wennmohs         : Technical directorship


 We gratefully acknowledge several colleagues who have allowed us to
 interface, adapt or use parts of their codes:
   Stefan Grimme, W. Hujo, H. Kruse,             : VdW corrections, initial TS optimization,
                  C. Bannwarth                     DFT functionals, gCP, sTDA/sTD-DF
   Ed Valeev                                     : LibInt (2-el integral package), F12 methods
   Garnet Chan, S. Sharma, J. Yang, R. Olivares  : DMRG
   Ulf Ekstrom                                   : XCFun DFT Library
   Mihaly Kallay                                 : mrcc  (arbitrary order and MRCC methods)
   Andreas Klamt, Michael Diedenhofen            : otool_cosmo (COSMO solvation model)
   Jiri Pittner, Ondrej Demel                    : Mk-CCSD
   Frank Weinhold                                : gennbo (NPA and NBO analysis)
   Christopher J. Cramer and Donald G. Truhlar   : smd solvation model
   Lars Goerigk                                  : TD-DFT with DH, B97 family of functionals
   V. Asgeirsson, H. Jonsson                     : NEB implementation
   FAccTs GmbH                                   : IRC, NEB, NEB-TS, Multilevel


 Your calculation uses the libint2 library for the computation of 2-el integrals
 For citations please refer to: http://libint.valeyev.net

 This ORCA versions uses:
   CBLAS   interface :  Fast vector & matrix operations
   LAPACKE interface :  Fast linear algebra routines
   SCALAPACK package :  Parallel linear algebra routines


Your calculation utilizes the atom-pairwise dispersion correction
with the zero-damping scheme (D30)
Cite in your paper:
S.Grimme, J.Antony, S.Ehrlich and H.Krieg, J.Chem.Phys., 132, (2010), 154104 
   

XCFun DFT library Copyright 2009-2010 Ulf Ekstrom and contributors.
See http://admol.org/xcfun for more information. This is free soft-
ware; see the source code for copying conditions. There is ABSOLUTELY
NO WARRANTY; not even for MERCHANTABILITY or FITNESS FOR A PARTICULAR
PURPOSE. For details see the documentation. Scientific users of this 
library should cite U. Ekstrom, L. Visscher, R. Bast, A. J. Thorvald-
sen and K. Ruud; J.Chem.Theor.Comp. 2010, DOI: 10.1021/ct100117s
XCFun Version 0.99 
----- Orbital basis set information -----
Your calculation utilizes the basis: def2-TZVP
   F. Weigend and R. Ahlrichs, Phys. Chem. Chem. Phys. 7, 3297 (2005).

================================================================================
                                        WARNINGS
                       Please study these warnings very carefully!
================================================================================


INFO   : the flag for use of LIBINT has been found!

Your calculation utilizes the atom-pairwise dispersion correction
with the zero-damping scheme (D30)
Cite in your paper:
S.Grimme, J.Antony, S.Ehrlich and H.Krieg, J.Chem.Phys., 132, (2010), 154104 
   

XCFun DFT library Copyright 2009-2010 Ulf Ekstrom and contributors.
See http://admol.org/xcfun for more information. This is free soft-
ware; see the source code for copying conditions. There is ABSOLUTELY
NO WARRANTY; not even for MERCHANTABILITY or FITNESS FOR A PARTICULAR
PURPOSE. For details see the documentation. Scientific users of this 
library should cite U. Ekstrom, L. Visscher, R. Bast, A. J. Thorvald-
sen and K. Ruud; J.Chem.Theor.Comp. 2010, DOI: 10.1021/ct100117s
XCFun Version 0.99 
----- Orbital basis set information -----
Your calculation utilizes the basis: def2-TZVP
   F. Weigend and R. Ahlrichs, Phys. Chem. Chem. Phys. 7, 3297 (2005).

================================================================================
                                        WARNINGS
                       Please study these warnings very carefully!
================================================================================


WARNING: MOInp is set but Guess=PModel. MOInp will be ignored!
         To read the initial guess from a file you must also specify
         'MORead' in the simple input or 'Guess MORead' in the %scf block


INFO   : the flag for use of LIBINT has been found!

Your calculation utilizes the atom-pairwise dispersion correction
with the zero-damping scheme (D30)
Cite in your paper:
S.Grimme, J.Antony, S.Ehrlich and H.Krieg, J.Chem.Phys., 132, (2010), 154104 
   

XCFun DFT library Copyright 2009-2010 Ulf Ekstrom and contributors.
See http://admol.org/xcfun for more information. This is free soft-
ware; see the source code for copying conditions. There is ABSOLUTELY
NO WARRANTY; not even for MERCHANTABILITY or FITNESS FOR A PARTICULAR
PURPOSE. For details see the documentation. Scientific users of this 
library should cite U. Ekstrom, L. Visscher, R. Bast, A. J. Thorvald-
sen and K. Ruud; J.Chem.Theor.Comp. 2010, DOI: 10.1021/ct100117s
XCFun Version 0.99 
----- Orbital basis set information -----
Your calculation utilizes the basis: def2-TZVP
   F. Weigend and R. Ahlrichs, Phys. Chem. Chem. Phys. 7, 3297 (2005).

================================================================================
                                        WARNINGS
                       Please study these warnings very carefully!
================================================================================


WARNING: MOInp is set but Guess=PModel. MOInp will be ignored!
         To read the initial guess from a file you must also specify
         'MORead' in the simple input or 'Guess MORead' in the %scf block


INFO   : the flag for use of LIBINT has been found!

================================================================================
                                       INPUT FILE
================================================================================
NAME = 8-90.in
|  1> #Run DFT-D3 single point of the dimer
|  2> ! wB97X-D3 def2-TZVP TIGHTSCF CHELPG PMODEL PAL8
|  3> 
|  4> %base "8-90_DFT_AB"
|  5> 
|  6> %scf
|  7> MaxIter 1000
|  8> end
|  9> 
| 10> * xyz 0 1
| 11>   C                      -4.288569            -3.454093            4.046615            
| 12>   O                      -4.072984            -3.445141            5.450072            
| 13>   H                      -3.608082            -2.611545            5.566733            
| 14>   H                      -3.328369            -3.735090            3.527382            
| 15>   H                      -4.996269            -4.232074            3.685555            
| 16>   H                      -4.566862            -2.490800            3.649591            
| 17>   C                      -8.722772            -5.701760            3.170103            
| 18>   O                      -8.851044            -5.193375            1.913721            
| 19>   H                      -9.216482            -4.245808            1.955652            
| 20>   H                      -8.257853            -6.713233            3.098251            
| 21>   H                      -8.085925            -5.080050            3.783799            
| 22>   H                      -9.657837            -5.779240            3.644366            
| 23> *
| 24> 
| 25> #Run DFT-D3 single point of the molecule with dimer basis set
| 26> $new_job
| 27> %base "8-90_DFT_A"
| 28> ! wB97X-D3 def2-TZVP TIGHTSCF CHELPG PMODEL
| 29> 
| 30> %scf
| 31> MaxIter 1000
| 32> end
| 33> 
| 34> * xyz 0 1
| 35>   C                      -4.288569            -3.454093            4.046615            
| 36>   O                      -4.072984            -3.445141            5.450072            
| 37>   H                      -3.608082            -2.611545            5.566733            
| 38>   H                      -3.328369            -3.735090            3.527382            
| 39>   H                      -4.996269            -4.232074            3.685555            
| 40>   H                      -4.566862            -2.490800            3.649591            
| 41>   C                    : -8.722772            -5.701760            3.170103            
| 42>   O                    : -8.851044            -5.193375            1.913721            
| 43>   H                    : -9.216482            -4.245808            1.955652            
| 44>   H                    : -8.257853            -6.713233            3.098251            
| 45>   H                    : -8.085925            -5.080050            3.783799            
| 46>   H                    : -9.657837            -5.779240            3.644366            
| 47> *
| 48> 
| 49> #Run DFT-D3 single point of the particle with dimer basis set
| 50> $new_job
| 51> %base "8-90_DFT_B"
| 52> ! wB97X-D3 def2-TZVP TIGHTSCF CHELPG PMODEL
| 53> 
| 54> %scf
| 55> MaxIter 1000
| 56> end
| 57> 
| 58> * xyz 0 1
| 59>   C                    : -4.288569            -3.454093            4.046615            
| 60>   O                    : -4.072984            -3.445141            5.450072            
| 61>   H                    : -3.608082            -2.611545            5.566733            
| 62>   H                    : -3.328369            -3.735090            3.527382            
| 63>   H                    : -4.996269            -4.232074            3.685555            
| 64>   H                    : -4.566862            -2.490800            3.649591            
| 65>   C                      -8.722772            -5.701760            3.170103            
| 66>   O                      -8.851044            -5.193375            1.913721            
| 67>   H                      -9.216482            -4.245808            1.955652            
| 68>   H                      -8.257853            -6.713233            3.098251            
| 69>   H                      -8.085925            -5.080050            3.783799            
| 70>   H                      -9.657837            -5.779240            3.644366            
| 71> *
| 72> 
| 73>                          ****END OF INPUT****
================================================================================


                 $$$$$$$$$$$$$$$$$$$$$$$$$$$$$$$$$$$$$$$$$$$$$$ 
                 $ THERE ARE  3 JOBS TO BE PROCESSED THIS RUN $
                 $$$$$$$$$$$$$$$$$$$$$$$$$$$$$$$$$$$$$$$$$$$$$$ 




                 $$$$$$$$$$$$$$$$  JOB NUMBER  1 $$$$$$$$$$$$$$


                       ****************************
                       * Single Point Calculation *
                       ****************************

---------------------------------
CARTESIAN COORDINATES (ANGSTROEM)
---------------------------------
  C     -4.288569   -3.454093    4.046615
  O     -4.072984   -3.445141    5.450072
  H     -3.608082   -2.611545    5.566733
  H     -3.328369   -3.735090    3.527382
  H     -4.996269   -4.232074    3.685555
  H     -4.566862   -2.490800    3.649591
  C     -8.722772   -5.701760    3.170103
  O     -8.851044   -5.193375    1.913721
  H     -9.216482   -4.245808    1.955652
  H     -8.257853   -6.713233    3.098251
  H     -8.085925   -5.080050    3.783799
  H     -9.657837   -5.779240    3.644366

----------------------------
CARTESIAN COORDINATES (A.U.)
----------------------------
  NO LB      ZA    FRAG     MASS         X           Y           Z
   0 C     6.0000    0    12.011   -8.104221   -6.527290    7.646994
   1 O     8.0000    0    15.999   -7.696824   -6.510373   10.299143
   2 H     1.0000    0     1.008   -6.818287   -4.935105   10.519601
   3 H     1.0000    0     1.008   -6.289706   -7.058297    6.665786
   4 H     1.0000    0     1.008   -9.441580   -7.997461    6.964690
   5 H     1.0000    0     1.008   -8.630118   -4.706930    6.896727
   6 C     6.0000    0    12.011  -16.483650  -10.774765    5.990626
   7 O     8.0000    0    15.999  -16.726049   -9.814056    3.616409
   8 H     1.0000    0     1.008  -17.416627   -8.023414    3.695647
   9 H     1.0000    0     1.008  -15.605081  -12.686172    5.854846
  10 H     1.0000    0     1.008  -15.280184   -9.599903    7.150344
  11 H     1.0000    0     1.008  -18.250667  -10.921181    6.886854

--------------------------------
INTERNAL COORDINATES (ANGSTROEM)
--------------------------------
 C      0   0   0     0.000000000000     0.00000000     0.00000000
 O      1   0   0     1.419946682583     0.00000000     0.00000000
 H      2   1   0     0.961574723951   101.46587193     0.00000000
 H      1   2   3     1.127185105605   109.11915943    77.21174889
 H      1   2   3     1.111961352728   114.95929824   191.79655132
 H      1   2   3     1.078428696889   113.41718439   319.50747839
 C      5   1   2     4.038872653589   152.03707097    75.81271951
 O      7   5   1     1.361398084372    93.94659694    94.60598172
 H      8   7   5     1.016457751259   110.11611234   272.22953759
 H      7   5   1     1.115522306453    87.34198389   203.04658277
 H      7   5   1     1.081073635755    34.38715279   331.48916761
 H      7   5   1     1.051320644615   142.17396573   321.97078555

---------------------------
INTERNAL COORDINATES (A.U.)
---------------------------
 C      0   0   0     0.000000000000     0.00000000     0.00000000
 O      1   0   0     2.683310354852     0.00000000     0.00000000
 H      2   1   0     1.817112885568   101.46587193     0.00000000
 H      1   2   3     2.130071151829   109.11915943    77.21174889
 H      1   2   3     2.101302428161   114.95929824   191.79655132
 H      1   2   3     2.037934892082   113.41718439   319.50747839
 C      5   1   2     7.632363205067   152.03707097    75.81271951
 O      7   5   1     2.572669538709    93.94659694    94.60598172
 H      8   7   5     1.920826776580   110.11611234   272.22953759
 H      7   5   1     2.108031655476    87.34198389   203.04658277
 H      7   5   1     2.042933102180    34.38715279   331.48916761
 H      7   5   1     1.986708097260   142.17396573   321.97078555

---------------------
BASIS SET INFORMATION
---------------------
There are 3 groups of distinct atoms

 Group   1 Type C   : 11s6p2d1f contracted to 5s3p2d1f pattern {62111/411/11/1}
 Group   2 Type O   : 11s6p2d1f contracted to 5s3p2d1f pattern {62111/411/11/1}
 Group   3 Type H   : 5s1p contracted to 3s1p pattern {311/1}

Atom   0C    basis set group =>   1
Atom   1O    basis set group =>   2
Atom   2H    basis set group =>   3
Atom   3H    basis set group =>   3
Atom   4H    basis set group =>   3
Atom   5H    basis set group =>   3
Atom   6C    basis set group =>   1
Atom   7O    basis set group =>   2
Atom   8H    basis set group =>   3
Atom   9H    basis set group =>   3
Atom  10H    basis set group =>   3
Atom  11H    basis set group =>   3


           ************************************************************
           *        Program running with 8 parallel MPI-processes     *
           *              working on a common directory               *
           ************************************************************
------------------------------------------------------------------------------
                           ORCA GTO INTEGRAL CALCULATION
------------------------------------------------------------------------------

                         BASIS SET STATISTICS AND STARTUP INFO

 # of primitive gaussian shells          ...  128
 # of primitive gaussian functions       ...  248
 # of contracted shells                  ...   76
 # of contracted basis functions         ...  172
 Highest angular momentum                ...    3
 Maximum contraction depth               ...    6
 Integral package used                   ... LIBINT
 Integral threshhold            Thresh   ...  2.500e-11
 Primitive cut-off              TCut     ...  2.500e-12


------------------------------ INTEGRAL EVALUATION ----------------------------


 * One electron integrals 
 Pre-screening matrix                    ... done
 Shell pair data                         ... done (   0.001 sec)



           ************************************************************
           *        Program running with 8 parallel MPI-processes     *
           *              working on a common directory               *
           ************************************************************
-------------------------------------------------------------------------------
                                 ORCA SCF
-------------------------------------------------------------------------------

------------
SCF SETTINGS
------------
Hamiltonian:
 Density Functional     Method          .... DFT(GTOs)
 Exchange Functional    Exchange        .... WB97X-D3
 Correlation Functional Correlation     .... WB97X-D3
 Gradients option       PostSCFGGA      .... off
 Hybrid DFT is turned on
   Fraction HF Exchange ScalHFX         ....  0.195728
   Scaling of DF-GGA-X  ScalDFX         ....  0.000000
   Scaling of DF-GGA-C  ScalDFC         ....  1.000000
   Scaling of DF-LDA-C  ScalLDAC        ....  1.000000
   Perturbative correction              ....  0.000000
   Density functional embedding theory  .... OFF
 Long-range corrected/Screened/Range-Separated Hybrid DFT is turned on
   Amount of maximum screened exact exchange              ....  0.804272
   Range separation parameter mu (erf(mu*r12)/r12)        ....  0.250000


General Settings:
 Integral files         IntName         .... 8-90_DFT_AB
 Hartree-Fock type      HFTyp           .... RHF
 Total Charge           Charge          ....    0
 Multiplicity           Mult            ....    1
 Number of Electrons    NEL             ....   36
 Basis Dimension        Dim             ....  172
 Nuclear Repulsion      ENuc            ....    112.4260043804 Eh

Convergence Acceleration:
 DIIS                   CNVDIIS         .... on
   Start iteration      DIISMaxIt       ....    12
   Startup error        DIISStart       ....  0.200000
   # of expansion vecs  DIISMaxEq       ....     5
   Bias factor          DIISBfac        ....   1.050
   Max. coefficient     DIISMaxC        ....  10.000
 Newton-Raphson         CNVNR           .... off
 SOSCF                  CNVSOSCF        .... on
   Start iteration      SOSCFMaxIt      ....   150
   Startup grad/error   SOSCFStart      ....  0.003300
 Level Shifting         CNVShift        .... on
   Level shift para.    LevelShift      ....    0.2500
   Turn off err/grad.   ShiftErr        ....    0.0010
 Zerner damping         CNVZerner       .... off
 Static damping         CNVDamp         .... on
   Fraction old density DampFac         ....    0.7000
   Max. Damping (<1)    DampMax         ....    0.9800
   Min. Damping (>=0)   DampMin         ....    0.0000
   Turn off err/grad.   DampErr         ....    0.1000
 Fernandez-Rico         CNVRico         .... off

SCF Procedure:
 Maximum # iterations   MaxIter         ....  1000
 SCF integral mode      SCFMode         .... Direct
   Integral package                     .... LIBINT
 Reset frequency        DirectResetFreq ....    20
 Integral Threshold     Thresh          ....  2.500e-11 Eh
 Primitive CutOff       TCut            ....  2.500e-12 Eh

Convergence Tolerance:
 Convergence Check Mode ConvCheckMode   .... Total+1el-Energy
 Convergence forced     ConvForced      .... 0
 Energy Change          TolE            ....  1.000e-08 Eh
 1-El. energy change                    ....  1.000e-05 Eh
 Orbital Gradient       TolG            ....  1.000e-05
 Orbital Rotation angle TolX            ....  1.000e-05
 DIIS Error             TolErr          ....  5.000e-07


Diagonalization of the overlap matrix:
Smallest eigenvalue                        ... 1.427e-03
Time for diagonalization                   ...    0.004 sec
Threshold for overlap eigenvalues          ... 1.000e-08
Number of eigenvalues below threshold      ... 0
Time for construction of square roots      ...    0.006 sec
Total time needed                          ...    0.010 sec

-------------------
DFT GRID GENERATION
-------------------

General Integration Accuracy     IntAcc      ...  4.340
Radial Grid Type                 RadialGrid  ... Gauss-Chebyshev
Angular Grid (max. acc.)         AngularGrid ... Lebedev-110
Angular grid pruning method      GridPruning ... 3 (G Style)
Weight generation scheme         WeightScheme... Becke
Basis function cutoff            BFCut       ...    1.0000e-11
Integration weight cutoff        WCut        ...    1.0000e-14
Grids for H and He will be reduced by one unit

# of grid points (after initial pruning)     ...  13096 (   0.0 sec)
# of grid points (after weights+screening)   ...  12592 (   0.0 sec)
nearest neighbour list constructed           ...    0.0 sec
Grid point re-assignment to atoms done       ...    0.0 sec
Grid point division into batches done        ...    0.0 sec
Reduced shell lists constructed in    0.0 sec

Total number of grid points                  ...    12592
Total number of batches                      ...      204
Average number of points per batch           ...       61
Average number of grid points per atom       ...     1049
Average number of shells per batch           ...    44.93 (59.11%)
Average number of basis functions per batch  ...    97.22 (56.52%)
Average number of large shells per batch     ...    36.59 (81.45%)
Average number of large basis fcns per batch ...    81.78 (84.11%)
Maximum spatial batch extension              ...  19.49, 16.74, 16.66 au
Average spatial batch extension              ...   0.41,  0.38,  0.38 au

Time for grid setup =    0.048 sec

------------------------------
INITIAL GUESS: MODEL POTENTIAL
------------------------------
Loading Hartree-Fock densities                     ... done
Calculating cut-offs                               ... done
Setting up the integral package                    ... done
Initializing the effective Hamiltonian             ... done
Starting the Coulomb interaction                   ... done (   0.0 sec)
Reading the grid                                   ... done
Mapping shells                                     ... done
Starting the XC term evaluation                    ... done (   0.0 sec)
  promolecular density results
     # of electrons  =     35.992950216
     EX              =    -28.863486839
     EC              =     -1.152013170
     EX+EC           =    -30.015500009
Transforming the Hamiltonian                       ... done (   0.0 sec)
Diagonalizing the Hamiltonian                      ... done (   0.0 sec)
Back transforming the eigenvectors                 ... done (   0.0 sec)
Now organizing SCF variables                       ... done
                      ------------------
                      INITIAL GUESS DONE (   0.2 sec)
                      ------------------
--------------
SCF ITERATIONS
--------------
ITER       Energy         Delta-E        Max-DP      RMS-DP      [F,P]     Damp
               ***  Starting incremental Fock matrix formation  ***
  0   -231.2873877251   0.000000000000 0.03711739  0.00106420  0.2492747 0.7000
  1   -231.3626656740  -0.075277948852 0.02233216  0.00075329  0.1255392 0.7000
                               ***Turning on DIIS***
  2   -231.3973095918  -0.034643917823 0.03411738  0.00135864  0.0538045 0.0000
  3   -231.4535023493  -0.056192757508 0.01819345  0.00049594  0.0619220 0.0000
  4   -231.4627889498  -0.009286600468 0.00407774  0.00009682  0.0064570 0.0000
                      *** Initiating the SOSCF procedure ***
                           *** Shutting down DIIS ***
                      *** Re-Reading the Fockian *** 
                      *** Removing any level shift *** 
ITER      Energy       Delta-E        Grad      Rot      Max-DP    RMS-DP
  5   -231.46297876  -0.0001898062  0.000430  0.000430  0.000768  0.000033
               *** Restarting incremental Fock matrix formation ***
  6   -231.46299632  -0.0000175650  0.000132  0.000183  0.000472  0.000020
  7   -231.46299791  -0.0000015873  0.000045  0.000094  0.000217  0.000009
  8   -231.46299803  -0.0000001199  0.000032  0.000021  0.000053  0.000001
  9   -231.46299806  -0.0000000320  0.000011  0.000009  0.000019  0.000001
 10   -231.46299806  -0.0000000033  0.000003  0.000003  0.000005  0.000000
                  ***Gradient check signals convergence***
              ***Rediagonalizing the Fockian in SOSCF/NRSCF***

               *****************************************************
               *                     SUCCESS                       *
               *           SCF CONVERGED AFTER  11 CYCLES          *
               *****************************************************

Setting up the final grid:

General Integration Accuracy     IntAcc      ...  4.670
Radial Grid Type                 RadialGrid  ... Gauss-Chebyshev
Angular Grid (max. acc.)         AngularGrid ... Lebedev-302
Angular grid pruning method      GridPruning ... 3 (G Style)
Weight generation scheme         WeightScheme... Becke
Basis function cutoff            BFCut       ...    1.0000e-11
Integration weight cutoff        WCut        ...    1.0000e-14
Grids for H and He will be reduced by one unit

# of grid points (after initial pruning)     ...  52000 (   0.0 sec)
# of grid points (after weights+screening)   ...  49570 (   0.0 sec)
nearest neighbour list constructed           ...    0.0 sec
Grid point re-assignment to atoms done       ...    0.0 sec
Grid point division into batches done        ...    0.2 sec
Reduced shell lists constructed in    0.2 sec

Total number of grid points                  ...    49570
Total number of batches                      ...      780
Average number of points per batch           ...       63
Average number of grid points per atom       ...     4131
Average number of shells per batch           ...    43.05 (56.65%)
Average number of basis functions per batch  ...    93.13 (54.15%)
Average number of large shells per batch     ...    34.39 (79.89%)
Average number of large basis fcns per batch ...    77.26 (82.96%)
Maximum spatial batch extension              ...  14.20, 13.96, 16.63 au
Average spatial batch extension              ...   0.26,  0.25,  0.26 au

Final grid set up in    0.3 sec
Final integration                            ... done (   0.1 sec)
Change in XC energy                          ...     0.000174212
Integrated number of electrons               ...    36.000015672
Previous integrated no of electrons          ...    35.999201253

----------------
TOTAL SCF ENERGY
----------------

Total Energy       :         -231.46282385 Eh           -6298.42364 eV

Components:
Nuclear Repulsion  :          112.42600438 Eh            3059.26711 eV
Electronic Energy  :         -343.88882823 Eh           -9357.69075 eV
One Electron Energy:         -537.65479918 Eh          -14630.33088 eV
Two Electron Energy:          193.76597094 Eh            5272.64013 eV

Virial components:
Potential Energy   :         -461.97487067 Eh          -12570.97533 eV
Kinetic Energy     :          230.51204682 Eh            6272.55168 eV
Virial Ratio       :            2.00412463


DFT components:
N(Alpha)           :       18.000007835991 electrons
N(Beta)            :       18.000007835991 electrons
N(Total)           :       36.000015671982 electrons
E(XC)              :      -21.308447076184 Eh       
DFET-embed. en.    :        0.000000000000 Eh       

---------------
SCF CONVERGENCE
---------------

  Last Energy change         ...   -3.4865e-10  Tolerance :   1.0000e-08
  Last MAX-Density change    ...    2.1144e-06  Tolerance :   1.0000e-07
  Last RMS-Density change    ...    6.7771e-08  Tolerance :   5.0000e-09
  Last Orbital Gradient      ...    9.4915e-07  Tolerance :   1.0000e-05
  Last Orbital Rotation      ...    8.1086e-07  Tolerance :   1.0000e-05

             **** THE GBW FILE WAS UPDATED (8-90_DFT_AB.gbw) ****
             **** DENSITY FILE WAS UPDATED (8-90_DFT_AB.scfp.tmp) ****
             **** ENERGY FILE WAS UPDATED (8-90_DFT_AB.en.tmp) ****
----------------
ORBITAL ENERGIES
----------------

  NO   OCC          E(Eh)            E(eV) 
   0   2.0000     -19.235097      -523.4136 
   1   2.0000     -19.231129      -523.3056 
   2   2.0000     -10.318181      -280.7720 
   3   2.0000     -10.302453      -280.3440 
   4   2.0000      -1.141791       -31.0697 
   5   2.0000      -1.140630       -31.0381 
   6   2.0000      -0.791649       -21.5419 
   7   2.0000      -0.789188       -21.4749 
   8   2.0000      -0.615776       -16.7561 
   9   2.0000      -0.611854       -16.6494 
  10   2.0000      -0.551156       -14.9977 
  11   2.0000      -0.536440       -14.5973 
  12   2.0000      -0.529754       -14.4153 
  13   2.0000      -0.528135       -14.3713 
  14   2.0000      -0.443753       -12.0751 
  15   2.0000      -0.424378       -11.5479 
  16   2.0000      -0.372413       -10.1339 
  17   2.0000      -0.368089       -10.0162 
  18   0.0000       0.103358         2.8125 
  19   0.0000       0.114822         3.1245 
  20   0.0000       0.146236         3.9793 
  21   0.0000       0.162679         4.4267 
  22   0.0000       0.191004         5.1975 
  23   0.0000       0.197859         5.3840 
  24   0.0000       0.205184         5.5833 
  25   0.0000       0.212348         5.7783 
  26   0.0000       0.233836         6.3630 
  27   0.0000       0.239891         6.5278 
  28   0.0000       0.304534         8.2868 
  29   0.0000       0.313099         8.5199 
  30   0.0000       0.321690         8.7536 
  31   0.0000       0.355341         9.6693 
  32   0.0000       0.393284        10.7018 
  33   0.0000       0.426968        11.6184 
  34   0.0000       0.456846        12.4314 
  35   0.0000       0.460557        12.5324 
  36   0.0000       0.476557        12.9678 
  37   0.0000       0.496520        13.5110 
  38   0.0000       0.524810        14.2808 
  39   0.0000       0.540450        14.7064 
  40   0.0000       0.547885        14.9087 
  41   0.0000       0.553257        15.0549 
  42   0.0000       0.573973        15.6186 
  43   0.0000       0.587029        15.9739 
  44   0.0000       0.599436        16.3115 
  45   0.0000       0.609927        16.5970 
  46   0.0000       0.617444        16.8015 
  47   0.0000       0.646026        17.5793 
  48   0.0000       0.667823        18.1724 
  49   0.0000       0.676432        18.4067 
  50   0.0000       0.763227        20.7685 
  51   0.0000       0.797958        21.7136 
  52   0.0000       0.806776        21.9535 
  53   0.0000       0.840504        22.8713 
  54   0.0000       0.863922        23.5085 
  55   0.0000       0.893720        24.3194 
  56   0.0000       0.983207        26.7544 
  57   0.0000       0.997222        27.1358 
  58   0.0000       1.017908        27.6987 
  59   0.0000       1.041045        28.3283 
  60   0.0000       1.106697        30.1147 
  61   0.0000       1.130056        30.7504 
  62   0.0000       1.363008        37.0893 
  63   0.0000       1.388563        37.7847 
  64   0.0000       1.488799        40.5123 
  65   0.0000       1.507218        41.0135 
  66   0.0000       1.551288        42.2127 
  67   0.0000       1.567525        42.6545 
  68   0.0000       1.597269        43.4639 
  69   0.0000       1.606013        43.7018 
  70   0.0000       1.622724        44.1566 
  71   0.0000       1.624192        44.1965 
  72   0.0000       1.643536        44.7229 
  73   0.0000       1.648681        44.8629 
  74   0.0000       1.674782        45.5731 
  75   0.0000       1.675866        45.6026 
  76   0.0000       1.701654        46.3044 
  77   0.0000       1.731337        47.1121 
  78   0.0000       1.766756        48.0759 
  79   0.0000       1.809908        49.2501 
  80   0.0000       1.951732        53.1093 
  81   0.0000       1.966909        53.5223 
  82   0.0000       2.011639        54.7395 
  83   0.0000       2.024729        55.0957 
  84   0.0000       2.051115        55.8137 
  85   0.0000       2.062361        56.1197 
  86   0.0000       2.073076        56.4113 
  87   0.0000       2.110155        57.4202 
  88   0.0000       2.123340        57.7790 
  89   0.0000       2.128827        57.9283 
  90   0.0000       2.234851        60.8134 
  91   0.0000       2.258700        61.4624 
  92   0.0000       2.319690        63.1220 
  93   0.0000       2.331274        63.4372 
  94   0.0000       2.364328        64.3366 
  95   0.0000       2.376048        64.6555 
  96   0.0000       2.397247        65.2324 
  97   0.0000       2.412876        65.6577 
  98   0.0000       2.448736        66.6335 
  99   0.0000       2.467228        67.1367 
 100   0.0000       2.510597        68.3168 
 101   0.0000       2.513210        68.3879 
 102   0.0000       2.571265        69.9677 
 103   0.0000       2.602199        70.8094 
 104   0.0000       2.632909        71.6451 
 105   0.0000       2.662944        72.4624 
 106   0.0000       2.681012        72.9541 
 107   0.0000       2.721594        74.0583 
 108   0.0000       2.796623        76.1000 
 109   0.0000       2.848713        77.5174 
 110   0.0000       2.878587        78.3303 
 111   0.0000       2.887323        78.5681 
 112   0.0000       2.899473        78.8987 
 113   0.0000       2.902524        78.9817 
 114   0.0000       2.972339        80.8814 
 115   0.0000       3.004270        81.7503 
 116   0.0000       3.098645        84.3184 
 117   0.0000       3.127514        85.1040 
 118   0.0000       3.139008        85.4167 
 119   0.0000       3.191319        86.8402 
 120   0.0000       3.234521        88.0158 
 121   0.0000       3.321792        90.3906 
 122   0.0000       3.354936        91.2925 
 123   0.0000       3.417543        92.9961 
 124   0.0000       3.420506        93.0767 
 125   0.0000       3.473285        94.5129 
 126   0.0000       3.501687        95.2857 
 127   0.0000       3.520695        95.8030 
 128   0.0000       3.595170        97.8295 
 129   0.0000       3.632748        98.8521 
 130   0.0000       3.667635        99.8014 
 131   0.0000       3.672292        99.9281 
 132   0.0000       3.682808       100.2143 
 133   0.0000       3.697199       100.6059 
 134   0.0000       3.956279       107.6558 
 135   0.0000       4.035527       109.8123 
 136   0.0000       4.228878       115.0736 
 137   0.0000       4.246205       115.5451 
 138   0.0000       4.255993       115.8115 
 139   0.0000       4.288442       116.6944 
 140   0.0000       4.400115       119.7332 
 141   0.0000       4.451453       121.1302 
 142   0.0000       4.547705       123.7493 
 143   0.0000       4.564537       124.2074 
 144   0.0000       5.357621       145.7883 
 145   0.0000       5.360833       145.8757 
 146   0.0000       5.432832       147.8349 
 147   0.0000       5.476327       149.0184 
 148   0.0000       5.524027       150.3164 
 149   0.0000       5.550344       151.0325 
 150   0.0000       5.731355       155.9581 
 151   0.0000       5.808020       158.0443 
 152   0.0000       5.875947       159.8927 
 153   0.0000       5.929348       161.3458 
 154   0.0000       6.015840       163.6993 
 155   0.0000       6.029269       164.0648 
 156   0.0000       6.247769       170.0104 
 157   0.0000       6.329411       172.2320 
 158   0.0000       6.527478       177.6217 
 159   0.0000       6.537371       177.8909 
 160   0.0000       6.729452       183.1177 
 161   0.0000       6.771779       184.2695 
 162   0.0000       6.802170       185.0964 
 163   0.0000       6.847371       186.3264 
 164   0.0000       7.002387       190.5446 
 165   0.0000       7.043974       191.6763 
 166   0.0000       7.194931       195.7840 
 167   0.0000       7.199516       195.9088 
 168   0.0000      22.346221       608.0716 
 169   0.0000      22.606611       615.1571 
 170   0.0000      43.636698      1187.4149 
 171   0.0000      43.709884      1189.4064 

                    ********************************
                    * MULLIKEN POPULATION ANALYSIS *
                    ********************************

-----------------------
MULLIKEN ATOMIC CHARGES
-----------------------
   0 C :   -0.187028
   1 O :   -0.459951
   2 H :    0.315346
   3 H :    0.099935
   4 H :    0.127122
   5 H :    0.105048
   6 C :   -0.146395
   7 O :   -0.476807
   8 H :    0.318070
   9 H :    0.110864
  10 H :    0.093447
  11 H :    0.100349
Sum of atomic charges:    0.0000000

--------------------------------
MULLIKEN REDUCED ORBITAL CHARGES
--------------------------------
  0 C s       :     3.232558  s :     3.232558
      pz      :     0.697745  p :     2.849883
      px      :     1.079919
      py      :     1.072219
      dz2     :     0.015406  d :     0.097208
      dxz     :     0.039111
      dyz     :     0.031365
      dx2y2   :     0.005987
      dxy     :     0.005339
      f0      :     0.002433  f :     0.007378
      f+1     :     0.002308
      f-1     :     0.001915
      f+2     :     0.000021
      f-2     :     0.000151
      f+3     :     0.000313
      f-3     :     0.000237
  1 O s       :     3.807968  s :     3.807968
      pz      :     1.352266  p :     4.619209
      px      :     1.758724
      py      :     1.508219
      dz2     :     0.013156  d :     0.031192
      dxz     :     0.004305
      dyz     :     0.004593
      dx2y2   :     0.003058
      dxy     :     0.006079
      f0      :     0.000356  f :     0.001581
      f+1     :     0.000292
      f-1     :     0.000244
      f+2     :     0.000031
      f-2     :     0.000077
      f+3     :     0.000497
      f-3     :     0.000085
  2 H s       :     0.637574  s :     0.637574
      pz      :     0.011243  p :     0.047081
      px      :     0.017700
      py      :     0.018138
  3 H s       :     0.881280  s :     0.881280
      pz      :     0.004518  p :     0.018785
      px      :     0.009682
      py      :     0.004586
  4 H s       :     0.853291  s :     0.853291
      pz      :     0.003635  p :     0.019586
      px      :     0.007758
      py      :     0.008193
  5 H s       :     0.874959  s :     0.874959
      pz      :     0.004193  p :     0.019993
      px      :     0.005083
      py      :     0.010717
  6 C s       :     3.213653  s :     3.213653
      pz      :     0.736281  p :     2.822193
      px      :     1.056038
      py      :     1.029875
      dz2     :     0.026988  d :     0.102030
      dxz     :     0.035576
      dyz     :     0.019439
      dx2y2   :     0.009437
      dxy     :     0.010590
      f0      :     0.002504  f :     0.008519
      f+1     :     0.002050
      f-1     :     0.001514
      f+2     :     0.000859
      f-2     :     0.001072
      f+3     :     0.000470
      f-3     :     0.000049
  7 O s       :     3.794924  s :     3.794924
      pz      :     1.455582  p :     4.648195
      px      :     1.828471
      py      :     1.364142
      dz2     :     0.012787  d :     0.031954
      dxz     :     0.005109
      dyz     :     0.005457
      dx2y2   :     0.004461
      dxy     :     0.004141
      f0      :     0.000271  f :     0.001733
      f+1     :     0.000233
      f-1     :     0.000384
      f+2     :     0.000149
      f-2     :     0.000123
      f+3     :     0.000393
      f-3     :     0.000181
  8 H s       :     0.641021  s :     0.641021
      pz      :     0.009185  p :     0.040909
      px      :     0.014962
      py      :     0.016762
  9 H s       :     0.870074  s :     0.870074
      pz      :     0.002536  p :     0.019062
      px      :     0.005424
      py      :     0.011102
 10 H s       :     0.886482  s :     0.886482
      pz      :     0.006211  p :     0.020071
      px      :     0.007443
      py      :     0.006417
 11 H s       :     0.879205  s :     0.879205
      pz      :     0.005394  p :     0.020446
      px      :     0.010592
      py      :     0.004460


                     *******************************
                     * LOEWDIN POPULATION ANALYSIS *
                     *******************************

----------------------
LOEWDIN ATOMIC CHARGES
----------------------
   0 C :   -0.394344
   1 O :   -0.080810
   2 H :    0.174268
   3 H :    0.099853
   4 H :    0.111408
   5 H :    0.089781
   6 C :   -0.425644
   7 O :   -0.064440
   8 H :    0.203053
   9 H :    0.114985
  10 H :    0.088405
  11 H :    0.083484

-------------------------------
LOEWDIN REDUCED ORBITAL CHARGES
-------------------------------
  0 C s       :     2.869008  s :     2.869008
      pz      :     0.840857  p :     3.059037
      px      :     1.112410
      py      :     1.105770
      dz2     :     0.110510  d :     0.411416
      dxz     :     0.134102
      dyz     :     0.108346
      dx2y2   :     0.023612
      dxy     :     0.034846
      f0      :     0.016616  f :     0.054882
      f+1     :     0.014464
      f-1     :     0.013294
      f+2     :     0.005047
      f-2     :     0.003053
      f+3     :     0.001339
      f-3     :     0.001070
  1 O s       :     3.383555  s :     3.383555
      pz      :     1.436413  p :     4.622544
      px      :     1.686597
      py      :     1.499533
      dz2     :     0.028289  d :     0.070018
      dxz     :     0.013731
      dyz     :     0.013933
      dx2y2   :     0.003928
      dxy     :     0.010136
      f0      :     0.001184  f :     0.004693
      f+1     :     0.001106
      f-1     :     0.001373
      f+2     :     0.000053
      f-2     :     0.000098
      f+3     :     0.000874
      f-3     :     0.000005
  2 H s       :     0.668841  s :     0.668841
      pz      :     0.030527  p :     0.156891
      px      :     0.053798
      py      :     0.072566
  3 H s       :     0.844696  s :     0.844696
      pz      :     0.013086  p :     0.055451
      px      :     0.028809
      py      :     0.013556
  4 H s       :     0.831044  s :     0.831044
      pz      :     0.010239  p :     0.057548
      px      :     0.022961
      py      :     0.024348
  5 H s       :     0.846535  s :     0.846535
      pz      :     0.013659  p :     0.063685
      px      :     0.016883
      py      :     0.033143
  6 C s       :     2.845334  s :     2.845334
      pz      :     0.896700  p :     3.057718
      px      :     1.098061
      py      :     1.062956
      dz2     :     0.127151  d :     0.455011
      dxz     :     0.152787
      dyz     :     0.088845
      dx2y2   :     0.041952
      dxy     :     0.044276
      f0      :     0.019234  f :     0.067581
      f+1     :     0.013167
      f-1     :     0.013542
      f+2     :     0.007931
      f-2     :     0.009311
      f+3     :     0.002965
      f-3     :     0.001431
  7 O s       :     3.362416  s :     3.362416
      pz      :     1.528449  p :     4.616740
      px      :     1.727883
      py      :     1.360407
      dz2     :     0.029593  d :     0.080075
      dxz     :     0.015307
      dyz     :     0.015842
      dx2y2   :     0.010205
      dxy     :     0.009128
      f0      :     0.001248  f :     0.005208
      f+1     :     0.001040
      f-1     :     0.001311
      f+2     :     0.000442
      f-2     :     0.000439
      f+3     :     0.000568
      f-3     :     0.000161
  8 H s       :     0.664541  s :     0.664541
      pz      :     0.025028  p :     0.132406
      px      :     0.041713
      py      :     0.065665
  9 H s       :     0.830328  s :     0.830328
      pz      :     0.007768  p :     0.054687
      px      :     0.015990
      py      :     0.030929
 10 H s       :     0.849946  s :     0.849946
      pz      :     0.018331  p :     0.061649
      px      :     0.022814
      py      :     0.020504
 11 H s       :     0.849962  s :     0.849962
      pz      :     0.016734  p :     0.066555
      px      :     0.034179
      py      :     0.015642


                      *****************************
                      * MAYER POPULATION ANALYSIS *
                      *****************************

  NA   - Mulliken gross atomic population
  ZA   - Total nuclear charge
  QA   - Mulliken gross atomic charge
  VA   - Mayer's total valence
  BVA  - Mayer's bonded valence
  FA   - Mayer's free valence

  ATOM       NA         ZA         QA         VA         BVA        FA
  0 C      6.1870     6.0000    -0.1870     3.9380     3.9380     0.0000
  1 O      8.4600     8.0000    -0.4600     1.8923     1.8923     0.0000
  2 H      0.6847     1.0000     0.3153     0.9113     0.9113    -0.0000
  3 H      0.9001     1.0000     0.0999     0.9577     0.9577     0.0000
  4 H      0.8729     1.0000     0.1271     0.9570     0.9570     0.0000
  5 H      0.8950     1.0000     0.1050     0.9588     0.9588     0.0000
  6 C      6.1464     6.0000    -0.1464     3.9453     3.9453     0.0000
  7 O      8.4768     8.0000    -0.4768     1.8689     1.8689     0.0000
  8 H      0.6819     1.0000     0.3181     0.9048     0.9048     0.0000
  9 H      0.8891     1.0000     0.1109     0.9600     0.9600     0.0000
 10 H      0.9066     1.0000     0.0934     0.9556     0.9556    -0.0000
 11 H      0.8997     1.0000     0.1003     0.9589     0.9589     0.0000

  Mayer bond orders larger than 0.1
B(  0-C ,  1-O ) :   0.9990 B(  0-C ,  3-H ) :   0.9792 B(  0-C ,  4-H ) :   0.9714 
B(  0-C ,  5-H ) :   0.9772 B(  1-O ,  2-H ) :   0.9016 B(  6-C ,  7-O ) :   1.0009 
B(  6-C ,  9-H ) :   0.9697 B(  6-C , 10-H ) :   0.9802 B(  6-C , 11-H ) :   0.9819 
B(  7-O ,  8-H ) :   0.8861 

-------
TIMINGS
-------

Total SCF time: 0 days 0 hours 0 min 10 sec 

Total time                  ....      10.559 sec
Sum of individual times     ....      10.251 sec  ( 97.1%)

Fock matrix formation       ....       9.667 sec  ( 91.6%)
  XC integration            ....       2.459 sec  ( 25.4% of F)
    Basis function eval.    ....       0.064 sec  (  2.6% of XC)
    Density eval.           ....       0.062 sec  (  2.5% of XC)
    XC-Functional eval.     ....       0.096 sec  (  3.9% of XC)
    XC-Potential eval.      ....       0.066 sec  (  2.7% of XC)
Diagonalization             ....       0.060 sec  (  0.6%)
Density matrix formation    ....       0.005 sec  (  0.0%)
Population analysis         ....       0.018 sec  (  0.2%)
Initial guess               ....       0.107 sec  (  1.0%)
Orbital Transformation      ....       0.000 sec  (  0.0%)
Orbital Orthonormalization  ....       0.000 sec  (  0.0%)
DIIS solution               ....       0.041 sec  (  0.4%)
SOSCF solution              ....       0.037 sec  (  0.4%)
Grid generation             ....       0.316 sec  (  3.0%)


-------------------------------------------------------------------------------
                          DFT DISPERSION CORRECTION                            
                                                                               
                              DFTD3 V3.1  Rev 1                                
                              USING zero damping                               
-------------------------------------------------------------------------------
The omegaB97X-D3 functional is recognized. Fit by Chai et al.
Active option DFTDOPT                   ...         3   

molecular C6(AA) [au] = 834.941438 


            DFT-D V3
 parameters
 s6 scaling factor         :     1.0000 
 rs6 scaling factor        :     1.2810 
 s8 scaling factor         :     1.0000 
 rs8 scaling factor        :     1.0940 
 Damping factor alpha6     :    14.0000 
 Damping factor alpha8     :    16.0000 
 ad hoc parameters k1-k3   :    16.0000     1.3333    -4.0000 

 Edisp/kcal,au: -0.504210507201  -0.000803510503 
 E6   /kcal   :  -0.231809332 
 E8   /kcal   :  -0.272401175 
 % E8         :  54.025287235 

-------------------------   ----------------
Dispersion correction           -0.000803511
-------------------------   ----------------


-------------------------   --------------------
FINAL SINGLE POINT ENERGY      -231.463627362082
-------------------------   --------------------


                            ***************************************
                            *     ORCA property calculations      *
                            ***************************************

                                    ---------------------
                                    Active property flags
                                    ---------------------
   (+) Dipole Moment


------------------------------------------------------------------------------
                       ORCA ELECTRIC PROPERTIES CALCULATION
------------------------------------------------------------------------------

Dipole Moment Calculation                       ... on
Quadrupole Moment Calculation                   ... off
Polarizability Calculation                      ... off
GBWName                                         ... 8-90_DFT_AB.gbw
Electron density file                           ... 8-90_DFT_AB.scfp.tmp
The origin for moment calculation is the CENTER OF MASS  = (-12.243003, -8.355368  6.889519)

-------------
DIPOLE MOMENT
-------------
                                X             Y             Z
Electronic contribution:     -0.09553       0.45296       0.26359
Nuclear contribution   :      0.10563       0.45703      -0.23806
                        -----------------------------------------
Total Dipole Moment    :      0.01010       0.90999       0.02553
                        -----------------------------------------
Magnitude (a.u.)       :      0.91040
Magnitude (Debye)      :      2.31406



--------------------
Rotational spectrum 
--------------------
 
Rotational constants in cm-1:     0.501806     0.033513     0.032080 
Rotational constants in MHz : 15043.780196  1004.682838   961.743496 

 Dipole components along the rotational axes: 
x,y,z [a.u.] :     0.340853    -0.360199     0.763485 
x,y,z [Debye]:     0.866379    -0.915553     1.940625 

 
------------------------------------------------------------------------------
                      ORCA CHELPG CHARGES GENERATION
------------------------------------------------------------------------------

GBW file                           ... 8-90_DFT_AB.gbw

Reading the GBW file               ... done

Grid spacing                       ...     0.300000
Point Cut-Off                      ...     2.800000
Van-der-Waals Radii                ...        COSMO
Total charge                       ...            0


Number of points X direction       ...           39
Number of points Y direction       ...           32
Number of points Z direction       ...           30
Maximum number of possible points  ...        37440
Final number of points             ...        10990


CHELPG Charges            
--------------------------------
  0   C   :       0.150586
  1   O   :      -0.606051
  2   H   :       0.399512
  3   H   :      -0.006569
  4   H   :       0.070509
  5   H   :      -0.005418
  6   C   :       0.147943
  7   O   :      -0.611360
  8   H   :       0.395925
  9   H   :       0.066913
 10   H   :      -0.006926
 11   H   :       0.004936
--------------------------------
Total charge:     0.000000
--------------------------------

CHELPG charges calculated...

Timings for individual parts in CHELPG calculation:
Grid generation                 ...        0.002 sec (=   0.000 min)
Potential calculation           ...        2.095 sec (=   0.035 min)
Fit to the potential            ...        0.004 sec (=   0.000 min)
------------------------------------------------------------------------------


Timings for individual modules:

Sum of individual times         ...       17.585 sec (=   0.293 min)
GTO integral calculation        ...        3.512 sec (=   0.059 min)  20.0 %
SCF iterations                  ...       11.938 sec (=   0.199 min)  67.9 %
CHELPG charge generation        ...        2.135 sec (=   0.036 min)  12.1 %


                 $$$$$$$$$$$$$$$$  JOB NUMBER  2 $$$$$$$$$$$$$$


                       ****************************
                       * Single Point Calculation *
                       ****************************

---------------------------------
CARTESIAN COORDINATES (ANGSTROEM)
---------------------------------
  C     -4.288569   -3.454093    4.046615
  O     -4.072984   -3.445141    5.450072
  H     -3.608082   -2.611545    5.566733
  H     -3.328369   -3.735090    3.527382
  H     -4.996269   -4.232074    3.685555
  H     -4.566862   -2.490800    3.649591
  C     -8.722772   -5.701760    3.170103
  O     -8.851044   -5.193375    1.913721
  H     -9.216482   -4.245808    1.955652
  H     -8.257853   -6.713233    3.098251
  H     -8.085925   -5.080050    3.783799
  H     -9.657837   -5.779240    3.644366

----------------------------
CARTESIAN COORDINATES (A.U.)
----------------------------
  NO LB      ZA    FRAG     MASS         X           Y           Z
   0 C     6.0000    0    12.011   -8.104221   -6.527290    7.646994
   1 O     8.0000    0    15.999   -7.696824   -6.510373   10.299143
   2 H     1.0000    0     1.008   -6.818287   -4.935105   10.519601
   3 H     1.0000    0     1.008   -6.289706   -7.058297    6.665786
   4 H     1.0000    0     1.008   -9.441580   -7.997461    6.964690
   5 H     1.0000    0     1.008   -8.630118   -4.706930    6.896727
   6 C     0.0000    0     0.000  -16.483650  -10.774765    5.990626
   7 O     0.0000    0     0.000  -16.726049   -9.814056    3.616409
   8 H     0.0000    0     0.000  -17.416627   -8.023414    3.695647
   9 H     0.0000    0     0.000  -15.605081  -12.686172    5.854846
  10 H     0.0000    0     0.000  -15.280184   -9.599903    7.150344
  11 H     0.0000    0     0.000  -18.250667  -10.921181    6.886854

--------------------------------
INTERNAL COORDINATES (ANGSTROEM)
--------------------------------
 C      0   0   0     0.000000000000     0.00000000     0.00000000
 O      1   0   0     1.419946682583     0.00000000     0.00000000
 H      2   1   0     0.961574723951   101.46587193     0.00000000
 H      1   2   3     1.127185105605   109.11915943    77.21174889
 H      1   2   3     1.111961352728   114.95929824   191.79655132
 H      1   2   3     1.078428696889   113.41718439   319.50747839
 C      5   1   2     4.038872653589   152.03707097    75.81271951
 O      7   5   1     1.361398084372    93.94659694    94.60598172
 H      8   7   5     1.016457751259   110.11611234   272.22953759
 H      7   5   1     1.115522306453    87.34198389   203.04658277
 H      7   5   1     1.081073635755    34.38715279   331.48916761
 H      7   5   1     1.051320644615   142.17396573   321.97078555

---------------------------
INTERNAL COORDINATES (A.U.)
---------------------------
 C      0   0   0     0.000000000000     0.00000000     0.00000000
 O      1   0   0     2.683310354852     0.00000000     0.00000000
 H      2   1   0     1.817112885568   101.46587193     0.00000000
 H      1   2   3     2.130071151829   109.11915943    77.21174889
 H      1   2   3     2.101302428161   114.95929824   191.79655132
 H      1   2   3     2.037934892082   113.41718439   319.50747839
 C      5   1   2     7.632363205067   152.03707097    75.81271951
 O      7   5   1     2.572669538709    93.94659694    94.60598172
 H      8   7   5     1.920826776580   110.11611234   272.22953759
 H      7   5   1     2.108031655476    87.34198389   203.04658277
 H      7   5   1     2.042933102180    34.38715279   331.48916761
 H      7   5   1     1.986708097260   142.17396573   321.97078555

---------------------
BASIS SET INFORMATION
---------------------
There are 3 groups of distinct atoms

 Group   1 Type C   : 11s6p2d1f contracted to 5s3p2d1f pattern {62111/411/11/1}
 Group   2 Type O   : 11s6p2d1f contracted to 5s3p2d1f pattern {62111/411/11/1}
 Group   3 Type H   : 5s1p contracted to 3s1p pattern {311/1}

Atom   0C    basis set group =>   1
Atom   1O    basis set group =>   2
Atom   2H    basis set group =>   3
Atom   3H    basis set group =>   3
Atom   4H    basis set group =>   3
Atom   5H    basis set group =>   3
Atom   6C    basis set group =>   1
Atom   7O    basis set group =>   2
Atom   8H    basis set group =>   3
Atom   9H    basis set group =>   3
Atom  10H    basis set group =>   3
Atom  11H    basis set group =>   3


           ************************************************************
           *        Program running with 8 parallel MPI-processes     *
           *              working on a common directory               *
           ************************************************************
------------------------------------------------------------------------------
                           ORCA GTO INTEGRAL CALCULATION
------------------------------------------------------------------------------

                         BASIS SET STATISTICS AND STARTUP INFO

 # of primitive gaussian shells          ...  128
 # of primitive gaussian functions       ...  248
 # of contracted shells                  ...   76
 # of contracted basis functions         ...  172
 Highest angular momentum                ...    3
 Maximum contraction depth               ...    6
 Integral package used                   ... LIBINT
 Integral threshhold            Thresh   ...  2.500e-11
 Primitive cut-off              TCut     ...  2.500e-12


------------------------------ INTEGRAL EVALUATION ----------------------------


 * One electron integrals 
 Pre-screening matrix                    ... done
 Shell pair data                         ... done (   0.001 sec)



           ************************************************************
           *        Program running with 8 parallel MPI-processes     *
           *              working on a common directory               *
           ************************************************************
-------------------------------------------------------------------------------
                                 ORCA SCF
-------------------------------------------------------------------------------

------------
SCF SETTINGS
------------
Hamiltonian:
 Density Functional     Method          .... DFT(GTOs)
 Exchange Functional    Exchange        .... WB97X-D3
 Correlation Functional Correlation     .... WB97X-D3
 Gradients option       PostSCFGGA      .... off
 Hybrid DFT is turned on
   Fraction HF Exchange ScalHFX         ....  0.195728
   Scaling of DF-GGA-X  ScalDFX         ....  0.000000
   Scaling of DF-GGA-C  ScalDFC         ....  1.000000
   Scaling of DF-LDA-C  ScalLDAC        ....  1.000000
   Perturbative correction              ....  0.000000
   Density functional embedding theory  .... OFF
 Long-range corrected/Screened/Range-Separated Hybrid DFT is turned on
   Amount of maximum screened exact exchange              ....  0.804272
   Range separation parameter mu (erf(mu*r12)/r12)        ....  0.250000


General Settings:
 Integral files         IntName         .... 8-90_DFT_A
 Hartree-Fock type      HFTyp           .... RHF
 Total Charge           Charge          ....    0
 Multiplicity           Mult            ....    1
 Number of Electrons    NEL             ....   18
 Basis Dimension        Dim             ....  172
 Nuclear Repulsion      ENuc            ....     40.1943103716 Eh

Convergence Acceleration:
 DIIS                   CNVDIIS         .... on
   Start iteration      DIISMaxIt       ....    12
   Startup error        DIISStart       ....  0.200000
   # of expansion vecs  DIISMaxEq       ....     5
   Bias factor          DIISBfac        ....   1.050
   Max. coefficient     DIISMaxC        ....  10.000
 Newton-Raphson         CNVNR           .... off
 SOSCF                  CNVSOSCF        .... on
   Start iteration      SOSCFMaxIt      ....   150
   Startup grad/error   SOSCFStart      ....  0.003300
 Level Shifting         CNVShift        .... on
   Level shift para.    LevelShift      ....    0.2500
   Turn off err/grad.   ShiftErr        ....    0.0010
 Zerner damping         CNVZerner       .... off
 Static damping         CNVDamp         .... on
   Fraction old density DampFac         ....    0.7000
   Max. Damping (<1)    DampMax         ....    0.9800
   Min. Damping (>=0)   DampMin         ....    0.0000
   Turn off err/grad.   DampErr         ....    0.1000
 Fernandez-Rico         CNVRico         .... off

SCF Procedure:
 Maximum # iterations   MaxIter         ....  1000
 SCF integral mode      SCFMode         .... Direct
   Integral package                     .... LIBINT
 Reset frequency        DirectResetFreq ....    20
 Integral Threshold     Thresh          ....  2.500e-11 Eh
 Primitive CutOff       TCut            ....  2.500e-12 Eh

Convergence Tolerance:
 Convergence Check Mode ConvCheckMode   .... Total+1el-Energy
 Convergence forced     ConvForced      .... 0
 Energy Change          TolE            ....  1.000e-08 Eh
 1-El. energy change                    ....  1.000e-05 Eh
 Orbital Gradient       TolG            ....  1.000e-05
 Orbital Rotation angle TolX            ....  1.000e-05
 DIIS Error             TolErr          ....  5.000e-07


Diagonalization of the overlap matrix:
Smallest eigenvalue                        ... 1.427e-03
Time for diagonalization                   ...    0.004 sec
Threshold for overlap eigenvalues          ... 1.000e-08
Number of eigenvalues below threshold      ... 0
Time for construction of square roots      ...    0.005 sec
Total time needed                          ...    0.009 sec

-------------------
DFT GRID GENERATION
-------------------

General Integration Accuracy     IntAcc      ...  4.340
Radial Grid Type                 RadialGrid  ... Gauss-Chebyshev
Angular Grid (max. acc.)         AngularGrid ... Lebedev-110
Angular grid pruning method      GridPruning ... 3 (G Style)
Weight generation scheme         WeightScheme... Becke
Basis function cutoff            BFCut       ...    1.0000e-11
Integration weight cutoff        WCut        ...    1.0000e-14
Grids for H and He will be reduced by one unit

# of grid points (after initial pruning)     ...  13096 (   0.0 sec)
# of grid points (after weights+screening)   ...  12592 (   0.0 sec)
nearest neighbour list constructed           ...    0.0 sec
Grid point re-assignment to atoms done       ...    0.0 sec
Grid point division into batches done        ...    0.0 sec
Reduced shell lists constructed in    0.0 sec

Total number of grid points                  ...    12592
Total number of batches                      ...      204
Average number of points per batch           ...       61
Average number of grid points per atom       ...     1049
Average number of shells per batch           ...    44.93 (59.11%)
Average number of basis functions per batch  ...    97.22 (56.52%)
Average number of large shells per batch     ...    36.59 (81.45%)
Average number of large basis fcns per batch ...    81.78 (84.11%)
Maximum spatial batch extension              ...  19.49, 16.74, 16.66 au
Average spatial batch extension              ...   0.41,  0.38,  0.38 au

Time for grid setup =    0.039 sec

------------------------------
INITIAL GUESS: MODEL POTENTIAL
------------------------------
Loading Hartree-Fock densities                     ... done
Calculating cut-offs                               ... done
Setting up the integral package                    ... done
Initializing the effective Hamiltonian             ... done
Starting the Coulomb interaction                   ... done (   0.0 sec)
Reading the grid                                   ... done
Mapping shells                                     ... done
Starting the XC term evaluation                    ... done (   0.0 sec)
  promolecular density results
     # of electrons  =     17.994064365
     EX              =    -14.422686561
     EC              =     -0.574732344
     EX+EC           =    -14.997418905
Transforming the Hamiltonian                       ... done (   0.0 sec)
Diagonalizing the Hamiltonian                      ... done (   0.0 sec)
Back transforming the eigenvectors                 ... done (   0.0 sec)
Now organizing SCF variables                       ... done
                      ------------------
                      INITIAL GUESS DONE (   0.1 sec)
                      ------------------
--------------
SCF ITERATIONS
--------------
ITER       Energy         Delta-E        Max-DP      RMS-DP      [F,P]     Damp
               ***  Starting incremental Fock matrix formation  ***
  0   -115.6492111081   0.000000000000 0.03631176  0.00073763  0.2493020 0.7000
  1   -115.6847793785  -0.035568270421 0.02162852  0.00052124  0.1247804 0.7000
                               ***Turning on DIIS***
  2   -115.7011301786  -0.016350800069 0.03133154  0.00094186  0.0487281 0.0000
  3   -115.7277391337  -0.026608955115 0.01757630  0.00034400  0.0600643 0.0000
  4   -115.7320897496  -0.004350615927 0.00399666  0.00006711  0.0066569 0.0000
                      *** Initiating the SOSCF procedure ***
                           *** Shutting down DIIS ***
                      *** Re-Reading the Fockian *** 
                      *** Removing any level shift *** 
ITER      Energy       Delta-E        Grad      Rot      Max-DP    RMS-DP
  5   -115.73217902  -0.0000892713  0.000424  0.000424  0.000652  0.000023
               *** Restarting incremental Fock matrix formation ***
  6   -115.73218719  -0.0000081644  0.000123  0.000169  0.000481  0.000014
  7   -115.73218796  -0.0000007702  0.000041  0.000082  0.000215  0.000006
  8   -115.73218801  -0.0000000582  0.000024  0.000019  0.000041  0.000001
  9   -115.73218803  -0.0000000123  0.000009  0.000009  0.000019  0.000001
                  ***Gradient check signals convergence***
              ***Rediagonalizing the Fockian in SOSCF/NRSCF***

               *****************************************************
               *                     SUCCESS                       *
               *           SCF CONVERGED AFTER  10 CYCLES          *
               *****************************************************

Setting up the final grid:

General Integration Accuracy     IntAcc      ...  4.670
Radial Grid Type                 RadialGrid  ... Gauss-Chebyshev
Angular Grid (max. acc.)         AngularGrid ... Lebedev-302
Angular grid pruning method      GridPruning ... 3 (G Style)
Weight generation scheme         WeightScheme... Becke
Basis function cutoff            BFCut       ...    1.0000e-11
Integration weight cutoff        WCut        ...    1.0000e-14
Grids for H and He will be reduced by one unit

# of grid points (after initial pruning)     ...  52000 (   0.0 sec)
# of grid points (after weights+screening)   ...  49570 (   0.0 sec)
nearest neighbour list constructed           ...    0.0 sec
Grid point re-assignment to atoms done       ...    0.0 sec
Grid point division into batches done        ...    0.2 sec
Reduced shell lists constructed in    0.2 sec

Total number of grid points                  ...    49570
Total number of batches                      ...      780
Average number of points per batch           ...       63
Average number of grid points per atom       ...     4131
Average number of shells per batch           ...    43.05 (56.65%)
Average number of basis functions per batch  ...    93.13 (54.15%)
Average number of large shells per batch     ...    34.39 (79.89%)
Average number of large basis fcns per batch ...    77.26 (82.96%)
Maximum spatial batch extension              ...  14.20, 13.96, 16.63 au
Average spatial batch extension              ...   0.26,  0.25,  0.26 au

Final grid set up in    0.3 sec
Final integration                            ... done (   0.1 sec)
Change in XC energy                          ...     0.000046238
Integrated number of electrons               ...    18.000002844
Previous integrated no of electrons          ...    17.998957827

----------------
TOTAL SCF ENERGY
----------------

Total Energy       :         -115.73214179 Eh           -3149.23168 eV

Components:
Nuclear Repulsion  :           40.19431037 Eh            1093.74279 eV
Electronic Energy  :         -155.92645216 Eh           -4242.97447 eV
One Electron Energy:         -236.78484197 Eh           -6443.24312 eV
Two Electron Energy:           80.85838981 Eh            2200.26865 eV

Virial components:
Potential Energy   :         -230.92782859 Eh           -6283.86568 eV
Kinetic Energy     :          115.19568680 Eh            3134.63400 eV
Virial Ratio       :            2.00465690


DFT components:
N(Alpha)           :        9.000001422234 electrons
N(Beta)            :        9.000001422234 electrons
N(Total)           :       18.000002844468 electrons
E(XC)              :      -10.641891753776 Eh       
DFET-embed. en.    :        0.000000000000 Eh       

---------------
SCF CONVERGENCE
---------------

  Last Energy change         ...   -1.8756e-09  Tolerance :   1.0000e-08
  Last MAX-Density change    ...    4.5369e-06  Tolerance :   1.0000e-07
  Last RMS-Density change    ...    1.1479e-07  Tolerance :   5.0000e-09
  Last Orbital Gradient      ...    2.0543e-06  Tolerance :   1.0000e-05
  Last Orbital Rotation      ...    2.7160e-06  Tolerance :   1.0000e-05

             **** THE GBW FILE WAS UPDATED (8-90_DFT_A.gbw) ****
             **** DENSITY FILE WAS UPDATED (8-90_DFT_A.scfp.tmp) ****
             **** ENERGY FILE WAS UPDATED (8-90_DFT_A.en.tmp) ****
----------------
ORBITAL ENERGIES
----------------

  NO   OCC          E(Eh)            E(eV) 
   0   2.0000     -19.234332      -523.3928 
   1   2.0000     -10.317880      -280.7638 
   2   2.0000      -1.139870       -31.0174 
   3   2.0000      -0.791248       -21.5310 
   4   2.0000      -0.611173       -16.6309 
   5   2.0000      -0.535970       -14.5845 
   6   2.0000      -0.527708       -14.3597 
   7   2.0000      -0.443157       -12.0589 
   8   2.0000      -0.371716       -10.1149 
   9   0.0000       0.086428         2.3518 
  10   0.0000       0.114603         3.1185 
  11   0.0000       0.151431         4.1206 
  12   0.0000       0.165021         4.4905 
  13   0.0000       0.186963         5.0875 
  14   0.0000       0.192463         5.2372 
  15   0.0000       0.202010         5.4970 
  16   0.0000       0.225919         6.1476 
  17   0.0000       0.244197         6.6449 
  18   0.0000       0.269423         7.3314 
  19   0.0000       0.299947         8.1620 
  20   0.0000       0.321013         8.7352 
  21   0.0000       0.330223         8.9858 
  22   0.0000       0.347237         9.4488 
  23   0.0000       0.391156        10.6439 
  24   0.0000       0.413415        11.2496 
  25   0.0000       0.447059        12.1651 
  26   0.0000       0.457036        12.4366 
  27   0.0000       0.490912        13.3584 
  28   0.0000       0.516064        14.0428 
  29   0.0000       0.528536        14.3822 
  30   0.0000       0.543526        14.7901 
  31   0.0000       0.551042        14.9946 
  32   0.0000       0.580216        15.7885 
  33   0.0000       0.601446        16.3662 
  34   0.0000       0.608861        16.5679 
  35   0.0000       0.643524        17.5112 
  36   0.0000       0.670645        18.2492 
  37   0.0000       0.699142        19.0246 
  38   0.0000       0.764167        20.7940 
  39   0.0000       0.801044        21.7975 
  40   0.0000       0.809664        22.0321 
  41   0.0000       0.829901        22.5828 
  42   0.0000       0.872294        23.7363 
  43   0.0000       0.905842        24.6492 
  44   0.0000       0.988156        26.8891 
  45   0.0000       1.038794        28.2670 
  46   0.0000       1.061308        28.8797 
  47   0.0000       1.107229        30.1292 
  48   0.0000       1.154870        31.4256 
  49   0.0000       1.168178        31.7877 
  50   0.0000       1.189536        32.3689 
  51   0.0000       1.211089        32.9554 
  52   0.0000       1.237369        33.6705 
  53   0.0000       1.363536        37.1037 
  54   0.0000       1.364692        37.1352 
  55   0.0000       1.389464        37.8092 
  56   0.0000       1.456185        39.6248 
  57   0.0000       1.491835        40.5949 
  58   0.0000       1.522603        41.4321 
  59   0.0000       1.568163        42.6719 
  60   0.0000       1.598586        43.4997 
  61   0.0000       1.625767        44.2394 
  62   0.0000       1.640776        44.6478 
  63   0.0000       1.672007        45.4976 
  64   0.0000       1.700063        46.2611 
  65   0.0000       1.809832        49.2480 
  66   0.0000       1.814450        49.3737 
  67   0.0000       1.906132        51.8685 
  68   0.0000       1.930101        52.5207 
  69   0.0000       1.967604        53.5412 
  70   0.0000       2.024752        55.0963 
  71   0.0000       2.053628        55.8821 
  72   0.0000       2.073343        56.4185 
  73   0.0000       2.081349        56.6364 
  74   0.0000       2.122320        57.7513 
  75   0.0000       2.161709        58.8231 
  76   0.0000       2.204923        59.9990 
  77   0.0000       2.209065        60.1117 
  78   0.0000       2.235578        60.8332 
  79   0.0000       2.320768        63.1513 
  80   0.0000       2.365984        64.3817 
  81   0.0000       2.372605        64.5619 
  82   0.0000       2.402211        65.3675 
  83   0.0000       2.460700        66.9591 
  84   0.0000       2.511430        68.3395 
  85   0.0000       2.551257        69.4232 
  86   0.0000       2.571930        69.9858 
  87   0.0000       2.583013        70.2874 
  88   0.0000       2.630917        71.5909 
  89   0.0000       2.636070        71.7311 
  90   0.0000       2.680473        72.9394 
  91   0.0000       2.721953        74.0681 
  92   0.0000       2.797467        76.1230 
  93   0.0000       2.860988        77.8514 
  94   0.0000       2.878998        78.3415 
  95   0.0000       2.887130        78.5628 
  96   0.0000       2.901173        78.9449 
  97   0.0000       2.972612        80.8889 
  98   0.0000       3.098891        84.3251 
  99   0.0000       3.100876        84.3791 
 100   0.0000       3.135994        85.3347 
 101   0.0000       3.141787        85.4924 
 102   0.0000       3.163629        86.0867 
 103   0.0000       3.232284        87.9549 
 104   0.0000       3.263301        88.7989 
 105   0.0000       3.285915        89.4143 
 106   0.0000       3.342088        90.9428 
 107   0.0000       3.364549        91.5540 
 108   0.0000       3.417954        93.0073 
 109   0.0000       3.423578        93.1603 
 110   0.0000       3.502180        95.2992 
 111   0.0000       3.595501        97.8386 
 112   0.0000       3.632377        98.8420 
 113   0.0000       3.656041        99.4859 
 114   0.0000       3.669299        99.8467 
 115   0.0000       3.697490       100.6138 
 116   0.0000       3.756509       102.2198 
 117   0.0000       4.036161       109.8295 
 118   0.0000       4.071524       110.7918 
 119   0.0000       4.187173       113.9388 
 120   0.0000       4.229656       115.0948 
 121   0.0000       4.255471       115.7972 
 122   0.0000       4.282427       116.5308 
 123   0.0000       4.323103       117.6376 
 124   0.0000       4.345538       118.2481 
 125   0.0000       4.401154       119.7615 
 126   0.0000       4.493925       122.2859 
 127   0.0000       4.543721       123.6409 
 128   0.0000       4.548840       123.7802 
 129   0.0000       4.572405       124.4215 
 130   0.0000       4.598431       125.1297 
 131   0.0000       4.907341       133.5355 
 132   0.0000       5.082910       138.3130 
 133   0.0000       5.110397       139.0610 
 134   0.0000       5.224745       142.1725 
 135   0.0000       5.361635       145.8975 
 136   0.0000       5.421509       147.5268 
 137   0.0000       5.477211       149.0425 
 138   0.0000       5.524873       150.3394 
 139   0.0000       5.732064       155.9774 
 140   0.0000       5.808783       158.0650 
 141   0.0000       5.826062       158.5352 
 142   0.0000       5.985257       162.8671 
 143   0.0000       6.016588       163.7197 
 144   0.0000       6.144987       167.2136 
 145   0.0000       6.330236       172.2545 
 146   0.0000       6.528316       177.6445 
 147   0.0000       6.613555       179.9640 
 148   0.0000       6.695503       182.1939 
 149   0.0000       6.772604       184.2919 
 150   0.0000       6.802993       185.1189 
 151   0.0000       6.837518       186.0583 
 152   0.0000       7.003214       190.5672 
 153   0.0000       7.162925       194.9131 
 154   0.0000       7.200268       195.9293 
 155   0.0000       7.379774       200.8139 
 156   0.0000       7.551505       205.4869 
 157   0.0000       7.914666       215.3690 
 158   0.0000       8.895888       242.0694 
 159   0.0000       9.292479       252.8612 
 160   0.0000       9.528247       259.2768 
 161   0.0000       9.561809       260.1900 
 162   0.0000       9.827258       267.4133 
 163   0.0000       9.889350       269.1029 
 164   0.0000       9.990310       271.8502 
 165   0.0000      10.192923       277.3635 
[...]
  82   0.0000       2.403909        65.4137 
  83   0.0000       2.452044        66.7235 
  84   0.0000       2.510791        68.3221 
  85   0.0000       2.528929        68.8157 
  86   0.0000       2.581957        70.2586 
  87   0.0000       2.601735        70.7968 
  88   0.0000       2.623833        71.3981 
  89   0.0000       2.632672        71.6386 
  90   0.0000       2.662217        72.4426 
  91   0.0000       2.678948        72.8979 
  92   0.0000       2.790621        75.9367 
  93   0.0000       2.847853        77.4940 
  94   0.0000       2.880983        78.3955 
  95   0.0000       2.888038        78.5875 
  96   0.0000       2.900548        78.9279 
  97   0.0000       3.002818        81.7108 
  98   0.0000       3.056107        83.1609 
  99   0.0000       3.126375        85.0730 
 100   0.0000       3.128569        85.1327 
 101   0.0000       3.162422        86.0539 
 102   0.0000       3.190460        86.8168 
 103   0.0000       3.209891        87.3456 
 104   0.0000       3.296459        89.7012 
 105   0.0000       3.321044        90.3702 
 106   0.0000       3.391122        92.2771 
 107   0.0000       3.417138        92.9850 
 108   0.0000       3.448003        93.8249 
 109   0.0000       3.473690        94.5239 
 110   0.0000       3.520305        95.7924 
 111   0.0000       3.644084        99.1606 
 112   0.0000       3.653454        99.4155 
 113   0.0000       3.664656        99.7204 
 114   0.0000       3.673890        99.9716 
 115   0.0000       3.681516       100.1792 
 116   0.0000       3.696520       100.5874 
 117   0.0000       3.956252       107.6551 
 118   0.0000       4.046909       110.1220 
 119   0.0000       4.113599       111.9367 
 120   0.0000       4.232932       115.1839 
 121   0.0000       4.245506       115.5261 
 122   0.0000       4.266290       116.0917 
 123   0.0000       4.288442       116.6944 
 124   0.0000       4.349783       118.3636 
 125   0.0000       4.447521       121.0232 
 126   0.0000       4.515011       122.8597 
 127   0.0000       4.528701       123.2322 
 128   0.0000       4.563433       124.1773 
 129   0.0000       4.569173       124.3335 
 130   0.0000       4.615295       125.5886 
 131   0.0000       5.049280       137.3979 
 132   0.0000       5.082912       138.3131 
 133   0.0000       5.099241       138.7574 
 134   0.0000       5.319254       144.7443 
 135   0.0000       5.357764       145.7922 
 136   0.0000       5.432953       147.8382 
 137   0.0000       5.435833       147.9165 
 138   0.0000       5.550467       151.0359 
 139   0.0000       5.676743       154.4720 
 140   0.0000       5.875969       159.8932 
 141   0.0000       5.891036       160.3032 
 142   0.0000       5.929308       161.3447 
 143   0.0000       5.996750       163.1799 
 144   0.0000       6.029218       164.0634 
 145   0.0000       6.247862       170.0130 
 146   0.0000       6.537533       177.8953 
 147   0.0000       6.625121       180.2787 
 148   0.0000       6.729625       183.1224 
 149   0.0000       6.766754       184.1327 
 150   0.0000       6.810775       185.3306 
 151   0.0000       6.847519       186.3305 
 152   0.0000       7.015018       190.8883 
 153   0.0000       7.044086       191.6793 
 154   0.0000       7.195099       195.7886 
 155   0.0000       7.222499       196.5342 
 156   0.0000       7.410924       201.6615 
 157   0.0000       8.074583       219.7206 
 158   0.0000       8.859831       241.0883 
 159   0.0000       9.342993       254.2358 
 160   0.0000       9.509602       258.7694 
 161   0.0000       9.546212       259.7656 
 162   0.0000       9.783369       266.2190 
 163   0.0000       9.855926       268.1934 
 164   0.0000       9.926972       270.1266 
 165   0.0000      10.067835       273.9597 
 166   0.0000      11.140245       303.1415 
 167   0.0000      19.081315       519.2290 
 168   0.0000      22.605798       615.1350 
 169   0.0000      43.707540      1189.3426 
 170   0.0000      65.849978      1791.8690 
 171   0.0000     126.389633      3439.2367 

                    ********************************
                    * MULLIKEN POPULATION ANALYSIS *
                    ********************************

-----------------------
MULLIKEN ATOMIC CHARGES
-----------------------
   0 C :   -0.000902
   1 O :    0.000041
   2 H :    0.000001
   3 H :    0.000027
   4 H :    0.001399
   5 H :    0.000006
   6 C :   -0.143266
   7 O :   -0.475608
   8 H :    0.318267
   9 H :    0.110427
  10 H :    0.089739
  11 H :    0.099868
Sum of atomic charges:    0.0000000

--------------------------------
MULLIKEN REDUCED ORBITAL CHARGES
--------------------------------
  0 C s       :     0.000609  s :     0.000609
      pz      :     0.000022  p :     0.000297
      px      :     0.000101
      py      :     0.000174
      dz2     :    -0.000005  d :    -0.000004
      dxz     :    -0.000000
      dyz     :     0.000000
      dx2y2   :     0.000003
      dxy     :    -0.000002
      f0      :    -0.000000  f :    -0.000000
      f+1     :    -0.000000
      f-1     :    -0.000000
      f+2     :    -0.000000
      f-2     :    -0.000000
      f+3     :     0.000000
      f-3     :    -0.000000
  1 O s       :    -0.000034  s :    -0.000034
      pz      :    -0.000007  p :    -0.000007
      px      :     0.000003
      py      :    -0.000003
      dz2     :     0.000000  d :     0.000000
      dxz     :     0.000000
      dyz     :    -0.000000
      dx2y2   :     0.000000
      dxy     :    -0.000000
      f0      :     0.000000  f :    -0.000000
      f+1     :     0.000000
      f-1     :     0.000000
      f+2     :    -0.000000
      f-2     :    -0.000000
      f+3     :    -0.000000
      f-3     :     0.000000
  2 H s       :    -0.000001  s :    -0.000001
      pz      :    -0.000000  p :     0.000000
      px      :     0.000000
      py      :     0.000000
  3 H s       :    -0.000027  s :    -0.000027
      pz      :    -0.000000  p :    -0.000000
      px      :     0.000000
      py      :     0.000000
  4 H s       :    -0.001395  s :    -0.001395
      pz      :     0.000000  p :    -0.000004
      px      :    -0.000004
      py      :    -0.000001
  5 H s       :    -0.000006  s :    -0.000006
      pz      :     0.000000  p :     0.000000
      px      :    -0.000000
      py      :     0.000000
  6 C s       :     3.212438  s :     3.212438
      pz      :     0.737324  p :     2.819961
      px      :     1.053250
      py      :     1.029387
      dz2     :     0.027033  d :     0.102346
      dxz     :     0.035731
      dyz     :     0.019525
      dx2y2   :     0.009518
      dxy     :     0.010539
      f0      :     0.002507  f :     0.008522
      f+1     :     0.002050
      f-1     :     0.001518
      f+2     :     0.000863
      f-2     :     0.001066
      f+3     :     0.000469
      f-3     :     0.000049
  7 O s       :     3.795250  s :     3.795250
      pz      :     1.454383  p :     4.646621
      px      :     1.828372
      py      :     1.363865
      dz2     :     0.012807  d :     0.032002
      dxz     :     0.005128
      dyz     :     0.005464
      dx2y2   :     0.004456
      dxy     :     0.004148
      f0      :     0.000271  f :     0.001735
      f+1     :     0.000233
      f-1     :     0.000384
      f+2     :     0.000149
      f-2     :     0.000123
      f+3     :     0.000393
      f-3     :     0.000181
  8 H s       :     0.640799  s :     0.640799
      pz      :     0.009187  p :     0.040934
      px      :     0.014977
      py      :     0.016770
  9 H s       :     0.870517  s :     0.870517
      pz      :     0.002538  p :     0.019056
      px      :     0.005425
      py      :     0.011093
 10 H s       :     0.890176  s :     0.890176
      pz      :     0.006184  p :     0.020085
      px      :     0.007463
      py      :     0.006438
 11 H s       :     0.879716  s :     0.879716
      pz      :     0.005382  p :     0.020415
      px      :     0.010588
      py      :     0.004446


                     *******************************
                     * LOEWDIN POPULATION ANALYSIS *
                     *******************************

----------------------
LOEWDIN ATOMIC CHARGES
----------------------
   0 C :   -0.000279
   1 O :   -0.000003
   2 H :   -0.000000
   3 H :   -0.000001
   4 H :   -0.000314
   5 H :   -0.000006
   6 C :   -0.425277
   7 O :   -0.063477
   8 H :    0.203325
   9 H :    0.114890
  10 H :    0.088050
  11 H :    0.083093

-------------------------------
LOEWDIN REDUCED ORBITAL CHARGES
-------------------------------
  0 C s       :     0.000043  s :     0.000043
      pz      :     0.000022  p :     0.000234
      px      :     0.000180
      py      :     0.000032
      dz2     :     0.000000  d :     0.000002
      dxz     :     0.000000
      dyz     :     0.000000
      dx2y2   :     0.000001
      dxy     :     0.000000
      f0      :     0.000000  f :     0.000000
      f+1     :     0.000000
      f-1     :     0.000000
      f+2     :     0.000000
      f-2     :     0.000000
      f+3     :     0.000000
      f-3     :     0.000000
  1 O s       :     0.000002  s :     0.000002
      pz      :     0.000000  p :     0.000001
      px      :     0.000001
      py      :     0.000000
      dz2     :     0.000000  d :     0.000000
      dxz     :     0.000000
      dyz     :     0.000000
      dx2y2   :     0.000000
      dxy     :     0.000000
      f0      :     0.000000  f :     0.000000
      f+1     :     0.000000
      f-1     :     0.000000
      f+2     :     0.000000
      f-2     :     0.000000
      f+3     :     0.000000
      f-3     :     0.000000
  2 H s       :     0.000000  s :     0.000000
      pz      :     0.000000  p :     0.000000
      px      :     0.000000
      py      :     0.000000
  3 H s       :     0.000001  s :     0.000001
      pz      :     0.000000  p :     0.000000
      px      :     0.000000
      py      :     0.000000
  4 H s       :     0.000312  s :     0.000312
      pz      :     0.000000  p :     0.000002
      px      :     0.000002
      py      :     0.000000
  5 H s       :     0.000005  s :     0.000005
      pz      :     0.000000  p :     0.000000
      px      :     0.000000
      py      :     0.000000
  6 C s       :     2.845205  s :     2.845205
      pz      :     0.897215  p :     3.056990
      px      :     1.096969
      py      :     1.062807
      dz2     :     0.127188  d :     0.455503
      dxz     :     0.153110
      dyz     :     0.088905
      dx2y2   :     0.042029
      dxy     :     0.044269
      f0      :     0.019236  f :     0.067579
      f+1     :     0.013164
      f-1     :     0.013532
      f+2     :     0.007933
      f-2     :     0.009317
      f+3     :     0.002966
      f-3     :     0.001433
  7 O s       :     3.362467  s :     3.362467
      pz      :     1.527754  p :     4.615786
      px      :     1.727658
      py      :     1.360375
      dz2     :     0.029604  d :     0.080017
      dxz     :     0.015268
      dyz     :     0.015846
      dx2y2   :     0.010180
      dxy     :     0.009118
      f0      :     0.001248  f :     0.005206
      f+1     :     0.001038
      f-1     :     0.001310
      f+2     :     0.000441
      f-2     :     0.000438
      f+3     :     0.000568
      f-3     :     0.000161
  8 H s       :     0.664282  s :     0.664282
      pz      :     0.025014  p :     0.132393
      px      :     0.041696
      py      :     0.065683
  9 H s       :     0.830447  s :     0.830447
      pz      :     0.007779  p :     0.054663
      px      :     0.015981
      py      :     0.030903
 10 H s       :     0.850390  s :     0.850390
      pz      :     0.018256  p :     0.061560
      px      :     0.022804
      py      :     0.020499
 11 H s       :     0.850367  s :     0.850367
      pz      :     0.016728  p :     0.066540
      px      :     0.034166
      py      :     0.015645


                      *****************************
                      * MAYER POPULATION ANALYSIS *
                      *****************************

  NA   - Mulliken gross atomic population
  ZA   - Total nuclear charge
  QA   - Mulliken gross atomic charge
  VA   - Mayer's total valence
  BVA  - Mayer's bonded valence
  FA   - Mayer's free valence

  ATOM       NA         ZA         QA         VA         BVA        FA
  0 C      0.0009     0.0000    -0.0009     0.0018     0.0018    -0.0000
  1 O     -0.0000     0.0000     0.0000    -0.0001    -0.0001    -0.0000
  2 H     -0.0000     0.0000     0.0000    -0.0000    -0.0000     0.0000
  3 H     -0.0000     0.0000     0.0000    -0.0001    -0.0001     0.0000
  4 H     -0.0014     0.0000     0.0014    -0.0028    -0.0028     0.0000
  5 H     -0.0000     0.0000     0.0000    -0.0000    -0.0000     0.0000
  6 C      6.1433     6.0000    -0.1433     3.9472     3.9472     0.0000
  7 O      8.4756     8.0000    -0.4756     1.8714     1.8714     0.0000
  8 H      0.6817     1.0000     0.3183     0.9048     0.9048     0.0000
  9 H      0.8896     1.0000     0.1104     0.9601     0.9601     0.0000
 10 H      0.9103     1.0000     0.0897     0.9562     0.9562     0.0000
 11 H      0.9001     1.0000     0.0999     0.9577     0.9577     0.0000

  Mayer bond orders larger than 0.1
B(  6-C ,  7-O ) :   1.0032 B(  6-C ,  9-H ) :   0.9700 B(  6-C , 10-H ) :   0.9806 
B(  6-C , 11-H ) :   0.9814 B(  7-O ,  8-H ) :   0.8859 

-------
TIMINGS
-------

Total SCF time: 0 days 0 hours 0 min 8 sec 

Total time                  ....       8.375 sec
Sum of individual times     ....       8.084 sec  ( 96.5%)

Fock matrix formation       ....       7.562 sec  ( 90.3%)
  XC integration            ....       1.021 sec  ( 13.5% of F)
    Basis function eval.    ....       0.063 sec  (  6.2% of XC)
    Density eval.           ....       0.056 sec  (  5.5% of XC)
    XC-Functional eval.     ....       0.093 sec  (  9.1% of XC)
    XC-Potential eval.      ....       0.062 sec  (  6.1% of XC)
Diagonalization             ....       0.048 sec  (  0.6%)
Density matrix formation    ....       0.005 sec  (  0.1%)
Population analysis         ....       0.022 sec  (  0.3%)
Initial guess               ....       0.094 sec  (  1.1%)
Orbital Transformation      ....       0.000 sec  (  0.0%)
Orbital Orthonormalization  ....       0.000 sec  (  0.0%)
DIIS solution               ....       0.029 sec  (  0.3%)
SOSCF solution              ....       0.024 sec  (  0.3%)
Grid generation             ....       0.301 sec  (  3.6%)


-------------------------------------------------------------------------------
                          DFT DISPERSION CORRECTION                            
                                                                               
                              DFTD3 V3.1  Rev 1                                
                              USING zero damping                               
-------------------------------------------------------------------------------
The omegaB97X-D3 functional is recognized. Fit by Chai et al.
Active option DFTDOPT                   ...         3   

molecular C6(AA) [au] = 208.747148 


            DFT-D V3
 parameters
 s6 scaling factor         :     1.0000 
 rs6 scaling factor        :     1.2810 
 s8 scaling factor         :     1.0000 
 rs8 scaling factor        :     1.0940 
 Damping factor alpha6     :    14.0000 
 Damping factor alpha8     :    16.0000 
 ad hoc parameters k1-k3   :    16.0000     1.3333    -4.0000 

 Edisp/kcal,au: -0.134462597440  -0.000214279766 
 E6   /kcal   :  -0.029072029 
 E8   /kcal   :  -0.105390568 
 % E8         :  78.379095924 

-------------------------   ----------------
Dispersion correction           -0.000214280
-------------------------   ----------------


-------------------------   --------------------
FINAL SINGLE POINT ENERGY      -115.730636892124
-------------------------   --------------------


                            ***************************************
                            *     ORCA property calculations      *
                            ***************************************

                                    ---------------------
                                    Active property flags
                                    ---------------------
   (+) Dipole Moment


------------------------------------------------------------------------------
                       ORCA ELECTRIC PROPERTIES CALCULATION
------------------------------------------------------------------------------

Dipole Moment Calculation                       ... on
Quadrupole Moment Calculation                   ... off
Polarizability Calculation                      ... off
GBWName                                         ... 8-90_DFT_B.gbw
Electron density file                           ... 8-90_DFT_B.scfp.tmp
The origin for moment calculation is the CENTER OF MASS  = (-16.624123, -10.236293  4.793356)

-------------
DIPOLE MOMENT
-------------
                                X             Y             Z
Electronic contribution:     -0.15809       0.53868      -1.68813
Nuclear contribution   :     -0.02863      -0.13843       2.18230
                        -----------------------------------------
Total Dipole Moment    :     -0.18672       0.40024       0.49417
                        -----------------------------------------
Magnitude (a.u.)       :      0.66277
Magnitude (Debye)      :      1.68462



--------------------
Rotational spectrum 
--------------------
 
Rotational constants in cm-1:     4.275918     0.887896     0.845977 
Rotational constants in MHz : 128188.787204 26618.456971 25361.762588 

 Dipole components along the rotational axes: 
x,y,z [a.u.] :     0.247894     0.614564     0.010989 
x,y,z [Debye]:     0.630097     1.562097     0.027932 

 
------------------------------------------------------------------------------
                      ORCA CHELPG CHARGES GENERATION
------------------------------------------------------------------------------

GBW file                           ... 8-90_DFT_B.gbw

Reading the GBW file               ... done

Grid spacing                       ...     0.300000
Point Cut-Off                      ...     2.800000
Van-der-Waals Radii                ...        COSMO
Total charge                       ...            0


Number of points X direction       ...           39
Number of points Y direction       ...           32
Number of points Z direction       ...           30
Maximum number of possible points  ...        37440
Final number of points             ...         5996


CHELPG Charges            
--------------------------------
  0   C   :       0.254824
  1   O   :      -0.227963
  2   H   :       0.194168
  3   H   :      -0.132768
  4   H   :      -0.018890
  5   H   :      -0.082548
  6   C   :       0.120463
  7   O   :      -0.589975
  8   H   :       0.394950
  9   H   :       0.075882
 10   H   :       0.005233
 11   H   :       0.006626
--------------------------------
Total charge:    -0.000000
--------------------------------

CHELPG charges calculated...

Timings for individual parts in CHELPG calculation:
Grid generation                 ...        0.001 sec (=   0.000 min)
Potential calculation           ...        1.065 sec (=   0.018 min)
Fit to the potential            ...        0.002 sec (=   0.000 min)
------------------------------------------------------------------------------


Timings for individual modules:

Sum of individual times         ...       10.409 sec (=   0.173 min)
GTO integral calculation        ...        0.583 sec (=   0.010 min)   5.6 %
SCF iterations                  ...        8.723 sec (=   0.145 min)  83.8 %
CHELPG charge generation        ...        1.103 sec (=   0.018 min)  10.6 %



                             ****ORCA TERMINATED NORMALLY****
TOTAL RUN TIME: 0 days 0 hours 0 minutes 41 seconds 571 msec
