
                                 *****************
                                 * O   R   C   A *
                                 *****************

           --- An Ab Initio, DFT and Semiempirical electronic structure package ---

                  #######################################################
                  #                        -***-                        #
                  #          Department of theory and spectroscopy      #
                  #               Directorship: Frank Neese             #
                  #        Max Planck Institute fuer Kohlenforschung    #
                  #                Kaiser Wilhelm Platz 1               #
                  #                 D-45470 Muelheim/Ruhr               #
                  #                      Germany                        #
                  #                                                     #
                  #                  All rights reserved                #
                  #                        -***-                        #
                  #######################################################


                         Program Version 4.1.2  - RELEASE  -


 With contributions from (in alphabetic order):
   Daniel Aravena         : Magnetic Properties
   Michael Atanasov       : Ab Initio Ligand Field Theory
   Alexander A. Auer      : GIAO ZORA
   Ute Becker             : Parallelization
   Giovanni Bistoni       : ED, Open-shell LED
   Martin Brehm           : Molecular dynamics
   Dmytro Bykov           : SCF Hessian
   Vijay G. Chilkuri      : MRCI spin determinant printing
   Dipayan Datta          : RHF DLPNO-CCSD density
   Achintya Kumar Dutta   : EOM-CC, STEOM-CC
   Dmitry Ganyushin       : Spin-Orbit,Spin-Spin,Magnetic field MRCI
   Miquel Garcia          : C-PCM Hessian
   Yang Guo               : DLPNO-NEVPT2, CIM, IAO-localization
   Andreas Hansen         : Spin unrestricted coupled pair/coupled cluster methods
   Benjamin Helmich-Paris : CASSCF linear response (MC-RPA)
   Lee Huntington         : MR-EOM, pCC
   Robert Izsak           : Overlap fitted RIJCOSX, COSX-SCS-MP3, EOM
   Christian Kollmar      : KDIIS, OOCD, Brueckner-CCSD(T), CCSD density
   Simone Kossmann        : Meta GGA functionals, TD-DFT gradient, OOMP2, MP2 Hessian
   Martin Krupicka        : AUTO-CI
   Lucas Lang             : DCDCAS
   Dagmar Lenk            : GEPOL surface, SMD
   Dimitrios Liakos       : Extrapolation schemes; parallel MDCI
   Dimitrios Manganas     : ROCIS; embedding schemes
   Dimitrios Pantazis     : SARC Basis sets
   Taras Petrenko         : DFT Hessian,TD-DFT gradient, ASA, ECA, R-Raman, ABS, FL, XAS/XES, NRVS
   Peter Pinski           : DLPNO-MP2, DLPNO-MP2 Gradient
   Christoph Reimann      : Effective Core Potentials
   Marius Retegan         : Local ZFS, SOC
   Christoph Riplinger    : Optimizer, TS searches, QM/MM, DLPNO-CCSD(T), (RO)-DLPNO pert. Triples
   Tobias Risthaus        : Range-separated hybrids, TD-DFT gradient, RPA, STAB
   Michael Roemelt        : Restricted open shell CIS
   Masaaki Saitow         : Open-shell DLPNO
   Barbara Sandhoefer     : DKH picture change effects
   Avijit Sen             : IP-ROCIS
   Kantharuban Sivalingam : CASSCF convergence, NEVPT2, FIC-MRCI
   Bernardo de Souza      : ESD, SOC TD-DFT
   Georgi Stoychev        : AutoAux, RI-MP2 NMR
   Willem Van den Heuvel  : Paramagnetic NMR
   Boris Wezisla          : Elementary symmetry handling
   Frank Wennmohs         : Technical directorship


 We gratefully acknowledge several colleagues who have allowed us to
 interface, adapt or use parts of their codes:
   Stefan Grimme, W. Hujo, H. Kruse,             : VdW corrections, initial TS optimization,
                  C. Bannwarth                     DFT functionals, gCP, sTDA/sTD-DF
   Ed Valeev                                     : LibInt (2-el integral package), F12 methods
   Garnet Chan, S. Sharma, J. Yang, R. Olivares  : DMRG
   Ulf Ekstrom                                   : XCFun DFT Library
   Mihaly Kallay                                 : mrcc  (arbitrary order and MRCC methods)
   Andreas Klamt, Michael Diedenhofen            : otool_cosmo (COSMO solvation model)
   Jiri Pittner, Ondrej Demel                    : Mk-CCSD
   Frank Weinhold                                : gennbo (NPA and NBO analysis)
   Christopher J. Cramer and Donald G. Truhlar   : smd solvation model
   Lars Goerigk                                  : TD-DFT with DH, B97 family of functionals
   V. Asgeirsson, H. Jonsson                     : NEB implementation
   FAccTs GmbH                                   : IRC, NEB, NEB-TS, Multilevel


 Your calculation uses the libint2 library for the computation of 2-el integrals
 For citations please refer to: http://libint.valeyev.net

 This ORCA versions uses:
   CBLAS   interface :  Fast vector & matrix operations
   LAPACKE interface :  Fast linear algebra routines
   SCALAPACK package :  Parallel linear algebra routines


Your calculation utilizes the atom-pairwise dispersion correction
with the zero-damping scheme (D30)
Cite in your paper:
S.Grimme, J.Antony, S.Ehrlich and H.Krieg, J.Chem.Phys., 132, (2010), 154104 
   

XCFun DFT library Copyright 2009-2010 Ulf Ekstrom and contributors.
See http://admol.org/xcfun for more information. This is free soft-
ware; see the source code for copying conditions. There is ABSOLUTELY
NO WARRANTY; not even for MERCHANTABILITY or FITNESS FOR A PARTICULAR
PURPOSE. For details see the documentation. Scientific users of this 
library should cite U. Ekstrom, L. Visscher, R. Bast, A. J. Thorvald-
sen and K. Ruud; J.Chem.Theor.Comp. 2010, DOI: 10.1021/ct100117s
XCFun Version 0.99 
----- Orbital basis set information -----
Your calculation utilizes the basis: def2-TZVP
   F. Weigend and R. Ahlrichs, Phys. Chem. Chem. Phys. 7, 3297 (2005).

================================================================================
                                        WARNINGS
                       Please study these warnings very carefully!
================================================================================


INFO   : the flag for use of LIBINT has been found!

================================================================================
                                       INPUT FILE
================================================================================
NAME = 97.in
|  1> #Run DFT-D3 single point of the dimer
|  2> ! wB97X-D3 def2-TZVP TIGHTSCF  CHELPG PAL8
|  3> 
|  4> %base "97_charges"
|  5> 
|  6> %scf
|  7> MaxIter 1000
|  8> end
|  9> %output
| 10>   Print[ P_Mayer ] 1
| 11>   Print[ P_NatPop ] 1
| 12>   Print[ P_Hirshfeld ] 1
| 13>   Print[ P_Mulliken ] 1
| 14>   Print [ P_Loewdin ] 1
| 15> end
| 16> 
| 17> * xyz 0 1
| 18>   C                      10.895842            3.859828             4.976887            
| 19>   O                      9.543575             3.413807             5.120331            
| 20>   H                      9.259058             3.103046             4.233005            
| 21>   H                      11.649375            3.017892             4.845191            
| 22>   H                      10.920710            4.614268             4.226234            
| 23>   H                      11.212051            4.419450             5.896009            
| 24> *
| 25> 
| 26>                          ****END OF INPUT****
================================================================================

                       ****************************
                       * Single Point Calculation *
                       ****************************

---------------------------------
CARTESIAN COORDINATES (ANGSTROEM)
---------------------------------
  C     10.895842    3.859828    4.976887
  O      9.543575    3.413807    5.120331
  H      9.259058    3.103046    4.233005
  H     11.649375    3.017892    4.845191
  H     10.920710    4.614268    4.226234
  H     11.212051    4.419450    5.896009

----------------------------
CARTESIAN COORDINATES (A.U.)
----------------------------
  NO LB      ZA    FRAG     MASS         X           Y           Z
   0 C     6.0000    0    12.011   20.590157    7.294018    9.404953
   1 O     8.0000    0    15.999   18.034743    6.451160    9.676023
   2 H     1.0000    0     1.008   17.497084    5.863907    7.999220
   3 H     1.0000    0     1.008   22.014128    5.702989    9.156084
   4 H     1.0000    0     1.008   20.637151    8.719703    7.986425
   5 H     1.0000    0     1.008   21.187706    8.351550   11.141842

--------------------------------
INTERNAL COORDINATES (ANGSTROEM)
--------------------------------
 C      0   0   0     0.000000000000     0.00000000     0.00000000
 O      1   0   0     1.431131354162     0.00000000     0.00000000
 H      2   1   0     0.982277838845   106.36433749     0.00000000
 H      1   2   3     1.137546503050   114.00728827   287.35808662
 H      1   2   3     1.064555333195   108.27732854    57.13885864
 H      1   2   3     1.121583775493   109.86222970   168.42526832

---------------------------
INTERNAL COORDINATES (A.U.)
---------------------------
 C      0   0   0     0.000000000000     0.00000000     0.00000000
 O      1   0   0     2.704446321034     0.00000000     0.00000000
 H      2   1   0     1.856236102837   106.36433749     0.00000000
 H      1   2   3     2.149651355364   114.00728827   287.35808662
 H      1   2   3     2.011718034143   108.27732854    57.13885864
 H      1   2   3     2.119486171931   109.86222970   168.42526832

---------------------
BASIS SET INFORMATION
---------------------
There are 3 groups of distinct atoms

 Group   1 Type C   : 11s6p2d1f contracted to 5s3p2d1f pattern {62111/411/11/1}
 Group   2 Type O   : 11s6p2d1f contracted to 5s3p2d1f pattern {62111/411/11/1}
 Group   3 Type H   : 5s1p contracted to 3s1p pattern {311/1}

Atom   0C    basis set group =>   1
Atom   1O    basis set group =>   2
Atom   2H    basis set group =>   3
Atom   3H    basis set group =>   3
Atom   4H    basis set group =>   3
Atom   5H    basis set group =>   3


           ************************************************************
           *        Program running with 8 parallel MPI-processes     *
           *              working on a common directory               *
           ************************************************************
------------------------------------------------------------------------------
                           ORCA GTO INTEGRAL CALCULATION
------------------------------------------------------------------------------

                         BASIS SET STATISTICS AND STARTUP INFO

 # of primitive gaussian shells          ...   64
 # of primitive gaussian functions       ...  124
 # of contracted shells                  ...   38
 # of contracted basis functions         ...   86
 Highest angular momentum                ...    3
 Maximum contraction depth               ...    6
 Integral package used                   ... LIBINT
 Integral threshhold            Thresh   ...  2.500e-11
 Primitive cut-off              TCut     ...  2.500e-12


------------------------------ INTEGRAL EVALUATION ----------------------------


 * One electron integrals 
 Pre-screening matrix                    ... done
 Shell pair data                         ... done (   0.000 sec)



           ************************************************************
           *        Program running with 8 parallel MPI-processes     *
           *              working on a common directory               *
           ************************************************************
-------------------------------------------------------------------------------
                                 ORCA SCF
-------------------------------------------------------------------------------

------------
SCF SETTINGS
------------
Hamiltonian:
 Density Functional     Method          .... DFT(GTOs)
 Exchange Functional    Exchange        .... WB97X-D3
 Correlation Functional Correlation     .... WB97X-D3
 Gradients option       PostSCFGGA      .... off
 Hybrid DFT is turned on
   Fraction HF Exchange ScalHFX         ....  0.195728
   Scaling of DF-GGA-X  ScalDFX         ....  0.000000
   Scaling of DF-GGA-C  ScalDFC         ....  1.000000
   Scaling of DF-LDA-C  ScalLDAC        ....  1.000000
   Perturbative correction              ....  0.000000
   Density functional embedding theory  .... OFF
 Long-range corrected/Screened/Range-Separated Hybrid DFT is turned on
   Amount of maximum screened exact exchange              ....  0.804272
   Range separation parameter mu (erf(mu*r12)/r12)        ....  0.250000


General Settings:
 Integral files         IntName         .... 97_charges
 Hartree-Fock type      HFTyp           .... RHF
 Total Charge           Charge          ....    0
 Multiplicity           Mult            ....    1
 Number of Electrons    NEL             ....   18
 Basis Dimension        Dim             ....   86
 Nuclear Repulsion      ENuc            ....     39.8716275095 Eh

Convergence Acceleration:
 DIIS                   CNVDIIS         .... on
   Start iteration      DIISMaxIt       ....    12
   Startup error        DIISStart       ....  0.200000
   # of expansion vecs  DIISMaxEq       ....     5
   Bias factor          DIISBfac        ....   1.050
   Max. coefficient     DIISMaxC        ....  10.000
 Newton-Raphson         CNVNR           .... off
 SOSCF                  CNVSOSCF        .... on
   Start iteration      SOSCFMaxIt      ....   150
   Startup grad/error   SOSCFStart      ....  0.003300
 Level Shifting         CNVShift        .... on
   Level shift para.    LevelShift      ....    0.2500
   Turn off err/grad.   ShiftErr        ....    0.0010
 Zerner damping         CNVZerner       .... off
 Static damping         CNVDamp         .... on
   Fraction old density DampFac         ....    0.7000
   Max. Damping (<1)    DampMax         ....    0.9800
   Min. Damping (>=0)   DampMin         ....    0.0000
   Turn off err/grad.   DampErr         ....    0.1000
 Fernandez-Rico         CNVRico         .... off

SCF Procedure:
 Maximum # iterations   MaxIter         ....  1000
 SCF integral mode      SCFMode         .... Direct
   Integral package                     .... LIBINT
 Reset frequency        DirectResetFreq ....    20
 Integral Threshold     Thresh          ....  2.500e-11 Eh
 Primitive CutOff       TCut            ....  2.500e-12 Eh

Convergence Tolerance:
 Convergence Check Mode ConvCheckMode   .... Total+1el-Energy
 Convergence forced     ConvForced      .... 0
 Energy Change          TolE            ....  1.000e-08 Eh
 1-El. energy change                    ....  1.000e-05 Eh
 Orbital Gradient       TolG            ....  1.000e-05
 Orbital Rotation angle TolX            ....  1.000e-05
 DIIS Error             TolErr          ....  5.000e-07


Diagonalization of the overlap matrix:
Smallest eigenvalue                        ... 1.737e-03
Time for diagonalization                   ...    0.003 sec
Threshold for overlap eigenvalues          ... 1.000e-08
Number of eigenvalues below threshold      ... 0
Time for construction of square roots      ...    0.004 sec
Total time needed                          ...    0.007 sec

-------------------
DFT GRID GENERATION
-------------------

General Integration Accuracy     IntAcc      ...  4.340
Radial Grid Type                 RadialGrid  ... Gauss-Chebyshev
Angular Grid (max. acc.)         AngularGrid ... Lebedev-110
Angular grid pruning method      GridPruning ... 3 (G Style)
Weight generation scheme         WeightScheme... Becke
Basis function cutoff            BFCut       ...    1.0000e-11
Integration weight cutoff        WCut        ...    1.0000e-14
Grids for H and He will be reduced by one unit

# of grid points (after initial pruning)     ...   6548 (   0.0 sec)
# of grid points (after weights+screening)   ...   6363 (   0.0 sec)
nearest neighbour list constructed           ...    0.0 sec
Grid point re-assignment to atoms done       ...    0.0 sec
Grid point division into batches done        ...    0.0 sec
Reduced shell lists constructed in    0.0 sec

Total number of grid points                  ...     6363
Total number of batches                      ...      103
Average number of points per batch           ...       61
Average number of grid points per atom       ...     1060
Average number of shells per batch           ...    32.14 (84.59%)
Average number of basis functions per batch  ...    74.00 (86.05%)
Average number of large shells per batch     ...    31.21 (97.11%)
Average number of large basis fcns per batch ...    72.21 (97.59%)
Maximum spatial batch extension              ...  16.66, 22.43, 17.43 au
Average spatial batch extension              ...   0.45,  0.50,  0.37 au

Time for grid setup =    0.100 sec

------------------------------
INITIAL GUESS: MODEL POTENTIAL
------------------------------
Loading Hartree-Fock densities                     ... done
Calculating cut-offs                               ... done
Setting up the integral package                    ... done
Initializing the effective Hamiltonian             ... done
Starting the Coulomb interaction                   ... done (   0.0 sec)
Reading the grid                                   ... done
Mapping shells                                     ... done
Starting the XC term evaluation                    ... done (   0.1 sec)
  promolecular density results
     # of electrons  =     18.002424530
     EX              =    -14.413431980
     EC              =     -0.573130477
     EX+EC           =    -14.986562457
Transforming the Hamiltonian                       ... done (   0.0 sec)
Diagonalizing the Hamiltonian                      ... done (   0.1 sec)
Back transforming the eigenvectors                 ... done (   0.0 sec)
Now organizing SCF variables                       ... done
                      ------------------
                      INITIAL GUESS DONE (   0.8 sec)
                      ------------------
--------------
SCF ITERATIONS
--------------
ITER       Energy         Delta-E        Max-DP      RMS-DP      [F,P]     Damp
               ***  Starting incremental Fock matrix formation  ***
  0   -115.6491090827   0.000000000000 0.03629525  0.00145618  0.2531603 0.7000
  1   -115.6848587522  -0.035749669506 0.02193201  0.00102372  0.1264387 0.7000
                               ***Turning on DIIS***
  2   -115.7011671949  -0.016308442729 0.03198857  0.00183057  0.0492428 0.0000
  3   -115.7276671821  -0.026499987167 0.01751905  0.00068223  0.0599037 0.0000
  4   -115.7320580085  -0.004390826425 0.00400693  0.00013644  0.0061788 0.0000
                      *** Initiating the SOSCF procedure ***
                           *** Shutting down DIIS ***
                      *** Re-Reading the Fockian *** 
                      *** Removing any level shift *** 
ITER      Energy       Delta-E        Grad      Rot      Max-DP    RMS-DP
  5   -115.73215133  -0.0000933194  0.000431  0.000431  0.000704  0.000047
               *** Restarting incremental Fock matrix formation ***
  6   -115.73215962  -0.0000082944  0.000148  0.000184  0.000421  0.000029
  7   -115.73216041  -0.0000007920  0.000047  0.000092  0.000201  0.000013
  8   -115.73216048  -0.0000000619  0.000024  0.000020  0.000038  0.000002
  9   -115.73216048  -0.0000000087  0.000012  0.000010  0.000020  0.000001
                  ***Gradient check signals convergence***
              ***Rediagonalizing the Fockian in SOSCF/NRSCF***

               *****************************************************
               *                     SUCCESS                       *
               *           SCF CONVERGED AFTER  10 CYCLES          *
               *****************************************************

Setting up the final grid:

General Integration Accuracy     IntAcc      ...  4.670
Radial Grid Type                 RadialGrid  ... Gauss-Chebyshev
Angular Grid (max. acc.)         AngularGrid ... Lebedev-302
Angular grid pruning method      GridPruning ... 3 (G Style)
Weight generation scheme         WeightScheme... Becke
Basis function cutoff            BFCut       ...    1.0000e-11
Integration weight cutoff        WCut        ...    1.0000e-14
Grids for H and He will be reduced by one unit

# of grid points (after initial pruning)     ...  26000 (   0.0 sec)
# of grid points (after weights+screening)   ...  25190 (   0.0 sec)
nearest neighbour list constructed           ...    0.0 sec
Grid point re-assignment to atoms done       ...    0.0 sec
Grid point division into batches done        ...    0.2 sec
Reduced shell lists constructed in    0.2 sec

Total number of grid points                  ...    25190
Total number of batches                      ...      396
Average number of points per batch           ...       63
Average number of grid points per atom       ...     4198
Average number of shells per batch           ...    31.41 (82.66%)
Average number of basis functions per batch  ...    71.84 (83.54%)
Average number of large shells per batch     ...    29.94 (95.32%)
Average number of large basis fcns per batch ...    68.92 (95.93%)
Maximum spatial batch extension              ...  15.48, 14.82, 14.44 au
Average spatial batch extension              ...   0.30,  0.33,  0.30 au

Final grid set up in    1.5 sec
Final integration                            ... done (   0.2 sec)
Change in XC energy                          ...     0.000177557
Integrated number of electrons               ...    17.999992815
Previous integrated no of electrons          ...    18.002839826

----------------
TOTAL SCF ENERGY
----------------

Total Energy       :         -115.73198293 Eh           -3149.22736 eV

Components:
Nuclear Repulsion  :           39.87162751 Eh            1084.96214 eV
Electronic Energy  :         -155.60361044 Eh           -4234.18950 eV
One Electron Energy:         -236.20945536 Eh           -6427.58605 eV
Two Electron Energy:           80.60584492 Eh            2193.39655 eV

Virial components:
Potential Energy   :         -230.85801214 Eh           -6281.96588 eV
Kinetic Energy     :          115.12602921 Eh            3132.73852 eV
Virial Ratio       :            2.00526339


DFT components:
N(Alpha)           :        8.999996407639 electrons
N(Beta)            :        8.999996407639 electrons
N(Total)           :       17.999992815279 electrons
E(XC)              :      -10.627798095047 Eh       
DFET-embed. en.    :        0.000000000000 Eh       

---------------
SCF CONVERGENCE
---------------

  Last Energy change         ...   -2.3083e-09  Tolerance :   1.0000e-08
  Last MAX-Density change    ...    3.4599e-06  Tolerance :   1.0000e-07
  Last RMS-Density change    ...    2.0483e-07  Tolerance :   5.0000e-09
  Last Orbital Gradient      ...    1.9531e-06  Tolerance :   1.0000e-05
  Last Orbital Rotation      ...    2.6601e-06  Tolerance :   1.0000e-05

             **** THE GBW FILE WAS UPDATED (97_charges.gbw) ****
             **** DENSITY FILE WAS UPDATED (97_charges.scfp.tmp) ****
             **** ENERGY FILE WAS UPDATED (97_charges.en.tmp) ****
----------------
ORBITAL ENERGIES
----------------

  NO   OCC          E(Eh)            E(eV) 
   0   2.0000     -19.232747      -523.3497 
   1   2.0000     -10.318794      -280.7887 
   2   2.0000      -1.127964       -30.6935 
   3   2.0000      -0.791032       -21.5251 
   4   2.0000      -0.600773       -16.3479 
   5   2.0000      -0.546494       -14.8709 
   6   2.0000      -0.520616       -14.1667 
   7   2.0000      -0.427967       -11.6456 
   8   2.0000      -0.376466       -10.2442 
   9   0.0000       0.113953         3.1008 
  10   0.0000       0.150708         4.1010 
  11   0.0000       0.198163         5.3923 
  12   0.0000       0.204055         5.5526 
  13   0.0000       0.217885         5.9289 
  14   0.0000       0.306453         8.3390 
  15   0.0000       0.320096         8.7103 
  16   0.0000       0.393683        10.7127 
  17   0.0000       0.442837        12.0502 
  18   0.0000       0.471571        12.8321 
  19   0.0000       0.528701        14.3867 
  20   0.0000       0.545371        14.8403 
  21   0.0000       0.558636        15.2012 
  22   0.0000       0.590898        16.0791 
  23   0.0000       0.614766        16.7286 
  24   0.0000       0.668628        18.1943 
  25   0.0000       0.769696        20.9445 
  26   0.0000       0.814648        22.1677 
  27   0.0000       0.867628        23.6094 
  28   0.0000       0.986988        26.8573 
  29   0.0000       1.019057        27.7300 
  30   0.0000       1.104792        30.0629 
  31   0.0000       1.366657        37.1886 
  32   0.0000       1.506542        40.9951 
  33   0.0000       1.553496        42.2728 
  34   0.0000       1.592139        43.3243 
  35   0.0000       1.598907        43.5085 
  36   0.0000       1.654568        45.0231 
  37   0.0000       1.670163        45.4474 
  38   0.0000       1.687629        45.9227 
  39   0.0000       1.787451        48.6390 
  40   0.0000       1.951918        53.1144 
  41   0.0000       2.005627        54.5759 
  42   0.0000       2.041994        55.5655 
  43   0.0000       2.084663        56.7266 
  44   0.0000       2.114048        57.5262 
  45   0.0000       2.255557        61.3768 
  46   0.0000       2.300827        62.6087 
  47   0.0000       2.346613        63.8546 
  48   0.0000       2.377475        64.6944 
  49   0.0000       2.388302        64.9890 
  50   0.0000       2.514068        68.4113 
  51   0.0000       2.574553        70.0572 
  52   0.0000       2.664112        72.4942 
  53   0.0000       2.671253        72.6885 
  54   0.0000       2.818953        76.7076 
  55   0.0000       2.841787        77.3289 
  56   0.0000       2.894170        78.7544 
  57   0.0000       2.970877        80.8417 
  58   0.0000       3.092336        84.1467 
  59   0.0000       3.159761        85.9815 
  60   0.0000       3.255764        88.5938 
  61   0.0000       3.378075        91.9221 
  62   0.0000       3.425742        93.2192 
  63   0.0000       3.486504        94.8726 
  64   0.0000       3.582560        97.4864 
  65   0.0000       3.620829        98.5278 
  66   0.0000       3.672962        99.9464 
  67   0.0000       3.966630       107.9375 
  68   0.0000       4.141783       112.7037 
  69   0.0000       4.261195       115.9530 
  70   0.0000       4.458184       121.3134 
  71   0.0000       4.562079       124.1405 
  72   0.0000       5.343547       145.4053 
  73   0.0000       5.423519       147.5815 
  74   0.0000       5.524643       150.3332 
  75   0.0000       5.776219       157.1789 
  76   0.0000       5.794671       157.6810 
  77   0.0000       5.960831       162.2025 
  78   0.0000       6.287135       171.0816 
  79   0.0000       6.519750       177.4114 
  80   0.0000       6.743015       183.4868 
  81   0.0000       6.795183       184.9063 
  82   0.0000       7.027261       191.2215 
  83   0.0000       7.181673       195.4232 
  84   0.0000      22.302913       606.8931 
  85   0.0000      43.653847      1187.8816 

                    ********************************
                    * MULLIKEN POPULATION ANALYSIS *
                    ********************************

-----------------------
MULLIKEN ATOMIC CHARGES
-----------------------
   0 C :   -0.164665
   1 O :   -0.478617
   2 H :    0.316841
   3 H :    0.101280
   4 H :    0.108328
   5 H :    0.116833
Sum of atomic charges:   -0.0000000

--------------------------------
MULLIKEN REDUCED ORBITAL CHARGES
--------------------------------
  0 C s       :     3.230780  s :     3.230780
      pz      :     1.092738  p :     2.832502
      px      :     0.733458
      py      :     1.006306
      dz2     :     0.005891  d :     0.094201
      dxz     :     0.026332
      dyz     :     0.012761
      dx2y2   :     0.020099
      dxy     :     0.029117
      f0      :     0.000710  f :     0.007181
      f+1     :     0.000449
      f-1     :     0.000776
      f+2     :     0.000902
      f-2     :     0.000534
      f+3     :     0.002230
      f-3     :     0.001581
  1 O s       :     3.806539  s :     3.806539
      pz      :     1.464459  p :     4.640371
      px      :     1.368941
      py      :     1.806971
      dz2     :     0.009438  d :     0.030139
      dxz     :     0.006377
      dyz     :     0.004184
      dx2y2   :     0.005833
      dxy     :     0.004308
      f0      :     0.000200  f :     0.001568
      f+1     :     0.000193
      f-1     :     0.000266
      f+2     :     0.000105
      f-2     :     0.000158
      f+3     :     0.000281
      f-3     :     0.000363
  2 H s       :     0.638586  s :     0.638586
      pz      :     0.016576  p :     0.044573
      px      :     0.011743
      py      :     0.016255
  3 H s       :     0.880184  s :     0.880184
      pz      :     0.003738  p :     0.018535
      px      :     0.006850
      py      :     0.007947
  4 H s       :     0.870623  s :     0.870623
      pz      :     0.008726  p :     0.021049
      px      :     0.003169
      py      :     0.009154
  5 H s       :     0.863905  s :     0.863905
      pz      :     0.009697  p :     0.019262
      px      :     0.003366
      py      :     0.006199


                     *******************************
                     * LOEWDIN POPULATION ANALYSIS *
                     *******************************

----------------------
LOEWDIN ATOMIC CHARGES
----------------------
   0 C :   -0.384091
   1 O :   -0.101586
   2 H :    0.180797
   3 H :    0.102358
   4 H :    0.088818
   5 H :    0.113706

-------------------------------
LOEWDIN REDUCED ORBITAL CHARGES
-------------------------------
  0 C s       :     2.876810  s :     2.876810
      pz      :     1.126354  p :     3.054523
      px      :     0.866302
      py      :     1.061867
      dz2     :     0.041402  d :     0.399511
      dxz     :     0.076652
      dyz     :     0.062354
      dx2y2   :     0.092062
      dxy     :     0.127041
      f0      :     0.004765  f :     0.053249
      f+1     :     0.007200
      f-1     :     0.003229
      f+2     :     0.008831
      f-2     :     0.003038
      f+3     :     0.015720
      f-3     :     0.010465
  1 O s       :     3.394333  s :     3.394333
      pz      :     1.478036  p :     4.634889
      px      :     1.429110
      py      :     1.727743
      dz2     :     0.015454  d :     0.068051
      dxz     :     0.017909
      dyz     :     0.007077
      dx2y2   :     0.014415
      dxy     :     0.013197
      f0      :     0.000801  f :     0.004313
      f+1     :     0.000673
      f-1     :     0.000534
      f+2     :     0.000374
      f-2     :     0.000323
      f+3     :     0.000776
      f-3     :     0.000832
  2 H s       :     0.671090  s :     0.671090
      pz      :     0.073441  p :     0.148113
      px      :     0.029857
      py      :     0.044816
  3 H s       :     0.843384  s :     0.843384
      pz      :     0.011612  p :     0.054258
      px      :     0.019310
      py      :     0.023336
  4 H s       :     0.844984  s :     0.844984
      pz      :     0.027728  p :     0.066199
      px      :     0.010673
      py      :     0.027797
  5 H s       :     0.830766  s :     0.830766
      pz      :     0.028477  p :     0.055528
      px      :     0.009440
      py      :     0.017611


                      *****************************
                      * MAYER POPULATION ANALYSIS *
                      *****************************

  NA   - Mulliken gross atomic population
  ZA   - Total nuclear charge
  QA   - Mulliken gross atomic charge
  VA   - Mayer's total valence
  BVA  - Mayer's bonded valence
  FA   - Mayer's free valence

  ATOM       NA         ZA         QA         VA         BVA        FA
  0 C      6.1647     6.0000    -0.1647     3.9317     3.9317    -0.0000
  1 O      8.4786     8.0000    -0.4786     1.8859     1.8859     0.0000
  2 H      0.6832     1.0000     0.3168     0.9083     0.9083     0.0000
  3 H      0.8987     1.0000     0.1013     0.9603     0.9603    -0.0000
  4 H      0.8917     1.0000     0.1083     0.9626     0.9626    -0.0000
  5 H      0.8832     1.0000     0.1168     0.9582     0.9582    -0.0000

  Mayer bond orders larger than 0.1
B(  0-C ,  1-O ) :   0.9993 B(  0-C ,  3-H ) :   0.9685 B(  0-C ,  4-H ) :   0.9818 
B(  0-C ,  5-H ) :   0.9729 B(  1-O ,  2-H ) :   0.8959 


------------------
HIRSHFELD ANALYSIS
------------------

Total integrated alpha density =      9.001419913
Total integrated beta density  =      9.001419913

  ATOM     CHARGE      SPIN    
   0 C    0.005777    0.000000
   1 O   -0.257897    0.000000
   2 H    0.161010    0.000000
   3 H    0.028149    0.000000
   4 H    0.024156    0.000000
   5 H    0.035965    0.000000

  TOTAL  -0.002840    0.000000

-------
TIMINGS
-------

Total SCF time: 0 days 0 hours 0 min 25 sec 

Total time                  ....      25.793 sec
Sum of individual times     ....      22.750 sec  ( 88.2%)

Fock matrix formation       ....      16.339 sec  ( 63.3%)
  XC integration            ....       4.065 sec  ( 24.9% of F)
    Basis function eval.    ....       0.034 sec  (  0.8% of XC)
    Density eval.           ....       0.043 sec  (  1.1% of XC)
    XC-Functional eval.     ....       0.087 sec  (  2.1% of XC)
    XC-Potential eval.      ....       0.041 sec  (  1.0% of XC)
Diagonalization             ....       0.981 sec  (  3.8%)
Density matrix formation    ....       1.922 sec  (  7.5%)
Population analysis         ....       0.319 sec  (  1.2%)
Initial guess               ....       0.680 sec  (  2.6%)
Orbital Transformation      ....       0.000 sec  (  0.0%)
Orbital Orthonormalization  ....       0.000 sec  (  0.0%)
DIIS solution               ....       0.222 sec  (  0.9%)
SOSCF solution              ....       0.641 sec  (  2.5%)
Grid generation             ....       1.647 sec  (  6.4%)


-------------------------------------------------------------------------------
                          DFT DISPERSION CORRECTION                            
                                                                               
                              DFTD3 V3.1  Rev 1                                
                              USING zero damping                               
-------------------------------------------------------------------------------
The omegaB97X-D3 functional is recognized. Fit by Chai et al.
Active option DFTDOPT                   ...         3   

molecular C6(AA) [au] = 208.842057 


            DFT-D V3
 parameters
 s6 scaling factor         :     1.0000 
 rs6 scaling factor        :     1.2810 
 s8 scaling factor         :     1.0000 
 rs8 scaling factor        :     1.0940 
 Damping factor alpha6     :    14.0000 
 Damping factor alpha8     :    16.0000 
 ad hoc parameters k1-k3   :    16.0000     1.3333    -4.0000 

 Edisp/kcal,au: -0.159742893142  -0.000254566477 
 E6   /kcal   :  -0.033097780 
 E8   /kcal   :  -0.126645114 
 % E8         :  79.280593348 

-------------------------   ----------------
Dispersion correction           -0.000254566
-------------------------   ----------------


-------------------------   --------------------
FINAL SINGLE POINT ENERGY      -115.732237496475
-------------------------   --------------------


                            ***************************************
                            *     ORCA property calculations      *
                            ***************************************

                                    ---------------------
                                    Active property flags
                                    ---------------------
   (+) Dipole Moment


------------------------------------------------------------------------------
                       ORCA ELECTRIC PROPERTIES CALCULATION
------------------------------------------------------------------------------

Dipole Moment Calculation                       ... on
Quadrupole Moment Calculation                   ... off
Polarizability Calculation                      ... off
GBWName                                         ... 97_charges.gbw
Electron density file                           ... 97_charges.scfp.tmp
The origin for moment calculation is the CENTER OF MASS  = (19.281973,  6.856245  9.498266)

-------------
DIPOLE MOMENT
-------------
                                X             Y             Z
Electronic contribution:     -1.72237      -0.57878       0.24448
Nuclear contribution   :      2.07944       0.59912      -0.84731
                        -----------------------------------------
Total Dipole Moment    :      0.35707       0.02034      -0.60283
                        -----------------------------------------
Magnitude (a.u.)       :      0.70094
Magnitude (Debye)      :      1.78165



--------------------
Rotational spectrum 
--------------------
 
Rotational constants in cm-1:     4.171505     0.807386     0.787358 
Rotational constants in MHz : 125058.583953 24204.824501 23604.395020 

 Dipole components along the rotational axes: 
x,y,z [a.u.] :    -0.364926     0.588609    -0.108091 
x,y,z [Debye]:    -0.927568     1.496126    -0.274744 

 
------------------------------------------------------------------------------
                      ORCA CHELPG CHARGES GENERATION
------------------------------------------------------------------------------

GBW file                           ... 97_charges.gbw

Reading the GBW file               ... done

Grid spacing                       ...     0.300000
Point Cut-Off                      ...     2.800000
Van-der-Waals Radii                ...        COSMO
Total charge                       ...            0


Number of points X direction       ...           26
Number of points Y direction       ...           23
Number of points Z direction       ...           24
Maximum number of possible points  ...        14352
Final number of points             ...         5928


CHELPG Charges            
--------------------------------
  0   C   :       0.057630
  1   O   :      -0.581535
  2   H   :       0.388803
  3   H   :       0.023329
  4   H   :       0.027203
  5   H   :       0.084570
--------------------------------
Total charge:     0.000000
--------------------------------

CHELPG charges calculated...

Timings for individual parts in CHELPG calculation:
Grid generation                 ...        0.001 sec (=   0.000 min)
Potential calculation           ...        0.651 sec (=   0.011 min)
Fit to the potential            ...        0.079 sec (=   0.001 min)
------------------------------------------------------------------------------


Timings for individual modules:

Sum of individual times         ...       35.353 sec (=   0.589 min)
GTO integral calculation        ...        5.312 sec (=   0.089 min)  15.0 %
SCF iterations                  ...       28.898 sec (=   0.482 min)  81.7 %
CHELPG charge generation        ...        1.143 sec (=   0.019 min)   3.2 %
                             ****ORCA TERMINATED NORMALLY****
TOTAL RUN TIME: 0 days 0 hours 0 minutes 40 seconds 639 msec
