
                                 *****************
                                 * O   R   C   A *
                                 *****************

           --- An Ab Initio, DFT and Semiempirical electronic structure package ---

                  #######################################################
                  #                        -***-                        #
                  #          Department of theory and spectroscopy      #
                  #               Directorship: Frank Neese             #
                  #        Max Planck Institute fuer Kohlenforschung    #
                  #                Kaiser Wilhelm Platz 1               #
                  #                 D-45470 Muelheim/Ruhr               #
                  #                      Germany                        #
                  #                                                     #
                  #                  All rights reserved                #
                  #                        -***-                        #
                  #######################################################


                         Program Version 4.1.2  - RELEASE  -


 With contributions from (in alphabetic order):
   Daniel Aravena         : Magnetic Properties
   Michael Atanasov       : Ab Initio Ligand Field Theory
   Alexander A. Auer      : GIAO ZORA
   Ute Becker             : Parallelization
   Giovanni Bistoni       : ED, Open-shell LED
   Martin Brehm           : Molecular dynamics
   Dmytro Bykov           : SCF Hessian
   Vijay G. Chilkuri      : MRCI spin determinant printing
   Dipayan Datta          : RHF DLPNO-CCSD density
   Achintya Kumar Dutta   : EOM-CC, STEOM-CC
   Dmitry Ganyushin       : Spin-Orbit,Spin-Spin,Magnetic field MRCI
   Miquel Garcia          : C-PCM Hessian
   Yang Guo               : DLPNO-NEVPT2, CIM, IAO-localization
   Andreas Hansen         : Spin unrestricted coupled pair/coupled cluster methods
   Benjamin Helmich-Paris : CASSCF linear response (MC-RPA)
   Lee Huntington         : MR-EOM, pCC
   Robert Izsak           : Overlap fitted RIJCOSX, COSX-SCS-MP3, EOM
   Christian Kollmar      : KDIIS, OOCD, Brueckner-CCSD(T), CCSD density
   Simone Kossmann        : Meta GGA functionals, TD-DFT gradient, OOMP2, MP2 Hessian
   Martin Krupicka        : AUTO-CI
   Lucas Lang             : DCDCAS
   Dagmar Lenk            : GEPOL surface, SMD
   Dimitrios Liakos       : Extrapolation schemes; parallel MDCI
   Dimitrios Manganas     : ROCIS; embedding schemes
   Dimitrios Pantazis     : SARC Basis sets
   Taras Petrenko         : DFT Hessian,TD-DFT gradient, ASA, ECA, R-Raman, ABS, FL, XAS/XES, NRVS
   Peter Pinski           : DLPNO-MP2, DLPNO-MP2 Gradient
   Christoph Reimann      : Effective Core Potentials
   Marius Retegan         : Local ZFS, SOC
   Christoph Riplinger    : Optimizer, TS searches, QM/MM, DLPNO-CCSD(T), (RO)-DLPNO pert. Triples
   Tobias Risthaus        : Range-separated hybrids, TD-DFT gradient, RPA, STAB
   Michael Roemelt        : Restricted open shell CIS
   Masaaki Saitow         : Open-shell DLPNO
   Barbara Sandhoefer     : DKH picture change effects
   Avijit Sen             : IP-ROCIS
   Kantharuban Sivalingam : CASSCF convergence, NEVPT2, FIC-MRCI
   Bernardo de Souza      : ESD, SOC TD-DFT
   Georgi Stoychev        : AutoAux, RI-MP2 NMR
   Willem Van den Heuvel  : Paramagnetic NMR
   Boris Wezisla          : Elementary symmetry handling
   Frank Wennmohs         : Technical directorship


 We gratefully acknowledge several colleagues who have allowed us to
 interface, adapt or use parts of their codes:
   Stefan Grimme, W. Hujo, H. Kruse,             : VdW corrections, initial TS optimization,
                  C. Bannwarth                     DFT functionals, gCP, sTDA/sTD-DF
   Ed Valeev                                     : LibInt (2-el integral package), F12 methods
   Garnet Chan, S. Sharma, J. Yang, R. Olivares  : DMRG
   Ulf Ekstrom                                   : XCFun DFT Library
   Mihaly Kallay                                 : mrcc  (arbitrary order and MRCC methods)
   Andreas Klamt, Michael Diedenhofen            : otool_cosmo (COSMO solvation model)
   Jiri Pittner, Ondrej Demel                    : Mk-CCSD
   Frank Weinhold                                : gennbo (NPA and NBO analysis)
   Christopher J. Cramer and Donald G. Truhlar   : smd solvation model
   Lars Goerigk                                  : TD-DFT with DH, B97 family of functionals
   V. Asgeirsson, H. Jonsson                     : NEB implementation
   FAccTs GmbH                                   : IRC, NEB, NEB-TS, Multilevel


 Your calculation uses the libint2 library for the computation of 2-el integrals
 For citations please refer to: http://libint.valeyev.net

 This ORCA versions uses:
   CBLAS   interface :  Fast vector & matrix operations
   LAPACKE interface :  Fast linear algebra routines
   SCALAPACK package :  Parallel linear algebra routines


Your calculation utilizes the atom-pairwise dispersion correction
with the zero-damping scheme (D30)
Cite in your paper:
S.Grimme, J.Antony, S.Ehrlich and H.Krieg, J.Chem.Phys., 132, (2010), 154104 
   

XCFun DFT library Copyright 2009-2010 Ulf Ekstrom and contributors.
See http://admol.org/xcfun for more information. This is free soft-
ware; see the source code for copying conditions. There is ABSOLUTELY
NO WARRANTY; not even for MERCHANTABILITY or FITNESS FOR A PARTICULAR
PURPOSE. For details see the documentation. Scientific users of this 
library should cite U. Ekstrom, L. Visscher, R. Bast, A. J. Thorvald-
sen and K. Ruud; J.Chem.Theor.Comp. 2010, DOI: 10.1021/ct100117s
XCFun Version 0.99 
----- Orbital basis set information -----
Your calculation utilizes the basis: def2-TZVP
   F. Weigend and R. Ahlrichs, Phys. Chem. Chem. Phys. 7, 3297 (2005).

================================================================================
                                        WARNINGS
                       Please study these warnings very carefully!
================================================================================


INFO   : the flag for use of LIBINT has been found!

================================================================================
                                       INPUT FILE
================================================================================
NAME = 100.in
|  1> #Run DFT-D3 single point of the dimer
|  2> ! wB97X-D3 def2-TZVP TIGHTSCF  CHELPG PAL8
|  3> 
|  4> %base "100_charges"
|  5> 
|  6> %scf
|  7> MaxIter 1000
|  8> end
|  9> %output
| 10>   Print[ P_Mayer ] 1
| 11>   Print[ P_NatPop ] 1
| 12>   Print[ P_Hirshfeld ] 1
| 13>   Print[ P_Mulliken ] 1
| 14>   Print [ P_Loewdin ] 1
| 15> end
| 16> 
| 17> * xyz 0 1
| 18>   C                      -1.364017            -5.736815            7.706263            
| 19>   O                      -1.670980            -7.010179            7.362650            
| 20>   H                      -2.492399            -7.029961            6.941810            
| 21>   H                      -1.844454            -5.458896            8.611526            
| 22>   H                      -0.339697            -5.584353            8.101376            
| 23>   H                      -1.616488            -4.940783            7.003512            
| 24> *
| 25> 
| 26>                          ****END OF INPUT****
================================================================================

                       ****************************
                       * Single Point Calculation *
                       ****************************

---------------------------------
CARTESIAN COORDINATES (ANGSTROEM)
---------------------------------
  C     -1.364017   -5.736815    7.706263
  O     -1.670980   -7.010179    7.362650
  H     -2.492399   -7.029961    6.941810
  H     -1.844454   -5.458896    8.611526
  H     -0.339697   -5.584353    8.101376
  H     -1.616488   -4.940783    7.003512

----------------------------
CARTESIAN COORDINATES (A.U.)
----------------------------
  NO LB      ZA    FRAG     MASS         X           Y           Z
   0 C     6.0000    0    12.011   -2.577619  -10.841009   14.562727
   1 O     8.0000    0    15.999   -3.157695  -13.247318   13.913392
   2 H     1.0000    0     1.008   -4.709952  -13.284701   13.118120
   3 H     1.0000    0     1.008   -3.485513  -10.315818   16.273426
   4 H     1.0000    0     1.008   -0.641934  -10.552898   15.309382
   5 H     1.0000    0     1.008   -3.054720   -9.336727   13.234720

--------------------------------
INTERNAL COORDINATES (ANGSTROEM)
--------------------------------
 C      0   0   0     0.000000000000     0.00000000     0.00000000
 O      1   0   0     1.354161014663     0.00000000     0.00000000
 H      2   1   0     0.923161311302   109.72605603     0.00000000
 H      1   2   3     1.061866178338   111.09243169    81.50079306
 H      1   2   3     1.108417974689   115.42165488   187.53187711
 H      1   2   3     1.091452023163   118.03447311   320.63380814

---------------------------
INTERNAL COORDINATES (A.U.)
---------------------------
 C      0   0   0     0.000000000000     0.00000000     0.00000000
 O      1   0   0     2.558993458947     0.00000000     0.00000000
 H      2   1   0     1.744522055793   109.72605603     0.00000000
 H      1   2   3     2.006636267933   111.09243169    81.50079306
 H      1   2   3     2.094606414077   115.42165488   187.53187711
 H      1   2   3     2.062545412092   118.03447311   320.63380814

---------------------
BASIS SET INFORMATION
---------------------
There are 3 groups of distinct atoms

 Group   1 Type C   : 11s6p2d1f contracted to 5s3p2d1f pattern {62111/411/11/1}
 Group   2 Type O   : 11s6p2d1f contracted to 5s3p2d1f pattern {62111/411/11/1}
 Group   3 Type H   : 5s1p contracted to 3s1p pattern {311/1}

Atom   0C    basis set group =>   1
Atom   1O    basis set group =>   2
Atom   2H    basis set group =>   3
Atom   3H    basis set group =>   3
Atom   4H    basis set group =>   3
Atom   5H    basis set group =>   3


           ************************************************************
           *        Program running with 8 parallel MPI-processes     *
           *              working on a common directory               *
           ************************************************************
------------------------------------------------------------------------------
                           ORCA GTO INTEGRAL CALCULATION
------------------------------------------------------------------------------

                         BASIS SET STATISTICS AND STARTUP INFO

 # of primitive gaussian shells          ...   64
 # of primitive gaussian functions       ...  124
 # of contracted shells                  ...   38
 # of contracted basis functions         ...   86
 Highest angular momentum                ...    3
 Maximum contraction depth               ...    6
 Integral package used                   ... LIBINT
 Integral threshhold            Thresh   ...  2.500e-11
 Primitive cut-off              TCut     ...  2.500e-12


------------------------------ INTEGRAL EVALUATION ----------------------------


 * One electron integrals 
 Pre-screening matrix                    ... done
 Shell pair data                         ... done (   0.000 sec)



           ************************************************************
           *        Program running with 8 parallel MPI-processes     *
           *              working on a common directory               *
           ************************************************************
-------------------------------------------------------------------------------
                                 ORCA SCF
-------------------------------------------------------------------------------

------------
SCF SETTINGS
------------
Hamiltonian:
 Density Functional     Method          .... DFT(GTOs)
 Exchange Functional    Exchange        .... WB97X-D3
 Correlation Functional Correlation     .... WB97X-D3
 Gradients option       PostSCFGGA      .... off
 Hybrid DFT is turned on
   Fraction HF Exchange ScalHFX         ....  0.195728
   Scaling of DF-GGA-X  ScalDFX         ....  0.000000
   Scaling of DF-GGA-C  ScalDFC         ....  1.000000
   Scaling of DF-LDA-C  ScalLDAC        ....  1.000000
   Perturbative correction              ....  0.000000
   Density functional embedding theory  .... OFF
 Long-range corrected/Screened/Range-Separated Hybrid DFT is turned on
   Amount of maximum screened exact exchange              ....  0.804272
   Range separation parameter mu (erf(mu*r12)/r12)        ....  0.250000


General Settings:
 Integral files         IntName         .... 100_charges
 Hartree-Fock type      HFTyp           .... RHF
 Total Charge           Charge          ....    0
 Multiplicity           Mult            ....    1
 Number of Electrons    NEL             ....   18
 Basis Dimension        Dim             ....   86
 Nuclear Repulsion      ENuc            ....     41.5367650973 Eh

Convergence Acceleration:
 DIIS                   CNVDIIS         .... on
   Start iteration      DIISMaxIt       ....    12
   Startup error        DIISStart       ....  0.200000
   # of expansion vecs  DIISMaxEq       ....     5
   Bias factor          DIISBfac        ....   1.050
   Max. coefficient     DIISMaxC        ....  10.000
 Newton-Raphson         CNVNR           .... off
 SOSCF                  CNVSOSCF        .... on
   Start iteration      SOSCFMaxIt      ....   150
   Startup grad/error   SOSCFStart      ....  0.003300
 Level Shifting         CNVShift        .... on
   Level shift para.    LevelShift      ....    0.2500
   Turn off err/grad.   ShiftErr        ....    0.0010
 Zerner damping         CNVZerner       .... off
 Static damping         CNVDamp         .... on
   Fraction old density DampFac         ....    0.7000
   Max. Damping (<1)    DampMax         ....    0.9800
   Min. Damping (>=0)   DampMin         ....    0.0000
   Turn off err/grad.   DampErr         ....    0.1000
 Fernandez-Rico         CNVRico         .... off

SCF Procedure:
 Maximum # iterations   MaxIter         ....  1000
 SCF integral mode      SCFMode         .... Direct
   Integral package                     .... LIBINT
 Reset frequency        DirectResetFreq ....    20
 Integral Threshold     Thresh          ....  2.500e-11 Eh
 Primitive CutOff       TCut            ....  2.500e-12 Eh

Convergence Tolerance:
 Convergence Check Mode ConvCheckMode   .... Total+1el-Energy
 Convergence forced     ConvForced      .... 0
 Energy Change          TolE            ....  1.000e-08 Eh
 1-El. energy change                    ....  1.000e-05 Eh
 Orbital Gradient       TolG            ....  1.000e-05
 Orbital Rotation angle TolX            ....  1.000e-05
 DIIS Error             TolErr          ....  5.000e-07


Diagonalization of the overlap matrix:
Smallest eigenvalue                        ... 1.569e-03
Time for diagonalization                   ...    0.586 sec
Threshold for overlap eigenvalues          ... 1.000e-08
Number of eigenvalues below threshold      ... 0
Time for construction of square roots      ...    0.246 sec
Total time needed                          ...    0.840 sec

-------------------
DFT GRID GENERATION
-------------------

General Integration Accuracy     IntAcc      ...  4.340
Radial Grid Type                 RadialGrid  ... Gauss-Chebyshev
Angular Grid (max. acc.)         AngularGrid ... Lebedev-110
Angular grid pruning method      GridPruning ... 3 (G Style)
Weight generation scheme         WeightScheme... Becke
Basis function cutoff            BFCut       ...    1.0000e-11
Integration weight cutoff        WCut        ...    1.0000e-14
Grids for H and He will be reduced by one unit

# of grid points (after initial pruning)     ...   6548 (   0.0 sec)
# of grid points (after weights+screening)   ...   6381 (   0.7 sec)
nearest neighbour list constructed           ...    0.0 sec
Grid point re-assignment to atoms done       ...    0.0 sec
Grid point division into batches done        ...    0.0 sec
Reduced shell lists constructed in    0.0 sec

Total number of grid points                  ...     6381
Total number of batches                      ...      102
Average number of points per batch           ...       62
Average number of grid points per atom       ...     1064
Average number of shells per batch           ...    32.50 (85.53%)
Average number of basis functions per batch  ...    74.79 (86.96%)
Average number of large shells per batch     ...    31.00 (95.38%)
Average number of large basis fcns per batch ...    71.57 (95.70%)
Maximum spatial batch extension              ...  15.64, 14.83, 18.86 au
Average spatial batch extension              ...   0.37,  0.41,  0.50 au

Time for grid setup =    1.337 sec

------------------------------
INITIAL GUESS: MODEL POTENTIAL
------------------------------
Loading Hartree-Fock densities                     ... done
Calculating cut-offs                               ... done
Setting up the integral package                    ... done
Initializing the effective Hamiltonian             ... done
Starting the Coulomb interaction                   ... done (   0.0 sec)
Reading the grid                                   ... done
Mapping shells                                     ... done
Starting the XC term evaluation                    ... done (   0.1 sec)
  promolecular density results
     # of electrons  =     17.994457261
     EX              =    -14.461382790
     EC              =     -0.579080218
     EX+EC           =    -15.040463007
Transforming the Hamiltonian                       ... done (   0.0 sec)
Diagonalizing the Hamiltonian                      ... done (   0.8 sec)
Back transforming the eigenvectors                 ... done (   0.0 sec)
Now organizing SCF variables                       ... done
                      ------------------
                      INITIAL GUESS DONE (   2.7 sec)
                      ------------------
--------------
SCF ITERATIONS
--------------
ITER       Energy         Delta-E        Max-DP      RMS-DP      [F,P]     Damp
               ***  Starting incremental Fock matrix formation  ***
  0   -115.6337544111   0.000000000000 0.03739385  0.00152642  0.2522777 0.7000
  1   -115.6729440115  -0.039189600429 0.02213268  0.00109314  0.1281060 0.7000
                               ***Turning on DIIS***
  2   -115.6912457953  -0.018301783846 0.03290976  0.00200326  0.0517070 0.0000
  3   -115.7209538455  -0.029708050165 0.01795395  0.00071014  0.0606357 0.0000
  4   -115.7257486965  -0.004794850953 0.00393489  0.00013137  0.0059183 0.0000
                      *** Initiating the SOSCF procedure ***
                           *** Shutting down DIIS ***
                      *** Re-Reading the Fockian *** 
                      *** Removing any level shift *** 
ITER      Energy       Delta-E        Grad      Rot      Max-DP    RMS-DP
  5   -115.72583626  -0.0000875612  0.000413  0.000413  0.000720  0.000045
               *** Restarting incremental Fock matrix formation ***
  6   -115.72584423  -0.0000079709  0.000130  0.000194  0.000413  0.000028
  7   -115.72584498  -0.0000007508  0.000056  0.000127  0.000206  0.000014
  8   -115.72584504  -0.0000000564  0.000032  0.000027  0.000041  0.000002
  9   -115.72584506  -0.0000000220  0.000008  0.000007  0.000012  0.000001
 10   -115.72584506  -0.0000000006  0.000004  0.000003  0.000005  0.000000
                 **** Energy Check signals convergence ****
              ***Rediagonalizing the Fockian in SOSCF/NRSCF***

               *****************************************************
               *                     SUCCESS                       *
               *           SCF CONVERGED AFTER  11 CYCLES          *
               *****************************************************

Setting up the final grid:

General Integration Accuracy     IntAcc      ...  4.670
Radial Grid Type                 RadialGrid  ... Gauss-Chebyshev
Angular Grid (max. acc.)         AngularGrid ... Lebedev-302
Angular grid pruning method      GridPruning ... 3 (G Style)
Weight generation scheme         WeightScheme... Becke
Basis function cutoff            BFCut       ...    1.0000e-11
Integration weight cutoff        WCut        ...    1.0000e-14
Grids for H and He will be reduced by one unit

# of grid points (after initial pruning)     ...  26000 (   0.0 sec)
# of grid points (after weights+screening)   ...  25183 (   0.5 sec)
nearest neighbour list constructed           ...    0.0 sec
Grid point re-assignment to atoms done       ...    0.0 sec
Grid point division into batches done        ...    0.2 sec
Reduced shell lists constructed in    0.2 sec

Total number of grid points                  ...    25183
Total number of batches                      ...      397
Average number of points per batch           ...       63
Average number of grid points per atom       ...     4197
Average number of shells per batch           ...    31.49 (82.87%)
Average number of basis functions per batch  ...    72.00 (83.72%)
Average number of large shells per batch     ...    30.04 (95.39%)
Average number of large basis fcns per batch ...    69.22 (96.13%)
Maximum spatial batch extension              ...  17.61, 11.95, 17.44 au
Average spatial batch extension              ...   0.30,  0.27,  0.32 au

Final grid set up in    1.4 sec
Final integration                            ... done (   0.5 sec)
Change in XC energy                          ...     0.000177095
Integrated number of electrons               ...    17.999978074
Previous integrated no of electrons          ...    17.998581162

----------------
TOTAL SCF ENERGY
----------------

Total Energy       :         -115.72566796 Eh           -3149.05552 eV

Components:
Nuclear Repulsion  :           41.53676510 Eh            1130.27284 eV
Electronic Energy  :         -157.26243306 Eh           -4279.32836 eV
One Electron Energy:         -239.33294944 Eh           -6512.58065 eV
Two Electron Energy:           82.07051638 Eh            2233.25229 eV

Virial components:
Potential Energy   :         -231.17812650 Eh           -6290.67663 eV
Kinetic Energy     :          115.45245853 Eh            3141.62111 eV
Virial Ratio       :            2.00236642


DFT components:
N(Alpha)           :        8.999989036982 electrons
N(Beta)            :        8.999989036982 electrons
N(Total)           :       17.999978073965 electrons
E(XC)              :      -10.695676485096 Eh       
DFET-embed. en.    :        0.000000000000 Eh       

---------------
SCF CONVERGENCE
---------------

  Last Energy change         ...   -3.0852e-10  Tolerance :   1.0000e-08
  Last MAX-Density change    ...    1.1472e-06  Tolerance :   1.0000e-07
  Last RMS-Density change    ...    7.3832e-08  Tolerance :   5.0000e-09
  Last Orbital Gradient      ...    4.4110e-07  Tolerance :   1.0000e-05
  Last Orbital Rotation      ...    9.6229e-07  Tolerance :   1.0000e-05

             **** THE GBW FILE WAS UPDATED (100_charges.gbw) ****
             **** DENSITY FILE WAS UPDATED (100_charges.scfp.tmp) ****
             **** ENERGY FILE WAS UPDATED (100_charges.en.tmp) ****
----------------
ORBITAL ENERGIES
----------------

  NO   OCC          E(Eh)            E(eV) 
   0   2.0000     -19.230021      -523.2755 
   1   2.0000     -10.304899      -280.4106 
   2   2.0000      -1.163643       -31.6643 
   3   2.0000      -0.803493       -21.8642 
   4   2.0000      -0.632687       -17.2163 
   5   2.0000      -0.551536       -15.0081 
   6   2.0000      -0.532004       -14.4766 
   7   2.0000      -0.431364       -11.7380 
   8   2.0000      -0.368035       -10.0147 
   9   0.0000       0.120623         3.2823 
  10   0.0000       0.154870         4.2142 
  11   0.0000       0.204468         5.5639 
  12   0.0000       0.212639         5.7862 
  13   0.0000       0.235242         6.4013 
  14   0.0000       0.302431         8.2296 
  15   0.0000       0.328380         8.9357 
  16   0.0000       0.423616        11.5272 
  17   0.0000       0.464395        12.6368 
  18   0.0000       0.483042        13.1442 
  19   0.0000       0.530207        14.4277 
  20   0.0000       0.553951        15.0738 
  21   0.0000       0.573820        15.6144 
  22   0.0000       0.608785        16.5659 
  23   0.0000       0.635517        17.2933 
  24   0.0000       0.675831        18.3903 
  25   0.0000       0.760205        20.6862 
  26   0.0000       0.826248        22.4833 
  27   0.0000       0.862864        23.4797 
  28   0.0000       0.993092        27.0234 
  29   0.0000       1.028478        27.9863 
  30   0.0000       1.128070        30.6963 
  31   0.0000       1.382618        37.6230 
  32   0.0000       1.507307        41.0159 
  33   0.0000       1.559637        42.4399 
  34   0.0000       1.571733        42.7690 
  35   0.0000       1.630322        44.3633 
  36   0.0000       1.652916        44.9781 
  37   0.0000       1.686335        45.8875 
  38   0.0000       1.743637        47.4468 
  39   0.0000       1.786011        48.5998 
  40   0.0000       1.960331        53.3433 
  41   0.0000       1.985720        54.0342 
  42   0.0000       2.066629        56.2358 
  43   0.0000       2.085144        56.7396 
  44   0.0000       2.114668        57.5431 
  45   0.0000       2.284850        62.1739 
  46   0.0000       2.339930        63.6727 
  47   0.0000       2.376208        64.6599 
  48   0.0000       2.398461        65.2654 
  49   0.0000       2.473458        67.3062 
  50   0.0000       2.524044        68.6827 
  51   0.0000       2.624926        71.4279 
  52   0.0000       2.708527        73.7028 
  53   0.0000       2.780563        75.6630 
  54   0.0000       2.856277        77.7233 
  55   0.0000       2.893966        78.7488 
  56   0.0000       2.949462        80.2589 
  57   0.0000       2.989842        81.3577 
  58   0.0000       3.126504        85.0765 
  59   0.0000       3.163982        86.0963 
  60   0.0000       3.259403        88.6929 
  61   0.0000       3.318749        90.3078 
  62   0.0000       3.482128        94.7535 
  63   0.0000       3.573069        97.2282 
  64   0.0000       3.611151        98.2644 
  65   0.0000       3.720266       101.2336 
  66   0.0000       3.739788       101.7648 
  67   0.0000       4.077355       110.9505 
  68   0.0000       4.169702       113.4634 
  69   0.0000       4.365380       118.7880 
  70   0.0000       4.409656       119.9928 
  71   0.0000       4.545378       123.6860 
  72   0.0000       5.365712       146.0084 
  73   0.0000       5.474599       148.9714 
  74   0.0000       5.601005       152.4111 
  75   0.0000       5.909785       160.8134 
  76   0.0000       5.935594       161.5157 
  77   0.0000       6.085056       165.5828 
  78   0.0000       6.482464       176.3968 
  79   0.0000       6.529979       177.6898 
  80   0.0000       6.765807       184.1070 
  81   0.0000       6.836659       186.0350 
  82   0.0000       7.043831       191.6724 
  83   0.0000       7.263827       197.6588 
  84   0.0000      22.590542       614.7199 
  85   0.0000      43.666125      1188.2157 

                    ********************************
                    * MULLIKEN POPULATION ANALYSIS *
                    ********************************

-----------------------
MULLIKEN ATOMIC CHARGES
-----------------------
   0 C :   -0.160090
   1 O :   -0.451869
   2 H :    0.312901
   3 H :    0.090382
   4 H :    0.109570
   5 H :    0.099106
Sum of atomic charges:    0.0000000

--------------------------------
MULLIKEN REDUCED ORBITAL CHARGES
--------------------------------
  0 C s       :     3.191332  s :     3.191332
      pz      :     1.031125  p :     2.853583
      px      :     1.093270
      py      :     0.729187
      dz2     :     0.013591  d :     0.106462
      dxz     :     0.012011
      dyz     :     0.030784
      dx2y2   :     0.024487
      dxy     :     0.025590
      f0      :     0.000911  f :     0.008713
      f+1     :     0.000219
      f-1     :     0.001580
      f+2     :     0.001939
      f-2     :     0.000567
      f+3     :     0.001917
      f-3     :     0.001579
  1 O s       :     3.774060  s :     3.774060
      pz      :     1.759925  p :     4.644331
      px      :     1.451723
      py      :     1.432683
      dz2     :     0.003716  d :     0.031605
      dxz     :     0.004783
      dyz     :     0.005299
      dx2y2   :     0.012985
      dxy     :     0.004822
      f0      :     0.000370  f :     0.001873
      f+1     :     0.000135
      f-1     :     0.000227
      f+2     :     0.000523
      f-2     :     0.000147
      f+3     :     0.000334
      f-3     :     0.000137
  2 H s       :     0.634933  s :     0.634933
      pz      :     0.019823  p :     0.052166
      px      :     0.020029
      py      :     0.012314
  3 H s       :     0.887553  s :     0.887553
      pz      :     0.010804  p :     0.022065
      px      :     0.007153
      py      :     0.004108
  4 H s       :     0.869857  s :     0.869857
      pz      :     0.005957  p :     0.020573
      px      :     0.011986
      py      :     0.002630
  5 H s       :     0.881463  s :     0.881463
      pz      :     0.007149  p :     0.019432
      px      :     0.004529
      py      :     0.007753


                     *******************************
                     * LOEWDIN POPULATION ANALYSIS *
                     *******************************

----------------------
LOEWDIN ATOMIC CHARGES
----------------------
   0 C :   -0.438601
   1 O :   -0.007858
   2 H :    0.152838
   3 H :    0.086690
   4 H :    0.113297
   5 H :    0.093633

-------------------------------
LOEWDIN REDUCED ORBITAL CHARGES
-------------------------------
  0 C s       :     2.834449  s :     2.834449
      pz      :     1.073817  p :     3.074712
      px      :     1.111509
      py      :     0.889385
      dz2     :     0.061006  d :     0.462583
      dxz     :     0.042341
      dyz     :     0.148576
      dx2y2   :     0.126041
      dxy     :     0.084619
      f0      :     0.006896  f :     0.066857
      f+1     :     0.004281
      f-1     :     0.012150
      f+2     :     0.009311
      f-2     :     0.007045
      f+3     :     0.014178
      f-3     :     0.012995
  1 O s       :     3.310426  s :     3.310426
      pz      :     1.665158  p :     4.610285
      px      :     1.442110
      py      :     1.503017
      dz2     :     0.007675  d :     0.081477
      dxz     :     0.011132
      dyz     :     0.016407
      dx2y2   :     0.030617
      dxy     :     0.015646
      f0      :     0.000790  f :     0.005670
      f+1     :     0.000083
      f-1     :     0.000752
      f+2     :     0.001368
      f-2     :     0.000317
      f+3     :     0.001442
      f-3     :     0.000918
  2 H s       :     0.673429  s :     0.673429
      pz      :     0.059032  p :     0.173733
      px      :     0.078434
      py      :     0.036267
  3 H s       :     0.846942  s :     0.846942
      pz      :     0.032245  p :     0.066368
      px      :     0.021675
      py      :     0.012448
  4 H s       :     0.828757  s :     0.828757
      pz      :     0.016442  p :     0.057946
      px      :     0.033563
      py      :     0.007941
  5 H s       :     0.845533  s :     0.845533
      pz      :     0.022187  p :     0.060834
      px      :     0.015044
      py      :     0.023603


                      *****************************
                      * MAYER POPULATION ANALYSIS *
                      *****************************

  NA   - Mulliken gross atomic population
  ZA   - Total nuclear charge
  QA   - Mulliken gross atomic charge
  VA   - Mayer's total valence
  BVA  - Mayer's bonded valence
  FA   - Mayer's free valence

  ATOM       NA         ZA         QA         VA         BVA        FA
  0 C      6.1601     6.0000    -0.1601     3.9568     3.9568     0.0000
  1 O      8.4519     8.0000    -0.4519     1.9107     1.9107    -0.0000
  2 H      0.6871     1.0000     0.3129     0.9165     0.9165     0.0000
  3 H      0.9096     1.0000     0.0904     0.9482     0.9482     0.0000
  4 H      0.8904     1.0000     0.1096     0.9572     0.9572     0.0000
  5 H      0.9009     1.0000     0.0991     0.9608     0.9608     0.0000

  Mayer bond orders larger than 0.1
B(  0-C ,  1-O ) :   1.0145 B(  0-C ,  3-H ) :   0.9812 B(  0-C ,  4-H ) :   0.9731 
B(  0-C ,  5-H ) :   0.9777 B(  1-O ,  2-H ) :   0.9030 


------------------
HIRSHFELD ANALYSIS
------------------

Total integrated alpha density =      8.999290581
Total integrated beta density  =      8.999290581

  ATOM     CHARGE      SPIN    
   0 C    0.001017    0.000000
   1 O   -0.238874    0.000000
   2 H    0.165689    0.000000
   3 H    0.011161    0.000000
   4 H    0.036369    0.000000
   5 H    0.026057    0.000000

  TOTAL   0.001419    0.000000

-------
TIMINGS
-------

Total SCF time: 0 days 0 hours 0 min 32 sec 

Total time                  ....      32.275 sec
Sum of individual times     ....      27.032 sec  ( 83.8%)

Fock matrix formation       ....      18.011 sec  ( 55.8%)
  XC integration            ....       4.300 sec  ( 23.9% of F)
    Basis function eval.    ....       0.058 sec  (  1.3% of XC)
    Density eval.           ....       0.044 sec  (  1.0% of XC)
    XC-Functional eval.     ....       0.143 sec  (  3.3% of XC)
    XC-Potential eval.      ....       0.046 sec  (  1.1% of XC)
Diagonalization             ....       1.481 sec  (  4.6%)
Density matrix formation    ....       2.214 sec  (  6.9%)
Population analysis         ....       0.416 sec  (  1.3%)
Initial guess               ....       1.317 sec  (  4.1%)
Orbital Transformation      ....       0.000 sec  (  0.0%)
Orbital Orthonormalization  ....       0.000 sec  (  0.0%)
DIIS solution               ....       0.339 sec  (  1.0%)
SOSCF solution              ....       0.534 sec  (  1.7%)
Grid generation             ....       2.720 sec  (  8.4%)


-------------------------------------------------------------------------------
                          DFT DISPERSION CORRECTION                            
                                                                               
                              DFTD3 V3.1  Rev 1                                
                              USING zero damping                               
-------------------------------------------------------------------------------
The omegaB97X-D3 functional is recognized. Fit by Chai et al.
Active option DFTDOPT                   ...         3   

molecular C6(AA) [au] = 208.617477 


            DFT-D V3
 parameters
 s6 scaling factor         :     1.0000 
 rs6 scaling factor        :     1.2810 
 s8 scaling factor         :     1.0000 
 rs8 scaling factor        :     1.0940 
 Damping factor alpha6     :    14.0000 
 Damping factor alpha8     :    16.0000 
 ad hoc parameters k1-k3   :    16.0000     1.3333    -4.0000 

 Edisp/kcal,au: -0.144035738925  -0.000229535536 
 E6   /kcal   :  -0.029202427 
 E8   /kcal   :  -0.114833312 
 % E8         :  79.725568888 

-------------------------   ----------------
Dispersion correction           -0.000229536
-------------------------   ----------------


-------------------------   --------------------
FINAL SINGLE POINT ENERGY      -115.725897499254
-------------------------   --------------------


                            ***************************************
                            *     ORCA property calculations      *
                            ***************************************

                                    ---------------------
                                    Active property flags
                                    ---------------------
   (+) Dipole Moment


------------------------------------------------------------------------------
                       ORCA ELECTRIC PROPERTIES CALCULATION
------------------------------------------------------------------------------

Dipole Moment Calculation                       ... on
Quadrupole Moment Calculation                   ... off
Polarizability Calculation                      ... off
GBWName                                         ... 100_charges.gbw
Electron density file                           ... 100_charges.scfp.tmp
The origin for moment calculation is the CENTER OF MASS  = (-2.917015, -12.046479 14.228588)

-------------
DIPOLE MOMENT
-------------
                                X             Y             Z
Electronic contribution:     -0.32582      -1.86811      -0.62849
Nuclear contribution   :     -0.11312       2.32187       0.50457
                        -----------------------------------------
Total Dipole Moment    :     -0.43894       0.45376      -0.12392
                        -----------------------------------------
Magnitude (a.u.)       :      0.64337
Magnitude (Debye)      :      1.63532



--------------------
Rotational spectrum 
--------------------
 
Rotational constants in cm-1:     4.664534     0.882236     0.839766 
Rotational constants in MHz : 139839.213704 26448.776605 25175.543512 

 Dipole components along the rotational axes: 
x,y,z [a.u.] :    -0.259919     0.572610    -0.135960 
x,y,z [Debye]:    -0.660662     1.455459    -0.345583 

 
------------------------------------------------------------------------------
                      ORCA CHELPG CHARGES GENERATION
------------------------------------------------------------------------------

GBW file                           ... 100_charges.gbw

Reading the GBW file               ... done

Grid spacing                       ...     0.300000
Point Cut-Off                      ...     2.800000
Van-der-Waals Radii                ...        COSMO
Total charge                       ...            0


Number of points X direction       ...           25
Number of points Y direction       ...           25
Number of points Z direction       ...           24
Maximum number of possible points  ...        15000
Final number of points             ...         5837


CHELPG Charges            
--------------------------------
  0   C   :       0.124742
  1   O   :      -0.614196
  2   H   :       0.421057
  3   H   :       0.011223
  4   H   :       0.063296
  5   H   :      -0.006122
--------------------------------
Total charge:    -0.000000
--------------------------------

CHELPG charges calculated...

Timings for individual parts in CHELPG calculation:
Grid generation                 ...        0.001 sec (=   0.000 min)
Potential calculation           ...        0.714 sec (=   0.012 min)
Fit to the potential            ...        0.008 sec (=   0.000 min)
------------------------------------------------------------------------------


Timings for individual modules:

Sum of individual times         ...       40.238 sec (=   0.671 min)
GTO integral calculation        ...        5.173 sec (=   0.086 min)  12.9 %
SCF iterations                  ...       34.057 sec (=   0.568 min)  84.6 %
CHELPG charge generation        ...        1.008 sec (=   0.017 min)   2.5 %
                             ****ORCA TERMINATED NORMALLY****
TOTAL RUN TIME: 0 days 0 hours 0 minutes 43 seconds 169 msec
