
                                 *****************
                                 * O   R   C   A *
                                 *****************

           --- An Ab Initio, DFT and Semiempirical electronic structure package ---

                  #######################################################
                  #                        -***-                        #
                  #          Department of theory and spectroscopy      #
                  #               Directorship: Frank Neese             #
                  #        Max Planck Institute fuer Kohlenforschung    #
                  #                Kaiser Wilhelm Platz 1               #
                  #                 D-45470 Muelheim/Ruhr               #
                  #                      Germany                        #
                  #                                                     #
                  #                  All rights reserved                #
                  #                        -***-                        #
                  #######################################################


                         Program Version 4.1.2  - RELEASE  -


 With contributions from (in alphabetic order):
   Daniel Aravena         : Magnetic Properties
   Michael Atanasov       : Ab Initio Ligand Field Theory
   Alexander A. Auer      : GIAO ZORA
   Ute Becker             : Parallelization
   Giovanni Bistoni       : ED, Open-shell LED
   Martin Brehm           : Molecular dynamics
   Dmytro Bykov           : SCF Hessian
   Vijay G. Chilkuri      : MRCI spin determinant printing
   Dipayan Datta          : RHF DLPNO-CCSD density
   Achintya Kumar Dutta   : EOM-CC, STEOM-CC
   Dmitry Ganyushin       : Spin-Orbit,Spin-Spin,Magnetic field MRCI
   Miquel Garcia          : C-PCM Hessian
   Yang Guo               : DLPNO-NEVPT2, CIM, IAO-localization
   Andreas Hansen         : Spin unrestricted coupled pair/coupled cluster methods
   Benjamin Helmich-Paris : CASSCF linear response (MC-RPA)
   Lee Huntington         : MR-EOM, pCC
   Robert Izsak           : Overlap fitted RIJCOSX, COSX-SCS-MP3, EOM
   Christian Kollmar      : KDIIS, OOCD, Brueckner-CCSD(T), CCSD density
   Simone Kossmann        : Meta GGA functionals, TD-DFT gradient, OOMP2, MP2 Hessian
   Martin Krupicka        : AUTO-CI
   Lucas Lang             : DCDCAS
   Dagmar Lenk            : GEPOL surface, SMD
   Dimitrios Liakos       : Extrapolation schemes; parallel MDCI
   Dimitrios Manganas     : ROCIS; embedding schemes
   Dimitrios Pantazis     : SARC Basis sets
   Taras Petrenko         : DFT Hessian,TD-DFT gradient, ASA, ECA, R-Raman, ABS, FL, XAS/XES, NRVS
   Peter Pinski           : DLPNO-MP2, DLPNO-MP2 Gradient
   Christoph Reimann      : Effective Core Potentials
   Marius Retegan         : Local ZFS, SOC
   Christoph Riplinger    : Optimizer, TS searches, QM/MM, DLPNO-CCSD(T), (RO)-DLPNO pert. Triples
   Tobias Risthaus        : Range-separated hybrids, TD-DFT gradient, RPA, STAB
   Michael Roemelt        : Restricted open shell CIS
   Masaaki Saitow         : Open-shell DLPNO
   Barbara Sandhoefer     : DKH picture change effects
   Avijit Sen             : IP-ROCIS
   Kantharuban Sivalingam : CASSCF convergence, NEVPT2, FIC-MRCI
   Bernardo de Souza      : ESD, SOC TD-DFT
   Georgi Stoychev        : AutoAux, RI-MP2 NMR
   Willem Van den Heuvel  : Paramagnetic NMR
   Boris Wezisla          : Elementary symmetry handling
   Frank Wennmohs         : Technical directorship


 We gratefully acknowledge several colleagues who have allowed us to
 interface, adapt or use parts of their codes:
   Stefan Grimme, W. Hujo, H. Kruse,             : VdW corrections, initial TS optimization,
                  C. Bannwarth                     DFT functionals, gCP, sTDA/sTD-DF
   Ed Valeev                                     : LibInt (2-el integral package), F12 methods
   Garnet Chan, S. Sharma, J. Yang, R. Olivares  : DMRG
   Ulf Ekstrom                                   : XCFun DFT Library
   Mihaly Kallay                                 : mrcc  (arbitrary order and MRCC methods)
   Andreas Klamt, Michael Diedenhofen            : otool_cosmo (COSMO solvation model)
   Jiri Pittner, Ondrej Demel                    : Mk-CCSD
   Frank Weinhold                                : gennbo (NPA and NBO analysis)
   Christopher J. Cramer and Donald G. Truhlar   : smd solvation model
   Lars Goerigk                                  : TD-DFT with DH, B97 family of functionals
   V. Asgeirsson, H. Jonsson                     : NEB implementation
   FAccTs GmbH                                   : IRC, NEB, NEB-TS, Multilevel


 Your calculation uses the libint2 library for the computation of 2-el integrals
 For citations please refer to: http://libint.valeyev.net

 This ORCA versions uses:
   CBLAS   interface :  Fast vector & matrix operations
   LAPACKE interface :  Fast linear algebra routines
   SCALAPACK package :  Parallel linear algebra routines


Your calculation utilizes the atom-pairwise dispersion correction
with the zero-damping scheme (D30)
Cite in your paper:
S.Grimme, J.Antony, S.Ehrlich and H.Krieg, J.Chem.Phys., 132, (2010), 154104 
   

XCFun DFT library Copyright 2009-2010 Ulf Ekstrom and contributors.
See http://admol.org/xcfun for more information. This is free soft-
ware; see the source code for copying conditions. There is ABSOLUTELY
NO WARRANTY; not even for MERCHANTABILITY or FITNESS FOR A PARTICULAR
PURPOSE. For details see the documentation. Scientific users of this 
library should cite U. Ekstrom, L. Visscher, R. Bast, A. J. Thorvald-
sen and K. Ruud; J.Chem.Theor.Comp. 2010, DOI: 10.1021/ct100117s
XCFun Version 0.99 
----- Orbital basis set information -----
Your calculation utilizes the basis: def2-TZVP
   F. Weigend and R. Ahlrichs, Phys. Chem. Chem. Phys. 7, 3297 (2005).

================================================================================
                                        WARNINGS
                       Please study these warnings very carefully!
================================================================================


INFO   : the flag for use of LIBINT has been found!

Your calculation utilizes the atom-pairwise dispersion correction
with the zero-damping scheme (D30)
Cite in your paper:
S.Grimme, J.Antony, S.Ehrlich and H.Krieg, J.Chem.Phys., 132, (2010), 154104 
   

XCFun DFT library Copyright 2009-2010 Ulf Ekstrom and contributors.
See http://admol.org/xcfun for more information. This is free soft-
ware; see the source code for copying conditions. There is ABSOLUTELY
NO WARRANTY; not even for MERCHANTABILITY or FITNESS FOR A PARTICULAR
PURPOSE. For details see the documentation. Scientific users of this 
library should cite U. Ekstrom, L. Visscher, R. Bast, A. J. Thorvald-
sen and K. Ruud; J.Chem.Theor.Comp. 2010, DOI: 10.1021/ct100117s
XCFun Version 0.99 
----- Orbital basis set information -----
Your calculation utilizes the basis: def2-TZVP
   F. Weigend and R. Ahlrichs, Phys. Chem. Chem. Phys. 7, 3297 (2005).

================================================================================
                                        WARNINGS
                       Please study these warnings very carefully!
================================================================================


WARNING: MOInp is set but Guess=PModel. MOInp will be ignored!
         To read the initial guess from a file you must also specify
         'MORead' in the simple input or 'Guess MORead' in the %scf block


INFO   : the flag for use of LIBINT has been found!

Your calculation utilizes the atom-pairwise dispersion correction
with the zero-damping scheme (D30)
Cite in your paper:
S.Grimme, J.Antony, S.Ehrlich and H.Krieg, J.Chem.Phys., 132, (2010), 154104 
   

XCFun DFT library Copyright 2009-2010 Ulf Ekstrom and contributors.
See http://admol.org/xcfun for more information. This is free soft-
ware; see the source code for copying conditions. There is ABSOLUTELY
NO WARRANTY; not even for MERCHANTABILITY or FITNESS FOR A PARTICULAR
PURPOSE. For details see the documentation. Scientific users of this 
library should cite U. Ekstrom, L. Visscher, R. Bast, A. J. Thorvald-
sen and K. Ruud; J.Chem.Theor.Comp. 2010, DOI: 10.1021/ct100117s
XCFun Version 0.99 
----- Orbital basis set information -----
Your calculation utilizes the basis: def2-TZVP
   F. Weigend and R. Ahlrichs, Phys. Chem. Chem. Phys. 7, 3297 (2005).

================================================================================
                                        WARNINGS
                       Please study these warnings very carefully!
================================================================================


WARNING: MOInp is set but Guess=PModel. MOInp will be ignored!
         To read the initial guess from a file you must also specify
         'MORead' in the simple input or 'Guess MORead' in the %scf block


INFO   : the flag for use of LIBINT has been found!

================================================================================
                                       INPUT FILE
================================================================================
NAME = 2-97.in
|  1> #Run DFT-D3 single point of the dimer
|  2> ! wB97X-D3 def2-TZVP TIGHTSCF CHELPG PMODEL PAL8
|  3> 
|  4> %base "2-97_DFT_AB"
|  5> 
|  6> %scf
|  7> MaxIter 1000
|  8> end
|  9> 
| 10> * xyz 0 1
| 11>   C                      10.131559            -0.929883            -3.069840           
| 12>   O                      8.749478             -0.835584            -3.413896           
| 13>   H                      8.295501             -1.609561            -3.197512           
| 14>   H                      10.881002            -1.133662            -3.916814           
| 15>   H                      10.518113            -0.027949            -2.527007           
| 16>   H                      10.152257            -1.698416            -2.209900           
| 17>   C                      10.075003            -5.369550            -1.701341           
| 18>   O                      10.966355            -5.894968            -0.762528           
| 19>   H                      10.837473            -6.806595            -0.593211           
| 20>   H                      8.989269             -5.571708            -1.521119           
| 21>   H                      10.054936            -4.273271            -1.759322           
| 22>   H                      10.144655            -5.691776            -2.762107           
| 23> *
| 24> 
| 25> #Run DFT-D3 single point of the molecule with dimer basis set
| 26> $new_job
| 27> %base "2-97_DFT_A"
| 28> ! wB97X-D3 def2-TZVP TIGHTSCF CHELPG PMODEL
| 29> 
| 30> %scf
| 31> MaxIter 1000
| 32> end
| 33> 
| 34> * xyz 0 1
| 35>   C                      10.131559            -0.929883            -3.069840           
| 36>   O                      8.749478             -0.835584            -3.413896           
| 37>   H                      8.295501             -1.609561            -3.197512           
| 38>   H                      10.881002            -1.133662            -3.916814           
| 39>   H                      10.518113            -0.027949            -2.527007           
| 40>   H                      10.152257            -1.698416            -2.209900           
| 41>   C                    : 10.075003            -5.369550            -1.701341           
| 42>   O                    : 10.966355            -5.894968            -0.762528           
| 43>   H                    : 10.837473            -6.806595            -0.593211           
| 44>   H                    : 8.989269             -5.571708            -1.521119           
| 45>   H                    : 10.054936            -4.273271            -1.759322           
| 46>   H                    : 10.144655            -5.691776            -2.762107           
| 47> *
| 48> 
| 49> #Run DFT-D3 single point of the particle with dimer basis set
| 50> $new_job
| 51> %base "2-97_DFT_B"
| 52> ! wB97X-D3 def2-TZVP TIGHTSCF CHELPG PMODEL
| 53> 
| 54> %scf
| 55> MaxIter 1000
| 56> end
| 57> 
| 58> * xyz 0 1
| 59>   C                    : 10.131559            -0.929883            -3.069840           
| 60>   O                    : 8.749478             -0.835584            -3.413896           
| 61>   H                    : 8.295501             -1.609561            -3.197512           
| 62>   H                    : 10.881002            -1.133662            -3.916814           
| 63>   H                    : 10.518113            -0.027949            -2.527007           
| 64>   H                    : 10.152257            -1.698416            -2.209900           
| 65>   C                      10.075003            -5.369550            -1.701341           
| 66>   O                      10.966355            -5.894968            -0.762528           
| 67>   H                      10.837473            -6.806595            -0.593211           
| 68>   H                      8.989269             -5.571708            -1.521119           
| 69>   H                      10.054936            -4.273271            -1.759322           
| 70>   H                      10.144655            -5.691776            -2.762107           
| 71> *
| 72> 
| 73>                          ****END OF INPUT****
================================================================================


                 $$$$$$$$$$$$$$$$$$$$$$$$$$$$$$$$$$$$$$$$$$$$$$ 
                 $ THERE ARE  3 JOBS TO BE PROCESSED THIS RUN $
                 $$$$$$$$$$$$$$$$$$$$$$$$$$$$$$$$$$$$$$$$$$$$$$ 




                 $$$$$$$$$$$$$$$$  JOB NUMBER  1 $$$$$$$$$$$$$$


                       ****************************
                       * Single Point Calculation *
                       ****************************

---------------------------------
CARTESIAN COORDINATES (ANGSTROEM)
---------------------------------
  C     10.131559   -0.929883   -3.069840
  O      8.749478   -0.835584   -3.413896
  H      8.295501   -1.609561   -3.197512
  H     10.881002   -1.133662   -3.916814
  H     10.518113   -0.027949   -2.527007
  H     10.152257   -1.698416   -2.209900
  C     10.075003   -5.369550   -1.701341
  O     10.966355   -5.894968   -0.762528
  H     10.837473   -6.806595   -0.593211
  H      8.989269   -5.571708   -1.521119
  H     10.054936   -4.273271   -1.759322
  H     10.144655   -5.691776   -2.762107

----------------------------
CARTESIAN COORDINATES (A.U.)
----------------------------
  NO LB      ZA    FRAG     MASS         X           Y           Z
   0 C     6.0000    0    12.011   19.145872   -1.757224   -5.801157
   1 O     8.0000    0    15.999   16.534117   -1.579025   -6.451328
   2 H     1.0000    0     1.008   15.676225   -3.041629   -6.042422
   3 H     1.0000    0     1.008   20.562114   -2.142311   -7.401706
   4 H     1.0000    0     1.008   19.876353   -0.052816   -4.775351
   5 H     1.0000    0     1.008   19.184985   -3.209541   -4.176106
   6 C     6.0000    0    12.011   19.038996  -10.146979   -3.215069
   7 O     8.0000    0    15.999   20.723408  -11.139875   -1.440969
   8 H     1.0000    0     1.008   20.479856  -12.862600   -1.121006
   9 H     1.0000    0     1.008   16.987257  -10.529002   -2.874498
  10 H     1.0000    0     1.008   19.001075   -8.075312   -3.324637
  11 H     1.0000    0     1.008   19.170620  -10.755898   -5.219626

--------------------------------
INTERNAL COORDINATES (ANGSTROEM)
--------------------------------
 C      0   0   0     0.000000000000     0.00000000     0.00000000
 O      1   0   0     1.427380370854     0.00000000     0.00000000
 H      2   1   0     0.923015464938   111.36620939     0.00000000
 H      1   2   3     1.149154318517   117.74456382   102.27629920
 H      1   2   3     1.121417228850   113.40983591   226.73557575
 H      1   2   3     1.153502571689   103.95067360   334.01835061
 C      6   1   2     3.706996801044   139.61567222    80.35744922
 O      7   6   1     1.397119290396   116.82868071   136.46980998
 H      8   7   6     0.936131723393   113.57377784   172.88271803
 H      7   6   1     1.119002298927   102.78110812   265.05082725
 H      7   6   1     1.097994593198     5.35114566   207.73566542
 H      7   6   1     1.110812991883    98.91448501     6.82011738

---------------------------
INTERNAL COORDINATES (A.U.)
---------------------------
 C      0   0   0     0.000000000000     0.00000000     0.00000000
 O      1   0   0     2.697357989848     0.00000000     0.00000000
 H      2   1   0     1.744246446106   111.36620939     0.00000000
 H      1   2   3     2.171586947610   117.74456382   102.27629920
 H      1   2   3     2.119171444387   113.40983591   226.73557575
 H      1   2   3     2.179803955266   103.95067360   334.01835061
 C      6   1   2     7.005208733296   139.61567222    80.35744922
 O      7   6   1     2.640172835267   116.82868071   136.46980998
 H      8   7   6     1.769032582488   113.57377784   172.88271803
 H      7   6   1     2.114607888200   102.78110812   265.05082725
 H      7   6   1     2.074909077670     5.35114566   207.73566542
 H      7   6   1     2.099132340661    98.91448501     6.82011738

---------------------
BASIS SET INFORMATION
---------------------
There are 3 groups of distinct atoms

 Group   1 Type C   : 11s6p2d1f contracted to 5s3p2d1f pattern {62111/411/11/1}
 Group   2 Type O   : 11s6p2d1f contracted to 5s3p2d1f pattern {62111/411/11/1}
 Group   3 Type H   : 5s1p contracted to 3s1p pattern {311/1}

Atom   0C    basis set group =>   1
Atom   1O    basis set group =>   2
Atom   2H    basis set group =>   3
Atom   3H    basis set group =>   3
Atom   4H    basis set group =>   3
Atom   5H    basis set group =>   3
Atom   6C    basis set group =>   1
Atom   7O    basis set group =>   2
Atom   8H    basis set group =>   3
Atom   9H    basis set group =>   3
Atom  10H    basis set group =>   3
Atom  11H    basis set group =>   3


           ************************************************************
           *        Program running with 8 parallel MPI-processes     *
           *              working on a common directory               *
           ************************************************************
------------------------------------------------------------------------------
                           ORCA GTO INTEGRAL CALCULATION
------------------------------------------------------------------------------

                         BASIS SET STATISTICS AND STARTUP INFO

 # of primitive gaussian shells          ...  128
 # of primitive gaussian functions       ...  248
 # of contracted shells                  ...   76
 # of contracted basis functions         ...  172
 Highest angular momentum                ...    3
 Maximum contraction depth               ...    6
 Integral package used                   ... LIBINT
 Integral threshhold            Thresh   ...  2.500e-11
 Primitive cut-off              TCut     ...  2.500e-12


------------------------------ INTEGRAL EVALUATION ----------------------------


 * One electron integrals 
 Pre-screening matrix                    ... done
 Shell pair data                         ... done (   0.001 sec)



           ************************************************************
           *        Program running with 8 parallel MPI-processes     *
           *              working on a common directory               *
           ************************************************************
-------------------------------------------------------------------------------
                                 ORCA SCF
-------------------------------------------------------------------------------

------------
SCF SETTINGS
------------
Hamiltonian:
 Density Functional     Method          .... DFT(GTOs)
 Exchange Functional    Exchange        .... WB97X-D3
 Correlation Functional Correlation     .... WB97X-D3
 Gradients option       PostSCFGGA      .... off
 Hybrid DFT is turned on
   Fraction HF Exchange ScalHFX         ....  0.195728
   Scaling of DF-GGA-X  ScalDFX         ....  0.000000
   Scaling of DF-GGA-C  ScalDFC         ....  1.000000
   Scaling of DF-LDA-C  ScalLDAC        ....  1.000000
   Perturbative correction              ....  0.000000
   Density functional embedding theory  .... OFF
 Long-range corrected/Screened/Range-Separated Hybrid DFT is turned on
   Amount of maximum screened exact exchange              ....  0.804272
   Range separation parameter mu (erf(mu*r12)/r12)        ....  0.250000


General Settings:
 Integral files         IntName         .... 2-97_DFT_AB
 Hartree-Fock type      HFTyp           .... RHF
 Total Charge           Charge          ....    0
 Multiplicity           Mult            ....    1
 Number of Electrons    NEL             ....   36
 Basis Dimension        Dim             ....  172
 Nuclear Repulsion      ENuc            ....    113.2404373845 Eh

Convergence Acceleration:
 DIIS                   CNVDIIS         .... on
   Start iteration      DIISMaxIt       ....    12
   Startup error        DIISStart       ....  0.200000
   # of expansion vecs  DIISMaxEq       ....     5
   Bias factor          DIISBfac        ....   1.050
   Max. coefficient     DIISMaxC        ....  10.000
 Newton-Raphson         CNVNR           .... off
 SOSCF                  CNVSOSCF        .... on
   Start iteration      SOSCFMaxIt      ....   150
   Startup grad/error   SOSCFStart      ....  0.003300
 Level Shifting         CNVShift        .... on
   Level shift para.    LevelShift      ....    0.2500
   Turn off err/grad.   ShiftErr        ....    0.0010
 Zerner damping         CNVZerner       .... off
 Static damping         CNVDamp         .... on
   Fraction old density DampFac         ....    0.7000
   Max. Damping (<1)    DampMax         ....    0.9800
   Min. Damping (>=0)   DampMin         ....    0.0000
   Turn off err/grad.   DampErr         ....    0.1000
 Fernandez-Rico         CNVRico         .... off

SCF Procedure:
 Maximum # iterations   MaxIter         ....  1000
 SCF integral mode      SCFMode         .... Direct
   Integral package                     .... LIBINT
 Reset frequency        DirectResetFreq ....    20
 Integral Threshold     Thresh          ....  2.500e-11 Eh
 Primitive CutOff       TCut            ....  2.500e-12 Eh

Convergence Tolerance:
 Convergence Check Mode ConvCheckMode   .... Total+1el-Energy
 Convergence forced     ConvForced      .... 0
 Energy Change          TolE            ....  1.000e-08 Eh
 1-El. energy change                    ....  1.000e-05 Eh
 Orbital Gradient       TolG            ....  1.000e-05
 Orbital Rotation angle TolX            ....  1.000e-05
 DIIS Error             TolErr          ....  5.000e-07


Diagonalization of the overlap matrix:
Smallest eigenvalue                        ... 1.061e-03
Time for diagonalization                   ...    0.004 sec
Threshold for overlap eigenvalues          ... 1.000e-08
Number of eigenvalues below threshold      ... 0
Time for construction of square roots      ...    0.053 sec
Total time needed                          ...    0.057 sec

-------------------
DFT GRID GENERATION
-------------------

General Integration Accuracy     IntAcc      ...  4.340
Radial Grid Type                 RadialGrid  ... Gauss-Chebyshev
Angular Grid (max. acc.)         AngularGrid ... Lebedev-110
Angular grid pruning method      GridPruning ... 3 (G Style)
Weight generation scheme         WeightScheme... Becke
Basis function cutoff            BFCut       ...    1.0000e-11
Integration weight cutoff        WCut        ...    1.0000e-14
Grids for H and He will be reduced by one unit

# of grid points (after initial pruning)     ...  13096 (   0.0 sec)
# of grid points (after weights+screening)   ...  12583 (   0.0 sec)
nearest neighbour list constructed           ...    0.0 sec
Grid point re-assignment to atoms done       ...    0.0 sec
Grid point division into batches done        ...    0.0 sec
Reduced shell lists constructed in    0.0 sec

Total number of grid points                  ...    12583
Total number of batches                      ...      201
Average number of points per batch           ...       62
Average number of grid points per atom       ...     1049
Average number of shells per batch           ...    45.37 (59.70%)
Average number of basis functions per batch  ...    98.33 (57.17%)
Average number of large shells per batch     ...    36.15 (79.67%)
Average number of large basis fcns per batch ...    80.74 (82.11%)
Maximum spatial batch extension              ...  12.28, 16.66, 25.60 au
Average spatial batch extension              ...   0.32,  0.42,  0.45 au

Time for grid setup =    0.242 sec

------------------------------
INITIAL GUESS: MODEL POTENTIAL
------------------------------
Loading Hartree-Fock densities                     ... done
Calculating cut-offs                               ... done
Setting up the integral package                    ... done
Initializing the effective Hamiltonian             ... done
Starting the Coulomb interaction                   ... done (   0.0 sec)
Reading the grid                                   ... done
Mapping shells                                     ... done
Starting the XC term evaluation                    ... done (   0.0 sec)
  promolecular density results
     # of electrons  =     36.006108243
     EX              =    -28.844847707
     EC              =     -1.148228353
     EX+EC           =    -29.993076059
Transforming the Hamiltonian                       ... done (   0.1 sec)
Diagonalizing the Hamiltonian                      ... done (   0.0 sec)
Back transforming the eigenvectors                 ... done (   0.0 sec)
Now organizing SCF variables                       ... done
                      ------------------
                      INITIAL GUESS DONE (   0.6 sec)
                      ------------------
--------------
SCF ITERATIONS
--------------
ITER       Energy         Delta-E        Max-DP      RMS-DP      [F,P]     Damp
               ***  Starting incremental Fock matrix formation  ***
  0   -231.2859993540   0.000000000000 0.03849013  0.00104855  0.2591729 0.7000
  1   -231.3579210353  -0.071921681273 0.02220894  0.00074393  0.1289428 0.7000
                               ***Turning on DIIS***
  2   -231.3906447444  -0.032723709070 0.03331301  0.00134244  0.0495780 0.0000
  3   -231.4437675808  -0.053122836396 0.01868301  0.00049028  0.0634559 0.0000
  4   -231.4526357907  -0.008868209956 0.00389421  0.00009827  0.0060835 0.0000
                      *** Initiating the SOSCF procedure ***
                           *** Shutting down DIIS ***
                      *** Re-Reading the Fockian *** 
                      *** Removing any level shift *** 
ITER      Energy       Delta-E        Grad      Rot      Max-DP    RMS-DP
  5   -231.45280088  -0.0001650932  0.000440  0.000440  0.000864  0.000036
               *** Restarting incremental Fock matrix formation ***
  6   -231.45281630  -0.0000154136  0.000167  0.000325  0.000589  0.000023
  7   -231.45281801  -0.0000017174  0.000070  0.000210  0.000307  0.000011
  8   -231.45281816  -0.0000001426  0.000035  0.000025  0.000057  0.000001
  9   -231.45281820  -0.0000000399  0.000013  0.000010  0.000025  0.000001
 10   -231.45281820  -0.0000000036  0.000003  0.000005  0.000007  0.000000
                  ***Gradient check signals convergence***
              ***Rediagonalizing the Fockian in SOSCF/NRSCF***

               *****************************************************
               *                     SUCCESS                       *
               *           SCF CONVERGED AFTER  11 CYCLES          *
               *****************************************************

Setting up the final grid:

General Integration Accuracy     IntAcc      ...  4.670
Radial Grid Type                 RadialGrid  ... Gauss-Chebyshev
Angular Grid (max. acc.)         AngularGrid ... Lebedev-302
Angular grid pruning method      GridPruning ... 3 (G Style)
Weight generation scheme         WeightScheme... Becke
Basis function cutoff            BFCut       ...    1.0000e-11
Integration weight cutoff        WCut        ...    1.0000e-14
Grids for H and He will be reduced by one unit

# of grid points (after initial pruning)     ...  52000 (   0.0 sec)
# of grid points (after weights+screening)   ...  49462 (   0.0 sec)
nearest neighbour list constructed           ...    0.0 sec
Grid point re-assignment to atoms done       ...    0.0 sec
Grid point division into batches done        ...    0.2 sec
Reduced shell lists constructed in    0.2 sec

Total number of grid points                  ...    49462
Total number of batches                      ...      780
Average number of points per batch           ...       63
Average number of grid points per atom       ...     4122
Average number of shells per batch           ...    44.21 (58.17%)
Average number of basis functions per batch  ...    96.11 (55.88%)
Average number of large shells per batch     ...    35.19 (79.60%)
Average number of large basis fcns per batch ...    78.95 (82.14%)
Maximum spatial batch extension              ...  15.43, 14.94, 16.38 au
Average spatial batch extension              ...   0.24,  0.26,  0.26 au

Final grid set up in    0.4 sec
Final integration                            ... done (   0.5 sec)
Change in XC energy                          ...    -0.000338325
Integrated number of electrons               ...    35.999999854
Previous integrated no of electrons          ...    36.005204886

----------------
TOTAL SCF ENERGY
----------------

Total Energy       :         -231.45315653 Eh           -6298.16058 eV

Components:
Nuclear Repulsion  :          113.24043738 Eh            3081.42896 eV
Electronic Energy  :         -344.69359391 Eh           -9379.58954 eV
One Electron Energy:         -539.12288737 Eh          -14670.27959 eV
Two Electron Energy:          194.42929346 Eh            5290.69005 eV

Virial components:
Potential Energy   :         -461.76369045 Eh          -12565.22882 eV
Kinetic Energy     :          230.31053393 Eh            6267.06824 eV
Virial Ratio       :            2.00496123


DFT components:
N(Alpha)           :       17.999999927227 electrons
N(Beta)            :       17.999999927227 electrons
N(Total)           :       35.999999854454 electrons
E(XC)              :      -21.272640267283 Eh       
DFET-embed. en.    :        0.000000000000 Eh       

---------------
SCF CONVERGENCE
---------------

  Last Energy change         ...   -5.2214e-10  Tolerance :   1.0000e-08
  Last MAX-Density change    ...    2.6410e-06  Tolerance :   1.0000e-07
  Last RMS-Density change    ...    9.1161e-08  Tolerance :   5.0000e-09
  Last Orbital Gradient      ...    1.0590e-06  Tolerance :   1.0000e-05
  Last Orbital Rotation      ...    2.2437e-06  Tolerance :   1.0000e-05

             **** THE GBW FILE WAS UPDATED (2-97_DFT_AB.gbw) ****
             **** DENSITY FILE WAS UPDATED (2-97_DFT_AB.scfp.tmp) ****
             **** ENERGY FILE WAS UPDATED (2-97_DFT_AB.en.tmp) ****
----------------
ORBITAL ENERGIES
----------------

  NO   OCC          E(Eh)            E(eV) 
   0   2.0000     -19.240195      -523.5523 
   1   2.0000     -19.228858      -523.2438 
   2   2.0000     -10.332250      -281.1548 
   3   2.0000     -10.324671      -280.9486 
   4   2.0000      -1.151643       -31.3378 
   5   2.0000      -1.140509       -31.0348 
   6   2.0000      -0.807936       -21.9851 
   7   2.0000      -0.792272       -21.5588 
   8   2.0000      -0.633175       -17.2296 
   9   2.0000      -0.611512       -16.6401 
  10   2.0000      -0.541441       -14.7334 
  11   2.0000      -0.538457       -14.6522 
  12   2.0000      -0.533116       -14.5068 
  13   2.0000      -0.525826       -14.3084 
  14   2.0000      -0.435228       -11.8432 
  15   2.0000      -0.417155       -11.3514 
  16   2.0000      -0.380528       -10.3547 
  17   2.0000      -0.379008       -10.3133 
  18   0.0000       0.096049         2.6136 
  19   0.0000       0.117026         3.1844 
  20   0.0000       0.144884         3.9425 
  21   0.0000       0.157423         4.2837 
  22   0.0000       0.179497         4.8844 
  23   0.0000       0.199612         5.4317 
  24   0.0000       0.200842         5.4652 
  25   0.0000       0.217430         5.9166 
  26   0.0000       0.236258         6.4289 
  27   0.0000       0.251440         6.8420 
  28   0.0000       0.289130         7.8676 
  29   0.0000       0.307951         8.3798 
  30   0.0000       0.321758         8.7555 
  31   0.0000       0.373052        10.1513 
  32   0.0000       0.397010        10.8032 
  33   0.0000       0.411594        11.2001 
  34   0.0000       0.452046        12.3008 
  35   0.0000       0.468855        12.7582 
  36   0.0000       0.489837        13.3291 
  37   0.0000       0.508293        13.8314 
  38   0.0000       0.514441        13.9986 
  39   0.0000       0.521253        14.1840 
  40   0.0000       0.541509        14.7352 
  41   0.0000       0.550866        14.9898 
  42   0.0000       0.567067        15.4307 
  43   0.0000       0.578193        15.7334 
  44   0.0000       0.596096        16.2206 
  45   0.0000       0.605805        16.4848 
  46   0.0000       0.617815        16.8116 
  47   0.0000       0.652045        17.7430 
  48   0.0000       0.689466        18.7613 
  49   0.0000       0.714658        19.4468 
  50   0.0000       0.759777        20.6746 
  51   0.0000       0.766986        20.8708 
  52   0.0000       0.795980        21.6597 
  53   0.0000       0.833524        22.6813 
  54   0.0000       0.870960        23.7000 
  55   0.0000       0.883409        24.0388 
  56   0.0000       0.979927        26.6652 
  57   0.0000       1.008172        27.4338 
  58   0.0000       1.018697        27.7201 
  59   0.0000       1.058496        28.8031 
  60   0.0000       1.104078        30.0435 
  61   0.0000       1.109396        30.1882 
  62   0.0000       1.388209        37.7751 
  63   0.0000       1.406565        38.2746 
  64   0.0000       1.476693        40.1829 
  65   0.0000       1.532766        41.7087 
  66   0.0000       1.558116        42.3985 
  67   0.0000       1.568030        42.6683 
  68   0.0000       1.589508        43.2527 
  69   0.0000       1.592946        43.3463 
  70   0.0000       1.604936        43.6725 
  71   0.0000       1.617539        44.0155 
  72   0.0000       1.639740        44.6196 
  73   0.0000       1.655001        45.0349 
  74   0.0000       1.657039        45.0903 
  75   0.0000       1.669799        45.4375 
  76   0.0000       1.678221        45.6667 
  77   0.0000       1.692765        46.0625 
  78   0.0000       1.753407        47.7126 
  79   0.0000       1.805254        49.1235 
  80   0.0000       1.939791        52.7844 
  81   0.0000       1.948725        53.0275 
  82   0.0000       1.984636        54.0047 
  83   0.0000       1.990314        54.1592 
  84   0.0000       2.039560        55.4992 
  85   0.0000       2.049548        55.7710 
  86   0.0000       2.102576        57.2140 
  87   0.0000       2.104370        57.2628 
  88   0.0000       2.127209        57.8843 
  89   0.0000       2.166665        58.9579 
  90   0.0000       2.245392        61.1002 
  91   0.0000       2.256556        61.4040 
  92   0.0000       2.285496        62.1915 
  93   0.0000       2.325504        63.2802 
  94   0.0000       2.327389        63.3315 
  95   0.0000       2.367064        64.4111 
  96   0.0000       2.377744        64.7017 
  97   0.0000       2.402831        65.3844 
  98   0.0000       2.422942        65.9316 
  99   0.0000       2.485710        67.6396 
 100   0.0000       2.508069        68.2480 
 101   0.0000       2.531077        68.8741 
 102   0.0000       2.544282        69.2334 
 103   0.0000       2.603470        70.8440 
 104   0.0000       2.608793        70.9889 
 105   0.0000       2.645426        71.9857 
 106   0.0000       2.669377        72.6374 
 107   0.0000       2.751944        74.8842 
 108   0.0000       2.828666        76.9719 
 109   0.0000       2.836379        77.1818 
 110   0.0000       2.847752        77.4913 
 111   0.0000       2.854102        77.6641 
 112   0.0000       2.940942        80.0271 
 113   0.0000       2.957264        80.4712 
 114   0.0000       2.983858        81.1949 
 115   0.0000       2.999077        81.6090 
 116   0.0000       3.077902        83.7540 
 117   0.0000       3.082995        83.8926 
 118   0.0000       3.131839        85.2217 
 119   0.0000       3.158835        85.9563 
 120   0.0000       3.205283        87.2202 
 121   0.0000       3.245665        88.3190 
 122   0.0000       3.277981        89.1984 
 123   0.0000       3.343419        90.9791 
 124   0.0000       3.447226        93.8038 
 125   0.0000       3.484125        94.8079 
 126   0.0000       3.504924        95.3738 
 127   0.0000       3.522550        95.8535 
 128   0.0000       3.562791        96.9485 
 129   0.0000       3.568768        97.1111 
 130   0.0000       3.599251        97.9406 
 131   0.0000       3.661133        99.6245 
 132   0.0000       3.670316        99.8744 
 133   0.0000       3.727342       101.4261 
 134   0.0000       3.987441       108.5038 
 135   0.0000       3.991077       108.6027 
 136   0.0000       4.133549       112.4796 
 137   0.0000       4.229494       115.0904 
 138   0.0000       4.240610       115.3929 
 139   0.0000       4.289974       116.7361 
 140   0.0000       4.317358       117.4813 
 141   0.0000       4.346386       118.2712 
 142   0.0000       4.570462       124.3686 
 143   0.0000       4.578335       124.5828 
 144   0.0000       5.333441       145.1303 
 145   0.0000       5.334851       145.1687 
 146   0.0000       5.388160       146.6193 
 147   0.0000       5.396965       146.8589 
 148   0.0000       5.582639       151.9113 
 149   0.0000       5.594188       152.2256 
 150   0.0000       5.791033       157.5820 
 151   0.0000       5.836605       158.8221 
 152   0.0000       5.838251       158.8669 
 153   0.0000       5.885158       160.1433 
 154   0.0000       5.946003       161.7990 
 155   0.0000       5.983860       162.8291 
 156   0.0000       6.429664       174.9600 
 157   0.0000       6.450994       175.5405 
 158   0.0000       6.511113       177.1764 
 159   0.0000       6.523129       177.5034 
 160   0.0000       6.724885       182.9934 
 161   0.0000       6.771936       184.2737 
 162   0.0000       6.790597       184.7815 
 163   0.0000       6.793686       184.8656 
 164   0.0000       7.021678       191.0696 
 165   0.0000       7.036272       191.4667 
 166   0.0000       7.226721       196.6491 
 167   0.0000       7.241751       197.0581 
 168   0.0000      22.177292       603.4748 
 169   0.0000      22.380806       609.0127 
 170   0.0000      43.643058      1187.5880 
 171   0.0000      43.665634      1188.2023 

                    ********************************
                    * MULLIKEN POPULATION ANALYSIS *
                    ********************************

-----------------------
MULLIKEN ATOMIC CHARGES
-----------------------
   0 C :   -0.167192
   1 O :   -0.469649
   2 H :    0.313516
   3 H :    0.112054
   4 H :    0.118245
   5 H :    0.094232
   6 C :   -0.159396
   7 O :   -0.466299
   8 H :    0.319569
   9 H :    0.097256
  10 H :    0.104383
  11 H :    0.103281
Sum of atomic charges:   -0.0000000

--------------------------------
MULLIKEN REDUCED ORBITAL CHARGES
--------------------------------
  0 C s       :     3.246038  s :     3.246038
      pz      :     0.995990  p :     2.812953
      px      :     0.726971
      py      :     1.089993
      dz2     :     0.006254  d :     0.100688
      dxz     :     0.037093
      dyz     :     0.012672
      dx2y2   :     0.014383
      dxy     :     0.030285
      f0      :     0.000435  f :     0.007512
      f+1     :     0.001630
      f-1     :     0.000298
      f+2     :     0.002081
      f-2     :     0.000295
      f+3     :     0.001002
      f-3     :     0.001772
  1 O s       :     3.775266  s :     3.775266
      pz      :     1.847654  p :     4.663973
      px      :     1.287457
      py      :     1.528862
      dz2     :     0.003857  d :     0.028646
      dxz     :     0.005176
      dyz     :     0.003122
      dx2y2   :     0.008522
      dxy     :     0.007967
      f0      :     0.000255  f :     0.001764
      f+1     :     0.000308
      f-1     :     0.000181
      f+2     :     0.000181
      f-2     :     0.000181
      f+3     :     0.000516
      f-3     :     0.000142
  2 H s       :     0.633620  s :     0.633620
      pz      :     0.018932  p :     0.052864
      px      :     0.015145
      py      :     0.018787
  3 H s       :     0.869330  s :     0.869330
      pz      :     0.007866  p :     0.018616
      px      :     0.006817
      py      :     0.003934
  4 H s       :     0.862258  s :     0.862258
      pz      :     0.006330  p :     0.019496
      px      :     0.003726
      py      :     0.009441
  5 H s       :     0.887259  s :     0.887259
      pz      :     0.008545  p :     0.018509
      px      :     0.002571
      py      :     0.007393
  6 C s       :     3.207633  s :     3.207633
      pz      :     0.904254  p :     2.841017
      px      :     0.905331
      py      :     1.031432
      dz2     :     0.039827  d :     0.102980
      dxz     :     0.009869
      dyz     :     0.011681
      dx2y2   :     0.031190
      dxy     :     0.010412
      f0      :     0.001200  f :     0.007766
      f+1     :     0.001805
      f-1     :     0.000919
      f+2     :     0.001460
      f-2     :     0.000918
      f+3     :     0.000563
      f-3     :     0.000901
  7 O s       :     3.774976  s :     3.774976
      pz      :     1.641694  p :     4.660180
      px      :     1.670917
      py      :     1.347570
      dz2     :     0.005978  d :     0.029341
      dxz     :     0.007286
      dyz     :     0.002520
      dx2y2   :     0.009617
      dxy     :     0.003939
      f0      :     0.000223  f :     0.001801
      f+1     :     0.000257
      f-1     :     0.000284
      f+2     :     0.000280
      f-2     :     0.000271
      f+3     :     0.000151
      f-3     :     0.000335
  8 H s       :     0.629674  s :     0.629674
      pz      :     0.015971  p :     0.050757
      px      :     0.014887
      py      :     0.019899
  9 H s       :     0.883418  s :     0.883418
      pz      :     0.003471  p :     0.019326
      px      :     0.011587
      py      :     0.004268
 10 H s       :     0.874762  s :     0.874762
      pz      :     0.003741  p :     0.020855
      px      :     0.003997
      py      :     0.013117
 11 H s       :     0.877078  s :     0.877078
      pz      :     0.011716  p :     0.019640
      px      :     0.003590
      py      :     0.004335


                     *******************************
                     * LOEWDIN POPULATION ANALYSIS *
                     *******************************

----------------------
LOEWDIN ATOMIC CHARGES
----------------------
   0 C :   -0.390883
   1 O :   -0.071240
   2 H :    0.142254
   3 H :    0.107191
   4 H :    0.107759
   5 H :    0.105066
   6 C :   -0.412971
   7 O :   -0.042744
   8 H :    0.157424
   9 H :    0.097073
  10 H :    0.104436
  11 H :    0.096636

-------------------------------
LOEWDIN REDUCED ORBITAL CHARGES
-------------------------------
  0 C s       :     2.895294  s :     2.895294
      pz      :     1.061042  p :     3.044212
      px      :     0.861092
      py      :     1.122078
      dz2     :     0.033241  d :     0.398761
      dxz     :     0.137315
      dyz     :     0.051579
      dx2y2   :     0.087151
      dxy     :     0.089475
      f0      :     0.005245  f :     0.052616
      f+1     :     0.010889
      f-1     :     0.002755
      f+2     :     0.009582
      f-2     :     0.001935
      f+3     :     0.009967
      f-3     :     0.012242
  1 O s       :     3.349899  s :     3.349899
      pz      :     1.762201  p :     4.648397
      px      :     1.349286
      py      :     1.536910
      dz2     :     0.007547  d :     0.068457
      dxz     :     0.014879
      dyz     :     0.003323
      dx2y2   :     0.018699
      dxy     :     0.024009
      f0      :     0.000407  f :     0.004487
      f+1     :     0.000659
      f-1     :     0.000230
      f+2     :     0.000697
      f-2     :     0.000496
      f+3     :     0.001271
      f-3     :     0.000729
  2 H s       :     0.681585  s :     0.681585
      pz      :     0.055753  p :     0.176162
      px      :     0.041295
      py      :     0.079113
  3 H s       :     0.839446  s :     0.839446
      pz      :     0.023186  p :     0.053363
      px      :     0.018364
      py      :     0.011813
  4 H s       :     0.835194  s :     0.835194
      pz      :     0.018291  p :     0.057047
      px      :     0.010368
      py      :     0.028388
  5 H s       :     0.842640  s :     0.842640
      pz      :     0.023371  p :     0.052293
      px      :     0.007632
      py      :     0.021290
  6 C s       :     2.854328  s :     2.854328
      pz      :     0.997783  p :     3.070503
      px      :     0.998039
      py      :     1.074680
      dz2     :     0.158112  d :     0.431645
      dxz     :     0.068837
      dyz     :     0.044366
      dx2y2   :     0.122278
      dxy     :     0.038053
      f0      :     0.006701  f :     0.056495
      f+1     :     0.011151
      f-1     :     0.008174
      f+2     :     0.010094
      f-2     :     0.009440
      f+3     :     0.004334
      f-3     :     0.006602
  7 O s       :     3.337249  s :     3.337249
      pz      :     1.613444  p :     4.629085
      px      :     1.650523
      py      :     1.365118
      dz2     :     0.015626  d :     0.071757
      dxz     :     0.014800
      dyz     :     0.009337
      dx2y2   :     0.023043
      dxy     :     0.008951
      f0      :     0.000576  f :     0.004653
      f+1     :     0.000784
      f-1     :     0.000612
      f+2     :     0.000640
      f-2     :     0.000717
      f+3     :     0.000542
      f-3     :     0.000782
  8 H s       :     0.673382  s :     0.673382
      pz      :     0.043032  p :     0.169194
      px      :     0.044132
      py      :     0.082031
  9 H s       :     0.845356  s :     0.845356
      pz      :     0.010873  p :     0.057571
      px      :     0.033685
      py      :     0.013013
 10 H s       :     0.835464  s :     0.835464
      pz      :     0.011173  p :     0.060100
      px      :     0.011696
      py      :     0.037232
 11 H s       :     0.844308  s :     0.844308
      pz      :     0.034277  p :     0.059056
      px      :     0.010956
      py      :     0.013823


                      *****************************
                      * MAYER POPULATION ANALYSIS *
                      *****************************

  NA   - Mulliken gross atomic population
  ZA   - Total nuclear charge
  QA   - Mulliken gross atomic charge
  VA   - Mayer's total valence
  BVA  - Mayer's bonded valence
  FA   - Mayer's free valence

  ATOM       NA         ZA         QA         VA         BVA        FA
  0 C      6.1672     6.0000    -0.1672     3.9368     3.9368    -0.0000
  1 O      8.4696     8.0000    -0.4696     1.8953     1.8953     0.0000
  2 H      0.6865     1.0000     0.3135     0.9161     0.9161    -0.0000
  3 H      0.8879     1.0000     0.1121     0.9540     0.9540    -0.0000
  4 H      0.8818     1.0000     0.1182     0.9522     0.9522    -0.0000
  5 H      0.9058     1.0000     0.0942     0.9674     0.9674     0.0000
  6 C      6.1594     6.0000    -0.1594     3.9550     3.9550    -0.0000
  7 O      8.4663     8.0000    -0.4663     1.9167     1.9167    -0.0000
  8 H      0.6804     1.0000     0.3196     0.9125     0.9125    -0.0000
  9 H      0.9027     1.0000     0.0973     0.9545     0.9545     0.0000
 10 H      0.8956     1.0000     0.1044     0.9500     0.9500    -0.0000
 11 H      0.8967     1.0000     0.1033     0.9521     0.9521    -0.0000

  Mayer bond orders larger than 0.1
B(  0-C ,  1-O ) :   1.0011 B(  0-C ,  3-H ) :   0.9612 B(  0-C ,  4-H ) :   0.9702 
B(  0-C ,  5-H ) :   0.9915 B(  1-O ,  2-H ) :   0.9055 B(  6-C ,  7-O ) :   1.0216 
B(  6-C ,  9-H ) :   0.9776 B(  6-C , 10-H ) :   0.9723 B(  6-C , 11-H ) :   0.9715 
B(  7-O ,  8-H ) :   0.8959 

-------
TIMINGS
-------

Total SCF time: 0 days 0 hours 2 min 6 sec 

Total time                  ....     126.860 sec
Sum of individual times     ....     122.997 sec  ( 97.0%)

Fock matrix formation       ....     118.718 sec  ( 93.6%)
  XC integration            ....      99.424 sec  ( 83.7% of F)
    Basis function eval.    ....       0.055 sec  (  0.1% of XC)
    Density eval.           ....       1.312 sec  (  1.3% of XC)
    XC-Functional eval.     ....       0.833 sec  (  0.8% of XC)
    XC-Potential eval.      ....       0.056 sec  (  0.1% of XC)
Diagonalization             ....       1.237 sec  (  1.0%)
Density matrix formation    ....       0.012 sec  (  0.0%)
Population analysis         ....       0.384 sec  (  0.3%)
Initial guess               ....       0.347 sec  (  0.3%)
Orbital Transformation      ....       0.000 sec  (  0.0%)
Orbital Orthonormalization  ....       0.000 sec  (  0.0%)
DIIS solution               ....       0.611 sec  (  0.5%)
SOSCF solution              ....       1.049 sec  (  0.8%)
Grid generation             ....       0.639 sec  (  0.5%)


-------------------------------------------------------------------------------
                          DFT DISPERSION CORRECTION                            
                                                                               
                              DFTD3 V3.1  Rev 1                                
                              USING zero damping                               
-------------------------------------------------------------------------------
The omegaB97X-D3 functional is recognized. Fit by Chai et al.
Active option DFTDOPT                   ...         3   

molecular C6(AA) [au] = 835.533369 


            DFT-D V3
 parameters
 s6 scaling factor         :     1.0000 
 rs6 scaling factor        :     1.2810 
 s8 scaling factor         :     1.0000 
 rs8 scaling factor        :     1.0940 
 Damping factor alpha6     :    14.0000 
 Damping factor alpha8     :    16.0000 
 ad hoc parameters k1-k3   :    16.0000     1.3333    -4.0000 

 Edisp/kcal,au: -0.723705708437  -0.001153298334 
 E6   /kcal   :  -0.332448659 
 E8   /kcal   :  -0.391257049 
 % E8         :  54.063004421 

-------------------------   ----------------
Dispersion correction           -0.001153298
-------------------------   ----------------


-------------------------   --------------------
FINAL SINGLE POINT ENERGY      -231.454309825387
-------------------------   --------------------


                            ***************************************
                            *     ORCA property calculations      *
                            ***************************************

                                    ---------------------
                                    Active property flags
                                    ---------------------
   (+) Dipole Moment


------------------------------------------------------------------------------
                       ORCA ELECTRIC PROPERTIES CALCULATION
------------------------------------------------------------------------------

Dipole Moment Calculation                       ... on
Quadrupole Moment Calculation                   ... off
Polarizability Calculation                      ... off
GBWName                                         ... 2-97_DFT_AB.gbw
Electron density file                           ... 2-97_DFT_AB.scfp.tmp
The origin for moment calculation is the CENTER OF MASS  = (18.832588, -6.203507 -4.209750)

-------------
DIPOLE MOMENT
-------------
                                X             Y             Z
Electronic contribution:     -0.31287      -0.41913       0.69534
Nuclear contribution   :      0.13472      -0.51928      -0.62010
                        -----------------------------------------
Total Dipole Moment    :     -0.17815      -0.93841       0.07524
                        -----------------------------------------
Magnitude (a.u.)       :      0.95813
Magnitude (Debye)      :      2.43538



--------------------
Rotational spectrum 
--------------------
 
Rotational constants in cm-1:     0.559665     0.036173     0.034647 
Rotational constants in MHz : 16778.339065  1084.437306  1038.686378 

 Dipole components along the rotational axes: 
x,y,z [a.u.] :    -0.823809     0.467294    -0.144880 
x,y,z [Debye]:    -2.093957     1.187767    -0.368255 

 
------------------------------------------------------------------------------
                      ORCA CHELPG CHARGES GENERATION
------------------------------------------------------------------------------

GBW file                           ... 2-97_DFT_AB.gbw

Reading the GBW file               ... done

Grid spacing                       ...     0.300000
Point Cut-Off                      ...     2.800000
Van-der-Waals Radii                ...        COSMO
Total charge                       ...            0


Number of points X direction       ...           27
Number of points Y direction       ...           41
Number of points Z direction       ...           29
Maximum number of possible points  ...        32103
Final number of points             ...        10722


CHELPG Charges            
--------------------------------
  0   C   :       0.018384
  1   O   :      -0.588210
  2   H   :       0.403370
  3   H   :       0.054607
  4   H   :       0.088650
  5   H   :       0.019072
  6   C   :       0.083626
  7   O   :      -0.624526
  8   H   :       0.430670
  9   H   :       0.014169
 10   H   :       0.089349
 11   H   :       0.010840
--------------------------------
Total charge:    -0.000000
--------------------------------

CHELPG charges calculated...

Timings for individual parts in CHELPG calculation:
Grid generation                 ...        0.001 sec (=   0.000 min)
Potential calculation           ...        2.079 sec (=   0.035 min)
Fit to the potential            ...        0.004 sec (=   0.000 min)
------------------------------------------------------------------------------


Timings for individual modules:

Sum of individual times         ...      141.573 sec (=   2.360 min)
GTO integral calculation        ...        9.415 sec (=   0.157 min)   6.7 %
SCF iterations                  ...      129.634 sec (=   2.161 min)  91.6 %
CHELPG charge generation        ...        2.524 sec (=   0.042 min)   1.8 %


                 $$$$$$$$$$$$$$$$  JOB NUMBER  2 $$$$$$$$$$$$$$


                       ****************************
                       * Single Point Calculation *
                       ****************************

---------------------------------
CARTESIAN COORDINATES (ANGSTROEM)
---------------------------------
  C     10.131559   -0.929883   -3.069840
  O      8.749478   -0.835584   -3.413896
  H      8.295501   -1.609561   -3.197512
  H     10.881002   -1.133662   -3.916814
  H     10.518113   -0.027949   -2.527007
  H     10.152257   -1.698416   -2.209900
  C     10.075003   -5.369550   -1.701341
  O     10.966355   -5.894968   -0.762528
  H     10.837473   -6.806595   -0.593211
  H      8.989269   -5.571708   -1.521119
  H     10.054936   -4.273271   -1.759322
  H     10.144655   -5.691776   -2.762107

----------------------------
CARTESIAN COORDINATES (A.U.)
----------------------------
  NO LB      ZA    FRAG     MASS         X           Y           Z
   0 C     6.0000    0    12.011   19.145872   -1.757224   -5.801157
   1 O     8.0000    0    15.999   16.534117   -1.579025   -6.451328
   2 H     1.0000    0     1.008   15.676225   -3.041629   -6.042422
   3 H     1.0000    0     1.008   20.562114   -2.142311   -7.401706
   4 H     1.0000    0     1.008   19.876353   -0.052816   -4.775351
   5 H     1.0000    0     1.008   19.184985   -3.209541   -4.176106
   6 C     0.0000    0     0.000   19.038996  -10.146979   -3.215069
   7 O     0.0000    0     0.000   20.723408  -11.139875   -1.440969
   8 H     0.0000    0     0.000   20.479856  -12.862600   -1.121006
   9 H     0.0000    0     0.000   16.987257  -10.529002   -2.874498
  10 H     0.0000    0     0.000   19.001075   -8.075312   -3.324637
  11 H     0.0000    0     0.000   19.170620  -10.755898   -5.219626

--------------------------------
INTERNAL COORDINATES (ANGSTROEM)
--------------------------------
 C      0   0   0     0.000000000000     0.00000000     0.00000000
 O      1   0   0     1.427380370854     0.00000000     0.00000000
 H      2   1   0     0.923015464938   111.36620939     0.00000000
 H      1   2   3     1.149154318517   117.74456382   102.27629920
 H      1   2   3     1.121417228850   113.40983591   226.73557575
 H      1   2   3     1.153502571689   103.95067360   334.01835061
 C      6   1   2     3.706996801044   139.61567222    80.35744922
 O      7   6   1     1.397119290396   116.82868071   136.46980998
 H      8   7   6     0.936131723393   113.57377784   172.88271803
 H      7   6   1     1.119002298927   102.78110812   265.05082725
 H      7   6   1     1.097994593198     5.35114566   207.73566542
 H      7   6   1     1.110812991883    98.91448501     6.82011738

---------------------------
INTERNAL COORDINATES (A.U.)
---------------------------
 C      0   0   0     0.000000000000     0.00000000     0.00000000
 O      1   0   0     2.697357989848     0.00000000     0.00000000
 H      2   1   0     1.744246446106   111.36620939     0.00000000
 H      1   2   3     2.171586947610   117.74456382   102.27629920
 H      1   2   3     2.119171444387   113.40983591   226.73557575
 H      1   2   3     2.179803955266   103.95067360   334.01835061
 C      6   1   2     7.005208733296   139.61567222    80.35744922
 O      7   6   1     2.640172835267   116.82868071   136.46980998
 H      8   7   6     1.769032582488   113.57377784   172.88271803
 H      7   6   1     2.114607888200   102.78110812   265.05082725
 H      7   6   1     2.074909077670     5.35114566   207.73566542
 H      7   6   1     2.099132340661    98.91448501     6.82011738

---------------------
BASIS SET INFORMATION
---------------------
There are 3 groups of distinct atoms

 Group   1 Type C   : 11s6p2d1f contracted to 5s3p2d1f pattern {62111/411/11/1}
 Group   2 Type O   : 11s6p2d1f contracted to 5s3p2d1f pattern {62111/411/11/1}
 Group   3 Type H   : 5s1p contracted to 3s1p pattern {311/1}

Atom   0C    basis set group =>   1
Atom   1O    basis set group =>   2
Atom   2H    basis set group =>   3
Atom   3H    basis set group =>   3
Atom   4H    basis set group =>   3
Atom   5H    basis set group =>   3
Atom   6C    basis set group =>   1
Atom   7O    basis set group =>   2
Atom   8H    basis set group =>   3
Atom   9H    basis set group =>   3
Atom  10H    basis set group =>   3
Atom  11H    basis set group =>   3


           ************************************************************
           *        Program running with 8 parallel MPI-processes     *
           *              working on a common directory               *
           ************************************************************
------------------------------------------------------------------------------
                           ORCA GTO INTEGRAL CALCULATION
------------------------------------------------------------------------------

                         BASIS SET STATISTICS AND STARTUP INFO

 # of primitive gaussian shells          ...  128
 # of primitive gaussian functions       ...  248
 # of contracted shells                  ...   76
 # of contracted basis functions         ...  172
 Highest angular momentum                ...    3
 Maximum contraction depth               ...    6
 Integral package used                   ... LIBINT
 Integral threshhold            Thresh   ...  2.500e-11
 Primitive cut-off              TCut     ...  2.500e-12


------------------------------ INTEGRAL EVALUATION ----------------------------


 * One electron integrals 
 Pre-screening matrix                    ... done
 Shell pair data                         ... done (   0.001 sec)



           ************************************************************
           *        Program running with 8 parallel MPI-processes     *
           *              working on a common directory               *
           ************************************************************
-------------------------------------------------------------------------------
                                 ORCA SCF
-------------------------------------------------------------------------------

------------
SCF SETTINGS
------------
Hamiltonian:
 Density Functional     Method          .... DFT(GTOs)
 Exchange Functional    Exchange        .... WB97X-D3
 Correlation Functional Correlation     .... WB97X-D3
 Gradients option       PostSCFGGA      .... off
 Hybrid DFT is turned on
   Fraction HF Exchange ScalHFX         ....  0.195728
   Scaling of DF-GGA-X  ScalDFX         ....  0.000000
   Scaling of DF-GGA-C  ScalDFC         ....  1.000000
   Scaling of DF-LDA-C  ScalLDAC        ....  1.000000
   Perturbative correction              ....  0.000000
   Density functional embedding theory  .... OFF
 Long-range corrected/Screened/Range-Separated Hybrid DFT is turned on
   Amount of maximum screened exact exchange              ....  0.804272
   Range separation parameter mu (erf(mu*r12)/r12)        ....  0.250000


General Settings:
 Integral files         IntName         .... 2-97_DFT_A
 Hartree-Fock type      HFTyp           .... RHF
 Total Charge           Charge          ....    0
 Multiplicity           Mult            ....    1
 Number of Electrons    NEL             ....   18
 Basis Dimension        Dim             ....  172
 Nuclear Repulsion      ENuc            ....     39.8211560954 Eh

Convergence Acceleration:
 DIIS                   CNVDIIS         .... on
   Start iteration      DIISMaxIt       ....    12
   Startup error        DIISStart       ....  0.200000
   # of expansion vecs  DIISMaxEq       ....     5
   Bias factor          DIISBfac        ....   1.050
   Max. coefficient     DIISMaxC        ....  10.000
 Newton-Raphson         CNVNR           .... off
 SOSCF                  CNVSOSCF        .... on
   Start iteration      SOSCFMaxIt      ....   150
   Startup grad/error   SOSCFStart      ....  0.003300
 Level Shifting         CNVShift        .... on
   Level shift para.    LevelShift      ....    0.2500
   Turn off err/grad.   ShiftErr        ....    0.0010
 Zerner damping         CNVZerner       .... off
 Static damping         CNVDamp         .... on
   Fraction old density DampFac         ....    0.7000
   Max. Damping (<1)    DampMax         ....    0.9800
   Min. Damping (>=0)   DampMin         ....    0.0000
   Turn off err/grad.   DampErr         ....    0.1000
 Fernandez-Rico         CNVRico         .... off

SCF Procedure:
 Maximum # iterations   MaxIter         ....  1000
 SCF integral mode      SCFMode         .... Direct
   Integral package                     .... LIBINT
 Reset frequency        DirectResetFreq ....    20
 Integral Threshold     Thresh          ....  2.500e-11 Eh
 Primitive CutOff       TCut            ....  2.500e-12 Eh

Convergence Tolerance:
 Convergence Check Mode ConvCheckMode   .... Total+1el-Energy
 Convergence forced     ConvForced      .... 0
 Energy Change          TolE            ....  1.000e-08 Eh
 1-El. energy change                    ....  1.000e-05 Eh
 Orbital Gradient       TolG            ....  1.000e-05
 Orbital Rotation angle TolX            ....  1.000e-05
 DIIS Error             TolErr          ....  5.000e-07


Diagonalization of the overlap matrix:
Smallest eigenvalue                        ... 1.061e-03
Time for diagonalization                   ...    0.004 sec
Threshold for overlap eigenvalues          ... 1.000e-08
Number of eigenvalues below threshold      ... 0
Time for construction of square roots      ...    0.083 sec
Total time needed                          ...    0.086 sec

-------------------
DFT GRID GENERATION
-------------------

General Integration Accuracy     IntAcc      ...  4.340
Radial Grid Type                 RadialGrid  ... Gauss-Chebyshev
Angular Grid (max. acc.)         AngularGrid ... Lebedev-110
Angular grid pruning method      GridPruning ... 3 (G Style)
Weight generation scheme         WeightScheme... Becke
Basis function cutoff            BFCut       ...    1.0000e-11
Integration weight cutoff        WCut        ...    1.0000e-14
Grids for H and He will be reduced by one unit

# of grid points (after initial pruning)     ...  13096 (   0.0 sec)
# of grid points (after weights+screening)   ...  12583 (   0.0 sec)
nearest neighbour list constructed           ...    0.0 sec
Grid point re-assignment to atoms done       ...    0.0 sec
Grid point division into batches done        ...    0.0 sec
Reduced shell lists constructed in    0.0 sec

Total number of grid points                  ...    12583
Total number of batches                      ...      201
Average number of points per batch           ...       62
Average number of grid points per atom       ...     1049
Average number of shells per batch           ...    45.37 (59.70%)
Average number of basis functions per batch  ...    98.33 (57.17%)
Average number of large shells per batch     ...    36.15 (79.67%)
Average number of large basis fcns per batch ...    80.74 (82.11%)
Maximum spatial batch extension              ...  12.28, 16.66, 25.60 au
Average spatial batch extension              ...   0.32,  0.42,  0.45 au

Time for grid setup =    0.319 sec

------------------------------
INITIAL GUESS: MODEL POTENTIAL
------------------------------
Loading Hartree-Fock densities                     ... done
Calculating cut-offs                               ... done
Setting up the integral package                    ... done
Initializing the effective Hamiltonian             ... done
Starting the Coulomb interaction                   ... done (   0.0 sec)
Reading the grid                                   ... done
Mapping shells                                     ... done
Starting the XC term evaluation                    ... done (   0.0 sec)
  promolecular density results
     # of electrons  =     18.003653690
     EX              =    -14.411968180
     EC              =     -0.572531596
     EX+EC           =    -14.984499776
Transforming the Hamiltonian                       ... done (   0.2 sec)
Diagonalizing the Hamiltonian                      ... done (   0.0 sec)
Back transforming the eigenvectors                 ... done (   0.0 sec)
Now organizing SCF variables                       ... done
                      ------------------
                      INITIAL GUESS DONE (   0.7 sec)
                      ------------------
--------------
SCF ITERATIONS
--------------
ITER       Energy         Delta-E        Max-DP      RMS-DP      [F,P]     Damp
               ***  Starting incremental Fock matrix formation  ***
  0   -115.6407151384   0.000000000000 0.03852129  0.00074272  0.2588372 0.7000
  1   -115.6767352732  -0.036020134762 0.02216701  0.00052222  0.1286771 0.7000
                               ***Turning on DIIS***
  2   -115.6929286046  -0.016193331357 0.03327437  0.00092734  0.0493783 0.0000
  3   -115.7191621472  -0.026233542594 0.01841318  0.00034825  0.0635250 0.0000
  4   -115.7236283042  -0.004466157068 0.00387485  0.00007195  0.0058318 0.0000
                      *** Initiating the SOSCF procedure ***
                           *** Shutting down DIIS ***
                      *** Re-Reading the Fockian *** 
                      *** Removing any level shift *** 
ITER      Energy       Delta-E        Grad      Rot      Max-DP    RMS-DP
  5   -115.72371288  -0.0000845713  0.000413  0.000413  0.000823  0.000026
               *** Restarting incremental Fock matrix formation ***
  6   -115.72372076  -0.0000078840  0.000151  0.000248  0.000567  0.000016
  7   -115.72372169  -0.0000009336  0.000054  0.000152  0.000280  0.000008
  8   -115.72372178  -0.0000000871  0.000022  0.000019  0.000042  0.000001
  9   -115.72372179  -0.0000000109  0.000014  0.000011  0.000024  0.000001
                  ***Gradient check signals convergence***
              ***Rediagonalizing the Fockian in SOSCF/NRSCF***

               *****************************************************
               *                     SUCCESS                       *
               *           SCF CONVERGED AFTER  10 CYCLES          *
               *****************************************************

Setting up the final grid:

General Integration Accuracy     IntAcc      ...  4.670
Radial Grid Type                 RadialGrid  ... Gauss-Chebyshev
Angular Grid (max. acc.)         AngularGrid ... Lebedev-302
Angular grid pruning method      GridPruning ... 3 (G Style)
Weight generation scheme         WeightScheme... Becke
Basis function cutoff            BFCut       ...    1.0000e-11
Integration weight cutoff        WCut        ...    1.0000e-14
Grids for H and He will be reduced by one unit

# of grid points (after initial pruning)     ...  52000 (   0.0 sec)
# of grid points (after weights+screening)   ...  49462 (   0.0 sec)
nearest neighbour list constructed           ...    0.0 sec
Grid point re-assignment to atoms done       ...    0.0 sec
Grid point division into batches done        ...    0.2 sec
Reduced shell lists constructed in    0.2 sec

Total number of grid points                  ...    49462
Total number of batches                      ...      780
Average number of points per batch           ...       63
Average number of grid points per atom       ...     4122
Average number of shells per batch           ...    44.21 (58.17%)
Average number of basis functions per batch  ...    96.11 (55.88%)
Average number of large shells per batch     ...    35.19 (79.60%)
Average number of large basis fcns per batch ...    78.95 (82.14%)
Maximum spatial batch extension              ...  15.43, 14.94, 16.38 au
Average spatial batch extension              ...   0.24,  0.26,  0.26 au

Final grid set up in    0.4 sec
Final integration                            ... done (   0.6 sec)
Change in XC energy                          ...    -0.000196410
Integrated number of electrons               ...    17.999991935
Previous integrated no of electrons          ...    18.002594022

----------------
TOTAL SCF ENERGY
----------------

Total Energy       :         -115.72391820 Eh           -3149.00791 eV

Components:
Nuclear Repulsion  :           39.82115610 Eh            1083.58875 eV
Electronic Energy  :         -155.54507430 Eh           -4232.59665 eV
One Electron Energy:         -236.05319632 Eh           -6423.33403 eV
Two Electron Energy:           80.50812202 Eh            2190.73738 eV

Virial components:
Potential Energy   :         -230.81940544 Eh           -6280.91534 eV
Kinetic Energy     :          115.09548723 Eh            3131.90743 eV
Virial Ratio       :            2.00546008


DFT components:
N(Alpha)           :        8.999995967566 electrons
N(Beta)            :        8.999995967566 electrons
N(Total)           :       17.999991935132 electrons
E(XC)              :      -10.622270851786 Eh       
DFET-embed. en.    :        0.000000000000 Eh       

---------------
SCF CONVERGENCE
---------------

  Last Energy change         ...   -2.9458e-09  Tolerance :   1.0000e-08
  Last MAX-Density change    ...    4.5982e-06  Tolerance :   1.0000e-07
  Last RMS-Density change    ...    1.1440e-07  Tolerance :   5.0000e-09
  Last Orbital Gradient      ...    1.9395e-06  Tolerance :   1.0000e-05
  Last Orbital Rotation      ...    3.3793e-06  Tolerance :   1.0000e-05

             **** THE GBW FILE WAS UPDATED (2-97_DFT_A.gbw) ****
             **** DENSITY FILE WAS UPDATED (2-97_DFT_A.scfp.tmp) ****
             **** ENERGY FILE WAS UPDATED (2-97_DFT_A.en.tmp) ****
----------------
ORBITAL ENERGIES
----------------

  NO   OCC          E(Eh)            E(eV) 
   0   2.0000     -19.228118      -523.2237 
   1   2.0000     -10.332022      -281.1486 
   2   2.0000      -1.139727       -31.0136 
   3   2.0000      -0.791954       -21.5502 
   4   2.0000      -0.610768       -16.6199 
   5   2.0000      -0.539791       -14.6885 
   6   2.0000      -0.525660       -14.3039 
   7   2.0000      -0.417275       -11.3546 
   8   2.0000      -0.378495       -10.2994 
   9   0.0000       0.076168         2.0726 
  10   0.0000       0.115908         3.1540 
  11   0.0000       0.144638         3.9358 
  12   0.0000       0.168721         4.5911 
  13   0.0000       0.178974         4.8701 
  14   0.0000       0.198136         5.3915 
  15   0.0000       0.201255         5.4764 
  16   0.0000       0.221223         6.0198 
  17   0.0000       0.237446         6.4612 
  18   0.0000       0.271444         7.3864 
  19   0.0000       0.313546         8.5320 
  20   0.0000       0.321144         8.7388 
  21   0.0000       0.332164         9.0387 
  22   0.0000       0.348179         9.4744 
  23   0.0000       0.393592        10.7102 
  24   0.0000       0.413333        11.2474 
  25   0.0000       0.444675        12.1002 
  26   0.0000       0.471742        12.8368 
  27   0.0000       0.503412        13.6985 
  28   0.0000       0.517883        14.0923 
  29   0.0000       0.527886        14.3645 
  30   0.0000       0.544494        14.8164 
  31   0.0000       0.550153        14.9704 
  32   0.0000       0.573611        15.6088 
  33   0.0000       0.596127        16.2214 
  34   0.0000       0.621715        16.9177 
  35   0.0000       0.656873        17.8744 
  36   0.0000       0.675593        18.3838 
  37   0.0000       0.713412        19.4129 
  38   0.0000       0.753005        20.4903 
  39   0.0000       0.788804        21.4644 
  40   0.0000       0.795972        21.6595 
  41   0.0000       0.846573        23.0364 
  42   0.0000       0.880319        23.9547 
  43   0.0000       0.921235        25.0681 
  44   0.0000       1.007955        27.4278 
  45   0.0000       1.039754        28.2932 
  46   0.0000       1.059113        28.8199 
  47   0.0000       1.104918        30.0664 
  48   0.0000       1.138822        30.9889 
  49   0.0000       1.159807        31.5599 
  50   0.0000       1.164902        31.6986 
  51   0.0000       1.200575        32.6693 
  52   0.0000       1.247119        33.9358 
  53   0.0000       1.349289        36.7160 
  54   0.0000       1.377189        37.4752 
  55   0.0000       1.401306        38.1315 
  56   0.0000       1.436918        39.1005 
  57   0.0000       1.480595        40.2890 
  58   0.0000       1.541155        41.9370 
  59   0.0000       1.563405        42.5424 
  60   0.0000       1.602199        43.5980 
  61   0.0000       1.616799        43.9953 
  62   0.0000       1.642423        44.6926 
  63   0.0000       1.669554        45.4309 
  64   0.0000       1.693824        46.0913 
  65   0.0000       1.754485        47.7420 
  66   0.0000       1.821362        49.5618 
  67   0.0000       1.901765        51.7497 
  68   0.0000       1.938571        52.7512 
  69   0.0000       1.963829        53.4385 
  70   0.0000       1.989275        54.1309 
  71   0.0000       2.041775        55.5595 
  72   0.0000       2.103687        57.2442 
  73   0.0000       2.120634        57.7054 
  74   0.0000       2.166972        58.9663 
  75   0.0000       2.197335        59.7925 
  76   0.0000       2.228261        60.6341 
  77   0.0000       2.255786        61.3831 
  78   0.0000       2.260880        61.5217 
  79   0.0000       2.286626        62.2223 
  80   0.0000       2.301907        62.6381 
  81   0.0000       2.328379        63.3584 
  82   0.0000       2.404146        65.4201 
  83   0.0000       2.421509        65.8926 
  84   0.0000       2.467120        67.1338 
  85   0.0000       2.511617        68.3446 
  86   0.0000       2.541204        69.1497 
  87   0.0000       2.553803        69.4925 
  88   0.0000       2.582108        70.2627 
  89   0.0000       2.608603        70.9837 
  90   0.0000       2.670437        72.6663 
  91   0.0000       2.686126        73.0932 
  92   0.0000       2.830513        77.0222 
  93   0.0000       2.837174        77.2034 
  94   0.0000       2.849375        77.5354 
  95   0.0000       2.904136        79.0256 
  96   0.0000       2.950835        80.2963 
  97   0.0000       2.959045        80.5197 
  98   0.0000       2.989345        81.3442 
  99   0.0000       3.079089        83.7863 
 100   0.0000       3.101961        84.4086 
 101   0.0000       3.151914        85.7679 
 102   0.0000       3.168377        86.2159 
 103   0.0000       3.211687        87.3944 
 104   0.0000       3.246053        88.3296 
 105   0.0000       3.312559        90.1393 
 106   0.0000       3.343299        90.9758 
 107   0.0000       3.394174        92.3602 
 108   0.0000       3.447501        93.8113 
 109   0.0000       3.458257        94.1039 
 110   0.0000       3.508594        95.4737 
 111   0.0000       3.568668        97.1084 
 112   0.0000       3.598782        97.9278 
 113   0.0000       3.628181        98.7278 
 114   0.0000       3.671632        99.9102 
 115   0.0000       3.705577       100.8339 
 116   0.0000       3.742450       101.8372 
 117   0.0000       3.990451       108.5857 
 118   0.0000       4.011734       109.1648 
 119   0.0000       4.051563       110.2486 
 120   0.0000       4.133817       112.4869 
 121   0.0000       4.239992       115.3760 
 122   0.0000       4.242719       115.4503 
 123   0.0000       4.340031       118.0983 
 124   0.0000       4.350833       118.3922 
 125   0.0000       4.411220       120.0354 
 126   0.0000       4.502363       122.5155 
 127   0.0000       4.546107       123.7059 
 128   0.0000       4.578043       124.5749 
 129   0.0000       4.579591       124.6170 
 130   0.0000       4.599510       125.1590 
 131   0.0000       5.016211       136.4980 
 132   0.0000       5.049108       137.3932 
 133   0.0000       5.086185       138.4021 
 134   0.0000       5.334154       145.1497 
 135   0.0000       5.377517       146.3297 
 136   0.0000       5.389095       146.6447 
 137   0.0000       5.467389       148.7752 
 138   0.0000       5.595047       152.2490 
 139   0.0000       5.635657       153.3540 
 140   0.0000       5.791686       157.5998 
 141   0.0000       5.838559       158.8753 
 142   0.0000       5.900517       160.5612 
 143   0.0000       5.945059       161.7733 
 144   0.0000       5.956891       162.0952 
 145   0.0000       6.451878       175.5645 
 146   0.0000       6.523854       177.5231 
 147   0.0000       6.593974       179.4312 
 148   0.0000       6.662556       181.2974 
 149   0.0000       6.772683       184.2941 
 150   0.0000       6.794375       184.8843 
 151   0.0000       6.903772       187.8612 
 152   0.0000       7.036810       191.4813 
 153   0.0000       7.195447       195.7981 
 154   0.0000       7.242390       197.0755 
 155   0.0000       7.246584       197.1896 
 156   0.0000       7.443700       202.5534 
 157   0.0000       8.231340       223.9861 
 158   0.0000       8.888995       241.8818 
 159   0.0000       9.311252       253.3721 
 160   0.0000       9.541760       259.6445 
 161   0.0000       9.582880       260.7634 
 162   0.0000       9.778360       266.0827 
 163   0.0000       9.821261       267.2501 
 164   0.0000       9.937623       270.4165 
 165   0.0000      10.067073       273.9390 
[...]
  82   0.0000       2.384346        64.8814 
  83   0.0000       2.389346        65.0174 
  84   0.0000       2.495543        67.9072 
  85   0.0000       2.534423        68.9651 
  86   0.0000       2.566524        69.8387 
  87   0.0000       2.596692        70.6596 
  88   0.0000       2.608587        70.9833 
  89   0.0000       2.649813        72.1051 
  90   0.0000       2.705167        73.6113 
  91   0.0000       2.753339        74.9222 
  92   0.0000       2.810360        76.4738 
  93   0.0000       2.844088        77.3916 
  94   0.0000       2.850232        77.5587 
  95   0.0000       2.863075        77.9082 
  96   0.0000       2.956967        80.4632 
  97   0.0000       2.985120        81.2292 
  98   0.0000       2.992469        81.4292 
  99   0.0000       3.080573        83.8267 
 100   0.0000       3.086461        83.9869 
 101   0.0000       3.134439        85.2924 
 102   0.0000       3.149279        85.6962 
 103   0.0000       3.197831        87.0174 
 104   0.0000       3.211872        87.3995 
 105   0.0000       3.284053        89.3636 
 106   0.0000       3.351824        91.2078 
 107   0.0000       3.430855        93.3583 
 108   0.0000       3.488330        94.9223 
 109   0.0000       3.503357        95.3312 
 110   0.0000       3.508332        95.4666 
 111   0.0000       3.528580        96.0175 
 112   0.0000       3.569023        97.1180 
 113   0.0000       3.659755        99.5870 
 114   0.0000       3.667962        99.8103 
 115   0.0000       3.692106       100.4673 
 116   0.0000       3.734212       101.6131 
 117   0.0000       3.995454       108.7218 
 118   0.0000       4.067629       110.6858 
 119   0.0000       4.100805       111.5886 
 120   0.0000       4.237267       115.3019 
 121   0.0000       4.246362       115.5494 
 122   0.0000       4.288862       116.7059 
 123   0.0000       4.299322       116.9905 
 124   0.0000       4.319558       117.5411 
 125   0.0000       4.324930       117.6873 
 126   0.0000       4.525749       123.1519 
 127   0.0000       4.561018       124.1116 
 128   0.0000       4.576188       124.5244 
 129   0.0000       4.620836       125.7393 
 130   0.0000       4.631633       126.0331 
 131   0.0000       4.991872       135.8358 
 132   0.0000       5.015595       136.4813 
 133   0.0000       5.072230       138.0224 
 134   0.0000       5.339973       145.3081 
 135   0.0000       5.394184       146.7832 
 136   0.0000       5.402093       146.9984 
 137   0.0000       5.476938       149.0351 
 138   0.0000       5.587678       152.0485 
 139   0.0000       5.594061       152.2221 
 140   0.0000       5.679166       154.5380 
 141   0.0000       5.842182       158.9739 
 142   0.0000       5.868635       159.6937 
 143   0.0000       5.890648       160.2927 
 144   0.0000       5.989274       162.9764 
 145   0.0000       6.434773       175.0991 
 146   0.0000       6.516255       177.3163 
 147   0.0000       6.582135       179.1090 
 148   0.0000       6.662454       181.2946 
 149   0.0000       6.730084       183.1349 
 150   0.0000       6.795735       184.9214 
 151   0.0000       6.898989       187.7310 
 152   0.0000       7.027013       191.2148 
 153   0.0000       7.115781       193.6302 
 154   0.0000       7.182860       195.4556 
 155   0.0000       7.232041       196.7938 
 156   0.0000       7.389357       201.0746 
 157   0.0000       8.298763       225.8208 
 158   0.0000       8.890608       241.9257 
 159   0.0000       9.307282       253.2640 
 160   0.0000       9.549157       259.8458 
 161   0.0000       9.594621       261.0829 
 162   0.0000       9.770370       265.8653 
 163   0.0000       9.812095       267.0007 
 164   0.0000       9.927302       270.1356 
 165   0.0000       9.990412       271.8529 
 166   0.0000      11.069609       301.2194 
 167   0.0000      19.093421       519.5584 
 168   0.0000      22.387401       609.1922 
 169   0.0000      43.653898      1187.8830 
 170   0.0000      65.685406      1787.3908 
 171   0.0000     126.407166      3439.7139 

                    ********************************
                    * MULLIKEN POPULATION ANALYSIS *
                    ********************************

-----------------------
MULLIKEN ATOMIC CHARGES
-----------------------
   0 C :   -0.000750
   1 O :    0.000007
   2 H :   -0.000046
   3 H :   -0.000041
   4 H :    0.000045
   5 H :    0.001172
   6 C :   -0.174745
   7 O :   -0.467318
   8 H :    0.318143
   9 H :    0.096167
  10 H :    0.128132
  11 H :    0.099233
Sum of atomic charges:   -0.0000000

--------------------------------
MULLIKEN REDUCED ORBITAL CHARGES
--------------------------------
  0 C s       :     0.000473  s :     0.000473
      pz      :     0.000221  p :     0.000277
      px      :    -0.000004
      py      :     0.000060
      dz2     :    -0.000000  d :    -0.000001
      dxz     :    -0.000000
      dyz     :    -0.000001
      dx2y2   :     0.000001
      dxy     :     0.000000
      f0      :    -0.000000  f :    -0.000000
      f+1     :    -0.000000
      f-1     :     0.000000
      f+2     :    -0.000000
      f-2     :    -0.000000
      f+3     :     0.000000
      f-3     :    -0.000000
  1 O s       :    -0.000007  s :    -0.000007
      pz      :    -0.000006  p :    -0.000001
      px      :    -0.000002
      py      :     0.000007
      dz2     :     0.000000  d :     0.000000
      dxz     :     0.000000
      dyz     :     0.000000
      dx2y2   :    -0.000000
      dxy     :     0.000000
      f0      :     0.000000  f :    -0.000000
      f+1     :    -0.000000
      f-1     :    -0.000000
      f+2     :    -0.000000
      f-2     :     0.000000
      f+3     :    -0.000000
      f-3     :    -0.000000
  2 H s       :     0.000046  s :     0.000046
      pz      :     0.000000  p :     0.000000
      px      :    -0.000000
      py      :     0.000000
  3 H s       :     0.000041  s :     0.000041
      pz      :     0.000000  p :     0.000000
      px      :    -0.000000
      py      :     0.000000
  4 H s       :    -0.000045  s :    -0.000045
      pz      :    -0.000000  p :    -0.000000
      px      :    -0.000000
      py      :     0.000000
  5 H s       :    -0.001172  s :    -0.001172
      pz      :    -0.000000  p :    -0.000000
      px      :     0.000000
      py      :     0.000000
  6 C s       :     3.213561  s :     3.213561
      pz      :     0.901192  p :     2.850675
      px      :     0.903670
      py      :     1.045813
      dz2     :     0.039169  d :     0.102729
      dxz     :     0.009824
      dyz     :     0.011723
      dx2y2   :     0.031587
      dxy     :     0.010426
      f0      :     0.001200  f :     0.007781
      f+1     :     0.001806
      f-1     :     0.000926
      f+2     :     0.001459
      f-2     :     0.000918
      f+3     :     0.000562
      f-3     :     0.000911
  7 O s       :     3.774519  s :     3.774519
      pz      :     1.642746  p :     4.661698
      px      :     1.672283
      py      :     1.346668
      dz2     :     0.005958  d :     0.029302
      dxz     :     0.007270
      dyz     :     0.002525
      dx2y2   :     0.009616
      dxy     :     0.003933
      f0      :     0.000223  f :     0.001800
      f+1     :     0.000257
      f-1     :     0.000284
      f+2     :     0.000280
      f-2     :     0.000270
      f+3     :     0.000151
      f-3     :     0.000335
  8 H s       :     0.631092  s :     0.631092
      pz      :     0.015983  p :     0.050765
      px      :     0.014906
      py      :     0.019876
  9 H s       :     0.884456  s :     0.884456
      pz      :     0.003469  p :     0.019377
      px      :     0.011612
      py      :     0.004295
 10 H s       :     0.851199  s :     0.851199
      pz      :     0.003723  p :     0.020669
      px      :     0.003997
      py      :     0.012950
 11 H s       :     0.881117  s :     0.881117
      pz      :     0.011702  p :     0.019650
      px      :     0.003597
      py      :     0.004350


                     *******************************
                     * LOEWDIN POPULATION ANALYSIS *
                     *******************************

----------------------
LOEWDIN ATOMIC CHARGES
----------------------
   0 C :   -0.000932
   1 O :   -0.000006
   2 H :   -0.000103
   3 H :   -0.000021
   4 H :   -0.000003
   5 H :   -0.002407
   6 C :   -0.413272
   7 O :   -0.044092
   8 H :    0.156575
   9 H :    0.097190
  10 H :    0.111368
  11 H :    0.095703

-------------------------------
LOEWDIN REDUCED ORBITAL CHARGES
-------------------------------
  0 C s       :     0.000084  s :     0.000084
      pz      :     0.000080  p :     0.000834
      px      :     0.000002
      py      :     0.000752
      dz2     :     0.000004  d :     0.000013
      dxz     :     0.000000
      dyz     :     0.000003
      dx2y2   :     0.000006
      dxy     :     0.000000
      f0      :     0.000000  f :     0.000000
      f+1     :     0.000000
      f-1     :     0.000000
      f+2     :     0.000000
      f-2     :     0.000000
      f+3     :     0.000000
      f-3     :     0.000000
  1 O s       :     0.000004  s :     0.000004
      pz      :     0.000000  p :     0.000002
      px      :     0.000001
      py      :     0.000001
      dz2     :     0.000000  d :     0.000000
      dxz     :     0.000000
      dyz     :     0.000000
      dx2y2   :     0.000000
      dxy     :     0.000000
      f0      :     0.000000  f :     0.000000
      f+1     :     0.000000
      f-1     :     0.000000
      f+2     :     0.000000
      f-2     :     0.000000
      f+3     :     0.000000
      f-3     :     0.000000
  2 H s       :     0.000103  s :     0.000103
      pz      :     0.000000  p :     0.000000
      px      :     0.000000
      py      :     0.000000
  3 H s       :     0.000020  s :     0.000020
      pz      :     0.000000  p :     0.000001
      px      :     0.000000
      py      :     0.000000
  4 H s       :     0.000002  s :     0.000002
      pz      :     0.000000  p :     0.000001
      px      :     0.000000
      py      :     0.000001
  5 H s       :     0.002385  s :     0.002385
      pz      :     0.000000  p :     0.000022
      px      :     0.000000
      py      :     0.000022
  6 C s       :     2.854517  s :     2.854517
      pz      :     0.996580  p :     3.071521
      px      :     0.997555
      py      :     1.077386
      dz2     :     0.157699  d :     0.430741
      dxz     :     0.068903
      dyz     :     0.044485
      dx2y2   :     0.121552
      dxy     :     0.038102
      f0      :     0.006701  f :     0.056493
      f+1     :     0.011161
      f-1     :     0.008170
      f+2     :     0.010096
      f-2     :     0.009447
      f+3     :     0.004334
      f-3     :     0.006584
  7 O s       :     3.337262  s :     3.337262
      pz      :     1.614052  p :     4.630283
      px      :     1.651301
      py      :     1.364930
      dz2     :     0.015661  d :     0.071890
      dxz     :     0.014749
      dyz     :     0.009385
      dx2y2   :     0.023140
      dxy     :     0.008955
      f0      :     0.000576  f :     0.004657
      f+1     :     0.000783
      f-1     :     0.000613
      f+2     :     0.000640
      f-2     :     0.000716
      f+3     :     0.000545
      f-3     :     0.000783
  8 H s       :     0.674201  s :     0.674201
      pz      :     0.043074  p :     0.169224
      px      :     0.044196
      py      :     0.081954
  9 H s       :     0.845229  s :     0.845229
      pz      :     0.010836  p :     0.057581
      px      :     0.033693
      py      :     0.013053
 10 H s       :     0.828372  s :     0.828372
      pz      :     0.011115  p :     0.060261
      px      :     0.011659
      py      :     0.037487
 11 H s       :     0.845281  s :     0.845281
      pz      :     0.034178  p :     0.059017
      px      :     0.010958
      py      :     0.013881


                      *****************************
                      * MAYER POPULATION ANALYSIS *
                      *****************************

  NA   - Mulliken gross atomic population
  ZA   - Total nuclear charge
  QA   - Mulliken gross atomic charge
  VA   - Mayer's total valence
  BVA  - Mayer's bonded valence
  FA   - Mayer's free valence

  ATOM       NA         ZA         QA         VA         BVA        FA
  0 C      0.0007     0.0000    -0.0007     0.0015     0.0015    -0.0000
  1 O     -0.0000     0.0000     0.0000    -0.0000    -0.0000    -0.0000
  2 H      0.0000     0.0000    -0.0000     0.0001     0.0001    -0.0000
  3 H      0.0000     0.0000    -0.0000     0.0001     0.0001    -0.0000
  4 H     -0.0000     0.0000     0.0000    -0.0001    -0.0001     0.0000
  5 H     -0.0012     0.0000     0.0012    -0.0023    -0.0023     0.0000
  6 C      6.1747     6.0000    -0.1747     3.9475     3.9475    -0.0000
  7 O      8.4673     8.0000    -0.4673     1.9117     1.9117    -0.0000
  8 H      0.6819     1.0000     0.3181     0.9131     0.9131    -0.0000
  9 H      0.9038     1.0000     0.0962     0.9546     0.9546     0.0000
 10 H      0.8719     1.0000     0.1281     0.9474     0.9474    -0.0000
 11 H      0.9008     1.0000     0.0992     0.9523     0.9523    -0.0000

  Mayer bond orders larger than 0.1
B(  6-C ,  7-O ) :   1.0157 B(  6-C ,  9-H ) :   0.9772 B(  6-C , 10-H ) :   0.9714 
B(  6-C , 11-H ) :   0.9709 B(  7-O ,  8-H ) :   0.8968 

-------
TIMINGS
-------

Total SCF time: 0 days 0 hours 1 min 31 sec 

Total time                  ....      91.736 sec
Sum of individual times     ....      87.131 sec  ( 95.0%)

Fock matrix formation       ....      81.071 sec  ( 88.4%)
  XC integration            ....      66.605 sec  ( 82.2% of F)
    Basis function eval.    ....       0.055 sec  (  0.1% of XC)
    Density eval.           ....       0.579 sec  (  0.9% of XC)
    XC-Functional eval.     ....       0.387 sec  (  0.6% of XC)
    XC-Potential eval.      ....       0.054 sec  (  0.1% of XC)
Diagonalization             ....       1.585 sec  (  1.7%)
Density matrix formation    ....       0.011 sec  (  0.0%)
Population analysis         ....       0.722 sec  (  0.8%)
Initial guess               ....       0.723 sec  (  0.8%)
Orbital Transformation      ....       0.000 sec  (  0.0%)
Orbital Orthonormalization  ....       0.000 sec  (  0.0%)
DIIS solution               ....       0.398 sec  (  0.4%)
SOSCF solution              ....       0.474 sec  (  0.5%)
Grid generation             ....       2.147 sec  (  2.3%)


-------------------------------------------------------------------------------
                          DFT DISPERSION CORRECTION                            
                                                                               
                              DFTD3 V3.1  Rev 1                                
                              USING zero damping                               
-------------------------------------------------------------------------------
The omegaB97X-D3 functional is recognized. Fit by Chai et al.
Active option DFTDOPT                   ...         3   

molecular C6(AA) [au] = 208.778252 


            DFT-D V3
 parameters
 s6 scaling factor         :     1.0000 
 rs6 scaling factor        :     1.2810 
 s8 scaling factor         :     1.0000 
 rs8 scaling factor        :     1.0940 
 Damping factor alpha6     :    14.0000 
 Damping factor alpha8     :    16.0000 
 ad hoc parameters k1-k3   :    16.0000     1.3333    -4.0000 

 Edisp/kcal,au: -0.180300876240  -0.000287327705 
 E6   /kcal   :  -0.037448455 
 E8   /kcal   :  -0.142852422 
 % E8         :  79.230020693 

-------------------------   ----------------
Dispersion correction           -0.000287328
-------------------------   ----------------


-------------------------   --------------------
FINAL SINGLE POINT ENERGY      -115.729809564931
-------------------------   --------------------


                            ***************************************
                            *     ORCA property calculations      *
                            ***************************************

                                    ---------------------
                                    Active property flags
                                    ---------------------
   (+) Dipole Moment


------------------------------------------------------------------------------
                       ORCA ELECTRIC PROPERTIES CALCULATION
------------------------------------------------------------------------------

Dipole Moment Calculation                       ... on
Quadrupole Moment Calculation                   ... off
Polarizability Calculation                      ... off
GBWName                                         ... 2-97_DFT_B.gbw
Electron density file                           ... 2-97_DFT_B.scfp.tmp
The origin for moment calculation is the CENTER OF MASS  = (19.863776, -10.694177 -2.319154)

-------------
DIPOLE MOMENT
-------------
                                X             Y             Z
Electronic contribution:      1.44804      -0.66223       1.37217
Nuclear contribution   :     -1.88792       0.27150      -1.61316
                        -----------------------------------------
Total Dipole Moment    :     -0.43988      -0.39073      -0.24098
                        -----------------------------------------
Magnitude (a.u.)       :      0.63579
Magnitude (Debye)      :      1.61606



--------------------
Rotational spectrum 
--------------------
 
Rotational constants in cm-1:     4.644494     0.814228     0.787993 
Rotational constants in MHz : 139238.418826 24409.932862 23623.439260 

 Dipole components along the rotational axes: 
x,y,z [a.u.] :     0.267363     0.574515     0.051802 
x,y,z [Debye]:     0.679584     1.460302     0.131670 

 
------------------------------------------------------------------------------
                      ORCA CHELPG CHARGES GENERATION
------------------------------------------------------------------------------

GBW file                           ... 2-97_DFT_B.gbw

Reading the GBW file               ... done

Grid spacing                       ...     0.300000
Point Cut-Off                      ...     2.800000
Van-der-Waals Radii                ...        COSMO
Total charge                       ...            0


Number of points X direction       ...           27
Number of points Y direction       ...           41
Number of points Z direction       ...           29
Maximum number of possible points  ...        32103
Final number of points             ...         5985


CHELPG Charges            
--------------------------------
  0   C   :       0.024854
  1   O   :      -0.033762
  2   H   :       0.001529
  3   H   :      -0.029675
  4   H   :       0.029161
  5   H   :      -0.002909
  6   C   :       0.097007
  7   O   :      -0.623498
  8   H   :       0.426097
  9   H   :       0.004794
 10   H   :       0.087278
 11   H   :       0.019124
--------------------------------
Total charge:     0.000000
--------------------------------

CHELPG charges calculated...

Timings for individual parts in CHELPG calculation:
Grid generation                 ...        0.001 sec (=   0.000 min)
Potential calculation           ...        1.057 sec (=   0.018 min)
Fit to the potential            ...        0.002 sec (=   0.000 min)
------------------------------------------------------------------------------


Timings for individual modules:

Sum of individual times         ...       94.788 sec (=   1.580 min)
GTO integral calculation        ...        1.030 sec (=   0.017 min)   1.1 %
SCF iterations                  ...       92.477 sec (=   1.541 min)  97.6 %
CHELPG charge generation        ...        1.281 sec (=   0.021 min)   1.4 %



                             ****ORCA TERMINATED NORMALLY****
TOTAL RUN TIME: 0 days 0 hours 6 minutes 10 seconds 397 msec
