
                                 *****************
                                 * O   R   C   A *
                                 *****************

           --- An Ab Initio, DFT and Semiempirical electronic structure package ---

                  #######################################################
                  #                        -***-                        #
                  #          Department of theory and spectroscopy      #
                  #               Directorship: Frank Neese             #
                  #        Max Planck Institute fuer Kohlenforschung    #
                  #                Kaiser Wilhelm Platz 1               #
                  #                 D-45470 Muelheim/Ruhr               #
                  #                      Germany                        #
                  #                                                     #
                  #                  All rights reserved                #
                  #                        -***-                        #
                  #######################################################


                         Program Version 4.1.2  - RELEASE  -


 With contributions from (in alphabetic order):
   Daniel Aravena         : Magnetic Properties
   Michael Atanasov       : Ab Initio Ligand Field Theory
   Alexander A. Auer      : GIAO ZORA
   Ute Becker             : Parallelization
   Giovanni Bistoni       : ED, Open-shell LED
   Martin Brehm           : Molecular dynamics
   Dmytro Bykov           : SCF Hessian
   Vijay G. Chilkuri      : MRCI spin determinant printing
   Dipayan Datta          : RHF DLPNO-CCSD density
   Achintya Kumar Dutta   : EOM-CC, STEOM-CC
   Dmitry Ganyushin       : Spin-Orbit,Spin-Spin,Magnetic field MRCI
   Miquel Garcia          : C-PCM Hessian
   Yang Guo               : DLPNO-NEVPT2, CIM, IAO-localization
   Andreas Hansen         : Spin unrestricted coupled pair/coupled cluster methods
   Benjamin Helmich-Paris : CASSCF linear response (MC-RPA)
   Lee Huntington         : MR-EOM, pCC
   Robert Izsak           : Overlap fitted RIJCOSX, COSX-SCS-MP3, EOM
   Christian Kollmar      : KDIIS, OOCD, Brueckner-CCSD(T), CCSD density
   Simone Kossmann        : Meta GGA functionals, TD-DFT gradient, OOMP2, MP2 Hessian
   Martin Krupicka        : AUTO-CI
   Lucas Lang             : DCDCAS
   Dagmar Lenk            : GEPOL surface, SMD
   Dimitrios Liakos       : Extrapolation schemes; parallel MDCI
   Dimitrios Manganas     : ROCIS; embedding schemes
   Dimitrios Pantazis     : SARC Basis sets
   Taras Petrenko         : DFT Hessian,TD-DFT gradient, ASA, ECA, R-Raman, ABS, FL, XAS/XES, NRVS
   Peter Pinski           : DLPNO-MP2, DLPNO-MP2 Gradient
   Christoph Reimann      : Effective Core Potentials
   Marius Retegan         : Local ZFS, SOC
   Christoph Riplinger    : Optimizer, TS searches, QM/MM, DLPNO-CCSD(T), (RO)-DLPNO pert. Triples
   Tobias Risthaus        : Range-separated hybrids, TD-DFT gradient, RPA, STAB
   Michael Roemelt        : Restricted open shell CIS
   Masaaki Saitow         : Open-shell DLPNO
   Barbara Sandhoefer     : DKH picture change effects
   Avijit Sen             : IP-ROCIS
   Kantharuban Sivalingam : CASSCF convergence, NEVPT2, FIC-MRCI
   Bernardo de Souza      : ESD, SOC TD-DFT
   Georgi Stoychev        : AutoAux, RI-MP2 NMR
   Willem Van den Heuvel  : Paramagnetic NMR
   Boris Wezisla          : Elementary symmetry handling
   Frank Wennmohs         : Technical directorship


 We gratefully acknowledge several colleagues who have allowed us to
 interface, adapt or use parts of their codes:
   Stefan Grimme, W. Hujo, H. Kruse,             : VdW corrections, initial TS optimization,
                  C. Bannwarth                     DFT functionals, gCP, sTDA/sTD-DF
   Ed Valeev                                     : LibInt (2-el integral package), F12 methods
   Garnet Chan, S. Sharma, J. Yang, R. Olivares  : DMRG
   Ulf Ekstrom                                   : XCFun DFT Library
   Mihaly Kallay                                 : mrcc  (arbitrary order and MRCC methods)
   Andreas Klamt, Michael Diedenhofen            : otool_cosmo (COSMO solvation model)
   Jiri Pittner, Ondrej Demel                    : Mk-CCSD
   Frank Weinhold                                : gennbo (NPA and NBO analysis)
   Christopher J. Cramer and Donald G. Truhlar   : smd solvation model
   Lars Goerigk                                  : TD-DFT with DH, B97 family of functionals
   V. Asgeirsson, H. Jonsson                     : NEB implementation
   FAccTs GmbH                                   : IRC, NEB, NEB-TS, Multilevel


 Your calculation uses the libint2 library for the computation of 2-el integrals
 For citations please refer to: http://libint.valeyev.net

 This ORCA versions uses:
   CBLAS   interface :  Fast vector & matrix operations
   LAPACKE interface :  Fast linear algebra routines
   SCALAPACK package :  Parallel linear algebra routines


Your calculation utilizes the atom-pairwise dispersion correction
with the zero-damping scheme (D30)
Cite in your paper:
S.Grimme, J.Antony, S.Ehrlich and H.Krieg, J.Chem.Phys., 132, (2010), 154104 
   

XCFun DFT library Copyright 2009-2010 Ulf Ekstrom and contributors.
See http://admol.org/xcfun for more information. This is free soft-
ware; see the source code for copying conditions. There is ABSOLUTELY
NO WARRANTY; not even for MERCHANTABILITY or FITNESS FOR A PARTICULAR
PURPOSE. For details see the documentation. Scientific users of this 
library should cite U. Ekstrom, L. Visscher, R. Bast, A. J. Thorvald-
sen and K. Ruud; J.Chem.Theor.Comp. 2010, DOI: 10.1021/ct100117s
XCFun Version 0.99 
----- Orbital basis set information -----
Your calculation utilizes the basis: def2-TZVP
   F. Weigend and R. Ahlrichs, Phys. Chem. Chem. Phys. 7, 3297 (2005).

================================================================================
                                        WARNINGS
                       Please study these warnings very carefully!
================================================================================


INFO   : the flag for use of LIBINT has been found!

Your calculation utilizes the atom-pairwise dispersion correction
with the zero-damping scheme (D30)
Cite in your paper:
S.Grimme, J.Antony, S.Ehrlich and H.Krieg, J.Chem.Phys., 132, (2010), 154104 
   

XCFun DFT library Copyright 2009-2010 Ulf Ekstrom and contributors.
See http://admol.org/xcfun for more information. This is free soft-
ware; see the source code for copying conditions. There is ABSOLUTELY
NO WARRANTY; not even for MERCHANTABILITY or FITNESS FOR A PARTICULAR
PURPOSE. For details see the documentation. Scientific users of this 
library should cite U. Ekstrom, L. Visscher, R. Bast, A. J. Thorvald-
sen and K. Ruud; J.Chem.Theor.Comp. 2010, DOI: 10.1021/ct100117s
XCFun Version 0.99 
----- Orbital basis set information -----
Your calculation utilizes the basis: def2-TZVP
   F. Weigend and R. Ahlrichs, Phys. Chem. Chem. Phys. 7, 3297 (2005).

================================================================================
                                        WARNINGS
                       Please study these warnings very carefully!
================================================================================


WARNING: MOInp is set but Guess=PModel. MOInp will be ignored!
         To read the initial guess from a file you must also specify
         'MORead' in the simple input or 'Guess MORead' in the %scf block


INFO   : the flag for use of LIBINT has been found!

Your calculation utilizes the atom-pairwise dispersion correction
with the zero-damping scheme (D30)
Cite in your paper:
S.Grimme, J.Antony, S.Ehrlich and H.Krieg, J.Chem.Phys., 132, (2010), 154104 
   

XCFun DFT library Copyright 2009-2010 Ulf Ekstrom and contributors.
See http://admol.org/xcfun for more information. This is free soft-
ware; see the source code for copying conditions. There is ABSOLUTELY
NO WARRANTY; not even for MERCHANTABILITY or FITNESS FOR A PARTICULAR
PURPOSE. For details see the documentation. Scientific users of this 
library should cite U. Ekstrom, L. Visscher, R. Bast, A. J. Thorvald-
sen and K. Ruud; J.Chem.Theor.Comp. 2010, DOI: 10.1021/ct100117s
XCFun Version 0.99 
----- Orbital basis set information -----
Your calculation utilizes the basis: def2-TZVP
   F. Weigend and R. Ahlrichs, Phys. Chem. Chem. Phys. 7, 3297 (2005).

================================================================================
                                        WARNINGS
                       Please study these warnings very carefully!
================================================================================


WARNING: MOInp is set but Guess=PModel. MOInp will be ignored!
         To read the initial guess from a file you must also specify
         'MORead' in the simple input or 'Guess MORead' in the %scf block


INFO   : the flag for use of LIBINT has been found!

================================================================================
                                       INPUT FILE
================================================================================
NAME = 22-139.in
|  1> #Run DFT-D3 single point of the dimer
|  2> ! wB97X-D3 def2-TZVP TIGHTSCF CHELPG PMODEL PAL8
|  3> 
|  4> %base "22-139_DFT_AB"
|  5> 
|  6> %scf
|  7> MaxIter 1000
|  8> end
|  9> 
| 10> * xyz 0 1
| 11>   C                      0.527698             1.859503             9.663229            
| 12>   O                      0.594535             0.604207             10.339565           
| 13>   H                      1.417129             0.142972             9.950281            
| 14>   H                      0.246686             1.908735             8.587147            
| 15>   H                      -0.322910            2.327679             10.124349           
| 16>   H                      1.373423             2.534069             9.816187            
| 17>   C                      3.964316             3.347006             8.560207            
| 18>   O                      2.798326             3.703831             7.869844            
| 19>   H                      2.181258             4.153824             8.473695            
| 20>   H                      4.313658             4.116674             9.230770            
| 21>   H                      3.796506             2.467997             9.113621            
| 22>   H                      4.797698             3.092619             7.910218            
| 23> *
| 24> 
| 25> #Run DFT-D3 single point of the molecule with dimer basis set
| 26> $new_job
| 27> %base "22-139_DFT_A"
| 28> ! wB97X-D3 def2-TZVP TIGHTSCF CHELPG PMODEL
| 29> 
| 30> %scf
| 31> MaxIter 1000
| 32> end
| 33> 
| 34> * xyz 0 1
| 35>   C                      0.527698             1.859503             9.663229            
| 36>   O                      0.594535             0.604207             10.339565           
| 37>   H                      1.417129             0.142972             9.950281            
| 38>   H                      0.246686             1.908735             8.587147            
| 39>   H                      -0.322910            2.327679             10.124349           
| 40>   H                      1.373423             2.534069             9.816187            
| 41>   C                    : 3.964316             3.347006             8.560207            
| 42>   O                    : 2.798326             3.703831             7.869844            
| 43>   H                    : 2.181258             4.153824             8.473695            
| 44>   H                    : 4.313658             4.116674             9.230770            
| 45>   H                    : 3.796506             2.467997             9.113621            
| 46>   H                    : 4.797698             3.092619             7.910218            
| 47> *
| 48> 
| 49> #Run DFT-D3 single point of the particle with dimer basis set
| 50> $new_job
| 51> %base "22-139_DFT_B"
| 52> ! wB97X-D3 def2-TZVP TIGHTSCF CHELPG PMODEL
| 53> 
| 54> %scf
| 55> MaxIter 1000
| 56> end
| 57> 
| 58> * xyz 0 1
| 59>   C                    : 0.527698             1.859503             9.663229            
| 60>   O                    : 0.594535             0.604207             10.339565           
| 61>   H                    : 1.417129             0.142972             9.950281            
| 62>   H                    : 0.246686             1.908735             8.587147            
| 63>   H                    : -0.322910            2.327679             10.124349           
| 64>   H                    : 1.373423             2.534069             9.816187            
| 65>   C                      3.964316             3.347006             8.560207            
| 66>   O                      2.798326             3.703831             7.869844            
| 67>   H                      2.181258             4.153824             8.473695            
| 68>   H                      4.313658             4.116674             9.230770            
| 69>   H                      3.796506             2.467997             9.113621            
| 70>   H                      4.797698             3.092619             7.910218            
| 71> *
| 72> 
| 73>                          ****END OF INPUT****
================================================================================


                 $$$$$$$$$$$$$$$$$$$$$$$$$$$$$$$$$$$$$$$$$$$$$$ 
                 $ THERE ARE  3 JOBS TO BE PROCESSED THIS RUN $
                 $$$$$$$$$$$$$$$$$$$$$$$$$$$$$$$$$$$$$$$$$$$$$$ 




                 $$$$$$$$$$$$$$$$  JOB NUMBER  1 $$$$$$$$$$$$$$


                       ****************************
                       * Single Point Calculation *
                       ****************************

---------------------------------
CARTESIAN COORDINATES (ANGSTROEM)
---------------------------------
  C      0.527698    1.859503    9.663229
  O      0.594535    0.604207   10.339565
  H      1.417129    0.142972    9.950281
  H      0.246686    1.908735    8.587147
  H     -0.322910    2.327679   10.124349
  H      1.373423    2.534069    9.816187
  C      3.964316    3.347006    8.560207
  O      2.798326    3.703831    7.869844
  H      2.181258    4.153824    8.473695
  H      4.313658    4.116674    9.230770
  H      3.796506    2.467997    9.113621
  H      4.797698    3.092619    7.910218

----------------------------
CARTESIAN COORDINATES (A.U.)
----------------------------
  NO LB      ZA    FRAG     MASS         X           Y           Z
   0 C     6.0000    0    12.011    0.997205    3.513951   18.260856
   1 O     8.0000    0    15.999    1.123508    1.141786   19.538946
   2 H     1.0000    0     1.008    2.677986    0.270178   18.803306
   3 H     1.0000    0     1.008    0.466169    3.606986   16.227356
   4 H     1.0000    0     1.008   -0.610211    4.398676   19.132247
   5 H     1.0000    0     1.008    2.595393    4.788696   18.549905
   6 C     6.0000    0    12.011    7.491472    6.324925   16.176447
   7 O     8.0000    0    15.999    5.288070    6.999226   14.871850
   8 H     1.0000    0     1.008    4.121980    7.849590   16.012963
   9 H     1.0000    0     1.008    8.151632    7.779386   17.443627
  10 H     1.0000    0     1.008    7.174357    4.663838   17.222248
  11 H     1.0000    0     1.008    9.066335    5.844203   14.948146

--------------------------------
INTERNAL COORDINATES (ANGSTROEM)
--------------------------------
 C      0   0   0     0.000000000000     0.00000000     0.00000000
 O      1   0   0     1.427468254316     0.00000000     0.00000000
 H      2   1   0     1.020264988479   104.74504316     0.00000000
 H      1   2   3     1.113258283011   120.57642907    70.73024789
 H      1   2   3     1.074874127998   102.52240140   182.07758267
 H      1   2   3     1.092559478356   116.12769068   297.70392929
 C      6   1   2     2.991835367098   141.19952943    95.51871757
 O      7   6   1     1.401234395986    63.60351667    68.09502029
 H      8   7   6     0.973602920535   109.84757514    50.78258773
 H      7   6   1     1.078926967017   102.31688709   178.08314466
 H      7   6   1     1.052180627828    54.13230327   282.39520448
 H      7   6   1     1.087071296564   148.35537978   335.11278838

---------------------------
INTERNAL COORDINATES (A.U.)
---------------------------
 C      0   0   0     0.000000000000     0.00000000     0.00000000
 O      1   0   0     2.697524065525     0.00000000     0.00000000
 H      2   1   0     1.928021412255   104.74504316     0.00000000
 H      1   2   3     2.103753271210   120.57642907    70.73024789
 H      1   2   3     2.031217730354   102.52240140   182.07758267
 H      1   2   3     2.064638199112   116.12769068   297.70392929
 C      6   1   2     5.653749481595   141.19952943    95.51871757
 O      7   6   1     2.647949257844    63.60351667    68.09502029
 H      8   7   6     1.839842882997   109.84757514    50.78258773
 H      7   6   1     2.038876486165   102.31688709   178.08314466
 H      7   6   1     1.988333230013    54.13230327   282.39520448
 H      7   6   1     2.054267038553   148.35537978   335.11278838

---------------------
BASIS SET INFORMATION
---------------------
There are 3 groups of distinct atoms

 Group   1 Type C   : 11s6p2d1f contracted to 5s3p2d1f pattern {62111/411/11/1}
 Group   2 Type O   : 11s6p2d1f contracted to 5s3p2d1f pattern {62111/411/11/1}
 Group   3 Type H   : 5s1p contracted to 3s1p pattern {311/1}

Atom   0C    basis set group =>   1
Atom   1O    basis set group =>   2
Atom   2H    basis set group =>   3
Atom   3H    basis set group =>   3
Atom   4H    basis set group =>   3
Atom   5H    basis set group =>   3
Atom   6C    basis set group =>   1
Atom   7O    basis set group =>   2
Atom   8H    basis set group =>   3
Atom   9H    basis set group =>   3
Atom  10H    basis set group =>   3
Atom  11H    basis set group =>   3


           ************************************************************
           *        Program running with 8 parallel MPI-processes     *
           *              working on a common directory               *
           ************************************************************
------------------------------------------------------------------------------
                           ORCA GTO INTEGRAL CALCULATION
------------------------------------------------------------------------------

                         BASIS SET STATISTICS AND STARTUP INFO

 # of primitive gaussian shells          ...  128
 # of primitive gaussian functions       ...  248
 # of contracted shells                  ...   76
 # of contracted basis functions         ...  172
 Highest angular momentum                ...    3
 Maximum contraction depth               ...    6
 Integral package used                   ... LIBINT
 Integral threshhold            Thresh   ...  2.500e-11
 Primitive cut-off              TCut     ...  2.500e-12


------------------------------ INTEGRAL EVALUATION ----------------------------


 * One electron integrals 
 Pre-screening matrix                    ... done
 Shell pair data                         ... done (   0.001 sec)



           ************************************************************
           *        Program running with 8 parallel MPI-processes     *
           *              working on a common directory               *
           ************************************************************
-------------------------------------------------------------------------------
                                 ORCA SCF
-------------------------------------------------------------------------------

------------
SCF SETTINGS
------------
Hamiltonian:
 Density Functional     Method          .... DFT(GTOs)
 Exchange Functional    Exchange        .... WB97X-D3
 Correlation Functional Correlation     .... WB97X-D3
 Gradients option       PostSCFGGA      .... off
 Hybrid DFT is turned on
   Fraction HF Exchange ScalHFX         ....  0.195728
   Scaling of DF-GGA-X  ScalDFX         ....  0.000000
   Scaling of DF-GGA-C  ScalDFC         ....  1.000000
   Scaling of DF-LDA-C  ScalLDAC        ....  1.000000
   Perturbative correction              ....  0.000000
   Density functional embedding theory  .... OFF
 Long-range corrected/Screened/Range-Separated Hybrid DFT is turned on
   Amount of maximum screened exact exchange              ....  0.804272
   Range separation parameter mu (erf(mu*r12)/r12)        ....  0.250000


General Settings:
 Integral files         IntName         .... 22-139_DFT_AB
 Hartree-Fock type      HFTyp           .... RHF
 Total Charge           Charge          ....    0
 Multiplicity           Mult            ....    1
 Number of Electrons    NEL             ....   36
 Basis Dimension        Dim             ....  172
 Nuclear Repulsion      ENuc            ....    123.1528834124 Eh

Convergence Acceleration:
 DIIS                   CNVDIIS         .... on
   Start iteration      DIISMaxIt       ....    12
   Startup error        DIISStart       ....  0.200000
   # of expansion vecs  DIISMaxEq       ....     5
   Bias factor          DIISBfac        ....   1.050
   Max. coefficient     DIISMaxC        ....  10.000
 Newton-Raphson         CNVNR           .... off
 SOSCF                  CNVSOSCF        .... on
   Start iteration      SOSCFMaxIt      ....   150
   Startup grad/error   SOSCFStart      ....  0.003300
 Level Shifting         CNVShift        .... on
   Level shift para.    LevelShift      ....    0.2500
   Turn off err/grad.   ShiftErr        ....    0.0010
 Zerner damping         CNVZerner       .... off
 Static damping         CNVDamp         .... on
   Fraction old density DampFac         ....    0.7000
   Max. Damping (<1)    DampMax         ....    0.9800
   Min. Damping (>=0)   DampMin         ....    0.0000
   Turn off err/grad.   DampErr         ....    0.1000
 Fernandez-Rico         CNVRico         .... off

SCF Procedure:
 Maximum # iterations   MaxIter         ....  1000
 SCF integral mode      SCFMode         .... Direct
   Integral package                     .... LIBINT
 Reset frequency        DirectResetFreq ....    20
 Integral Threshold     Thresh          ....  2.500e-11 Eh
 Primitive CutOff       TCut            ....  2.500e-12 Eh

Convergence Tolerance:
 Convergence Check Mode ConvCheckMode   .... Total+1el-Energy
 Convergence forced     ConvForced      .... 0
 Energy Change          TolE            ....  1.000e-08 Eh
 1-El. energy change                    ....  1.000e-05 Eh
 Orbital Gradient       TolG            ....  1.000e-05
 Orbital Rotation angle TolX            ....  1.000e-05
 DIIS Error             TolErr          ....  5.000e-07


Diagonalization of the overlap matrix:
Smallest eigenvalue                        ... 1.192e-03
Time for diagonalization                   ...    0.005 sec
Threshold for overlap eigenvalues          ... 1.000e-08
Number of eigenvalues below threshold      ... 0
Time for construction of square roots      ...    0.006 sec
Total time needed                          ...    0.011 sec

-------------------
DFT GRID GENERATION
-------------------

General Integration Accuracy     IntAcc      ...  4.340
Radial Grid Type                 RadialGrid  ... Gauss-Chebyshev
Angular Grid (max. acc.)         AngularGrid ... Lebedev-110
Angular grid pruning method      GridPruning ... 3 (G Style)
Weight generation scheme         WeightScheme... Becke
Basis function cutoff            BFCut       ...    1.0000e-11
Integration weight cutoff        WCut        ...    1.0000e-14
Grids for H and He will be reduced by one unit

# of grid points (after initial pruning)     ...  13096 (   0.0 sec)
# of grid points (after weights+screening)   ...  12505 (   0.0 sec)
nearest neighbour list constructed           ...    0.0 sec
Grid point re-assignment to atoms done       ...    0.0 sec
Grid point division into batches done        ...    0.0 sec
Reduced shell lists constructed in    0.0 sec

Total number of grid points                  ...    12505
Total number of batches                      ...      203
Average number of points per batch           ...       61
Average number of grid points per atom       ...     1042
Average number of shells per batch           ...    48.96 (64.42%)
Average number of basis functions per batch  ...   106.89 (62.14%)
Average number of large shells per batch     ...    40.11 (81.92%)
Average number of large basis fcns per batch ...    87.96 (82.29%)
Maximum spatial batch extension              ...  14.66, 16.81, 15.71 au
Average spatial batch extension              ...   0.42,  0.42,  0.39 au

Time for grid setup =    0.042 sec

------------------------------
INITIAL GUESS: MODEL POTENTIAL
------------------------------
Loading Hartree-Fock densities                     ... done
Calculating cut-offs                               ... done
Setting up the integral package                    ... done
Initializing the effective Hamiltonian             ... done
Starting the Coulomb interaction                   ... done (   0.0 sec)
Reading the grid                                   ... done
Mapping shells                                     ... done
Starting the XC term evaluation                    ... done (   0.0 sec)
  promolecular density results
     # of electrons  =     36.002582046
     EX              =    -28.857454179
     EC              =     -1.153930307
     EX+EC           =    -30.011384486
Transforming the Hamiltonian                       ... done (   0.0 sec)
Diagonalizing the Hamiltonian                      ... done (   0.0 sec)
Back transforming the eigenvectors                 ... done (   0.0 sec)
Now organizing SCF variables                       ... done
                      ------------------
                      INITIAL GUESS DONE (   0.2 sec)
                      ------------------
--------------
SCF ITERATIONS
--------------
ITER       Energy         Delta-E        Max-DP      RMS-DP      [F,P]     Damp
               ***  Starting incremental Fock matrix formation  ***
  0   -231.2919068660   0.000000000000 0.03598815  0.00105359  0.2401382 0.7000
  1   -231.3641469195  -0.072240053543 0.02123633  0.00075731  0.1190254 0.7000
                               ***Turning on DIIS***
  2   -231.3976090330  -0.033462113499 0.03044451  0.00138462  0.0453216 0.0000
  3   -231.4521950656  -0.054586032608 0.01760899  0.00050466  0.0589217 0.0000
  4   -231.4609840056  -0.008788939945 0.00404278  0.00010357  0.0061407 0.0000
                      *** Initiating the SOSCF procedure ***
                           *** Shutting down DIIS ***
                      *** Re-Reading the Fockian *** 
                      *** Removing any level shift *** 
ITER      Energy       Delta-E        Grad      Rot      Max-DP    RMS-DP
  5   -231.46117673  -0.0001927237  0.000448  0.000448  0.000981  0.000039
               *** Restarting incremental Fock matrix formation ***
  6   -231.46119436  -0.0000176350  0.000182  0.000214  0.000663  0.000024
  7   -231.46119610  -0.0000017318  0.000058  0.000122  0.000343  0.000012
  8   -231.46119621  -0.0000001139  0.000058  0.000035  0.000078  0.000002
  9   -231.46119629  -0.0000000778  0.000008  0.000009  0.000023  0.000001
                  ***Gradient check signals convergence***
              ***Rediagonalizing the Fockian in SOSCF/NRSCF***

               *****************************************************
               *                     SUCCESS                       *
               *           SCF CONVERGED AFTER  10 CYCLES          *
               *****************************************************

Setting up the final grid:

General Integration Accuracy     IntAcc      ...  4.670
Radial Grid Type                 RadialGrid  ... Gauss-Chebyshev
Angular Grid (max. acc.)         AngularGrid ... Lebedev-302
Angular grid pruning method      GridPruning ... 3 (G Style)
Weight generation scheme         WeightScheme... Becke
Basis function cutoff            BFCut       ...    1.0000e-11
Integration weight cutoff        WCut        ...    1.0000e-14
Grids for H and He will be reduced by one unit

# of grid points (after initial pruning)     ...  52000 (   0.0 sec)
# of grid points (after weights+screening)   ...  49058 (   0.0 sec)
nearest neighbour list constructed           ...    0.0 sec
Grid point re-assignment to atoms done       ...    0.0 sec
Grid point division into batches done        ...    0.2 sec
Reduced shell lists constructed in    0.2 sec

Total number of grid points                  ...    49058
Total number of batches                      ...      771
Average number of points per batch           ...       63
Average number of grid points per atom       ...     4088
Average number of shells per batch           ...    47.05 (61.91%)
Average number of basis functions per batch  ...   102.62 (59.66%)
Average number of large shells per batch     ...    37.59 (79.90%)
Average number of large basis fcns per batch ...    82.90 (80.78%)
Maximum spatial batch extension              ...  16.22, 17.93, 17.01 au
Average spatial batch extension              ...   0.28,  0.27,  0.27 au

Final grid set up in    0.3 sec
Final integration                            ... done (   0.1 sec)
Change in XC energy                          ...    -0.000555996
Integrated number of electrons               ...    36.000045838
Previous integrated no of electrons          ...    36.000973602

----------------
TOTAL SCF ENERGY
----------------

Total Energy       :         -231.46175229 Eh           -6298.39448 eV

Components:
Nuclear Repulsion  :          123.15288341 Eh            3351.16033 eV
Electronic Energy  :         -354.61463570 Eh           -9649.55481 eV
One Electron Energy:         -558.98956818 Eh          -15210.87946 eV
Two Electron Energy:          204.37493248 Eh            5561.32465 eV

Virial components:
Potential Energy   :         -461.91687804 Eh          -12569.39727 eV
Kinetic Energy     :          230.45512576 Eh            6271.00278 eV
Virial Ratio       :            2.00436799


DFT components:
N(Alpha)           :       18.000022918808 electrons
N(Beta)            :       18.000022918808 electrons
N(Total)           :       36.000045837616 electrons
E(XC)              :      -21.297484187083 Eh       
DFET-embed. en.    :        0.000000000000 Eh       

---------------
SCF CONVERGENCE
---------------

  Last Energy change         ...   -2.2216e-09  Tolerance :   1.0000e-08
  Last MAX-Density change    ...    7.1766e-06  Tolerance :   1.0000e-07
  Last RMS-Density change    ...    2.1577e-07  Tolerance :   5.0000e-09
  Last Orbital Gradient      ...    2.3558e-06  Tolerance :   1.0000e-05
  Last Orbital Rotation      ...    2.5514e-06  Tolerance :   1.0000e-05

             **** THE GBW FILE WAS UPDATED (22-139_DFT_AB.gbw) ****
             **** DENSITY FILE WAS UPDATED (22-139_DFT_AB.scfp.tmp) ****
             **** ENERGY FILE WAS UPDATED (22-139_DFT_AB.en.tmp) ****
----------------
ORBITAL ENERGIES
----------------

  NO   OCC          E(Eh)            E(eV) 
   0   2.0000     -19.243492      -523.6420 
   1   2.0000     -19.238453      -523.5049 
   2   2.0000     -10.313204      -280.6365 
   3   2.0000     -10.311542      -280.5913 
   4   2.0000      -1.144062       -31.1315 
   5   2.0000      -1.127088       -30.6696 
   6   2.0000      -0.807722       -21.9792 
   7   2.0000      -0.794935       -21.6313 
   8   2.0000      -0.622166       -16.9300 
   9   2.0000      -0.605285       -16.4707 
  10   2.0000      -0.555407       -15.1134 
  11   2.0000      -0.541632       -14.7386 
  12   2.0000      -0.535410       -14.5693 
  13   2.0000      -0.518353       -14.1051 
  14   2.0000      -0.438373       -11.9287 
  15   2.0000      -0.437123       -11.8947 
  16   2.0000      -0.380522       -10.3545 
  17   2.0000      -0.378761       -10.3066 
  18   0.0000       0.095585         2.6010 
  19   0.0000       0.106185         2.8894 
  20   0.0000       0.151357         4.1186 
  21   0.0000       0.173069         4.7095 
  22   0.0000       0.197013         5.3610 
  23   0.0000       0.198345         5.3972 
  24   0.0000       0.206118         5.6087 
  25   0.0000       0.212253         5.7757 
  26   0.0000       0.221831         6.0363 
  27   0.0000       0.262848         7.1525 
  28   0.0000       0.296201         8.0600 
  29   0.0000       0.321326         8.7437 
  30   0.0000       0.336350         9.1526 
  31   0.0000       0.364626         9.9220 
  32   0.0000       0.396879        10.7996 
  33   0.0000       0.413665        11.2564 
  34   0.0000       0.447973        12.1900 
  35   0.0000       0.466128        12.6840 
  36   0.0000       0.471375        12.8268 
  37   0.0000       0.493728        13.4350 
  38   0.0000       0.511233        13.9114 
  39   0.0000       0.529854        14.4181 
  40   0.0000       0.532750        14.4969 
  41   0.0000       0.569355        15.4929 
  42   0.0000       0.578645        15.7457 
  43   0.0000       0.599909        16.3243 
  44   0.0000       0.612336        16.6625 
  45   0.0000       0.631368        17.1804 
  46   0.0000       0.638236        17.3673 
  47   0.0000       0.666758        18.1434 
  48   0.0000       0.688717        18.7409 
  49   0.0000       0.716524        19.4976 
  50   0.0000       0.760109        20.6836 
  51   0.0000       0.784909        21.3585 
  52   0.0000       0.800941        21.7947 
  53   0.0000       0.834766        22.7151 
  54   0.0000       0.877293        23.8724 
  55   0.0000       0.915943        24.9241 
  56   0.0000       0.969110        26.3708 
  57   0.0000       1.023512        27.8512 
  58   0.0000       1.039106        28.2755 
  59   0.0000       1.081695        29.4344 
  60   0.0000       1.103298        30.0223 
  61   0.0000       1.120709        30.4960 
  62   0.0000       1.361123        37.0380 
  63   0.0000       1.402247        38.1571 
  64   0.0000       1.500441        40.8291 
  65   0.0000       1.525240        41.5039 
  66   0.0000       1.544940        42.0400 
  67   0.0000       1.568388        42.6780 
  68   0.0000       1.577807        42.9343 
  69   0.0000       1.585287        43.1379 
  70   0.0000       1.626918        44.2707 
  71   0.0000       1.634254        44.4703 
  72   0.0000       1.643128        44.7118 
  73   0.0000       1.649861        44.8950 
  74   0.0000       1.682325        45.7784 
  75   0.0000       1.699438        46.2441 
  76   0.0000       1.704549        46.3831 
  77   0.0000       1.714260        46.6474 
  78   0.0000       1.807632        49.1882 
  79   0.0000       1.820181        49.5296 
  80   0.0000       1.933947        52.6254 
  81   0.0000       1.958759        53.3005 
  82   0.0000       2.010858        54.7182 
  83   0.0000       2.040253        55.5181 
  84   0.0000       2.059684        56.0469 
  85   0.0000       2.069799        56.3221 
  86   0.0000       2.079139        56.5762 
  87   0.0000       2.082826        56.6766 
  88   0.0000       2.107260        57.3415 
  89   0.0000       2.147174        58.4276 
  90   0.0000       2.227181        60.6047 
  91   0.0000       2.272126        61.8277 
  92   0.0000       2.304045        62.6962 
  93   0.0000       2.335854        63.5618 
  94   0.0000       2.356318        64.1187 
  95   0.0000       2.373941        64.5982 
  96   0.0000       2.382779        64.8387 
  97   0.0000       2.421275        65.8862 
  98   0.0000       2.449873        66.6644 
  99   0.0000       2.479865        67.4806 
 100   0.0000       2.540211        69.1227 
 101   0.0000       2.555005        69.5252 
 102   0.0000       2.570633        69.9505 
 103   0.0000       2.585557        70.3566 
 104   0.0000       2.668778        72.6211 
 105   0.0000       2.673633        72.7532 
 106   0.0000       2.701106        73.5008 
 107   0.0000       2.731457        74.3267 
 108   0.0000       2.769107        75.3512 
 109   0.0000       2.810046        76.4652 
 110   0.0000       2.828804        76.9757 
 111   0.0000       2.899557        78.9010 
 112   0.0000       2.930962        79.7555 
 113   0.0000       2.950929        80.2988 
 114   0.0000       2.986841        81.2761 
 115   0.0000       3.037496        82.6545 
 116   0.0000       3.086381        83.9847 
 117   0.0000       3.127927        85.1152 
 118   0.0000       3.158667        85.9517 
 119   0.0000       3.171792        86.3088 
 120   0.0000       3.274764        89.1109 
 121   0.0000       3.300678        89.8160 
 122   0.0000       3.360269        91.4376 
 123   0.0000       3.379634        91.9645 
 124   0.0000       3.387408        92.1761 
 125   0.0000       3.469702        94.4154 
 126   0.0000       3.536381        96.2298 
 127   0.0000       3.544291        96.4451 
 128   0.0000       3.580074        97.4188 
 129   0.0000       3.617234        98.4300 
 130   0.0000       3.641766        99.0975 
 131   0.0000       3.667728        99.8040 
 132   0.0000       3.684638       100.2641 
 133   0.0000       3.712164       101.0131 
 134   0.0000       3.909915       106.3942 
 135   0.0000       4.009872       109.1142 
 136   0.0000       4.221040       114.8603 
 137   0.0000       4.283365       116.5563 
 138   0.0000       4.325579       117.7050 
 139   0.0000       4.335386       117.9719 
 140   0.0000       4.418052       120.2213 
 141   0.0000       4.471151       121.6662 
 142   0.0000       4.562167       124.1429 
 143   0.0000       4.582444       124.6946 
 144   0.0000       5.342979       145.3898 
 145   0.0000       5.344511       145.4315 
 146   0.0000       5.420454       147.4980 
 147   0.0000       5.431703       147.8041 
 148   0.0000       5.486420       149.2931 
 149   0.0000       5.550385       151.0337 
 150   0.0000       5.763601       156.8355 
 151   0.0000       5.806494       158.0027 
 152   0.0000       5.843757       159.0167 
 153   0.0000       5.848496       159.1457 
 154   0.0000       5.960700       162.1989 
 155   0.0000       5.978893       162.6940 
 156   0.0000       6.191273       168.4731 
 157   0.0000       6.322265       172.0376 
 158   0.0000       6.503126       176.9591 
 159   0.0000       6.524062       177.5288 
 160   0.0000       6.739453       183.3898 
 161   0.0000       6.751690       183.7228 
 162   0.0000       6.774131       184.3335 
 163   0.0000       6.818892       185.5515 
 164   0.0000       7.021121       191.0544 
 165   0.0000       7.033699       191.3967 
 166   0.0000       7.147993       194.5068 
 167   0.0000       7.196296       195.8212 
 168   0.0000      22.372455       608.7854 
 169   0.0000      22.533317       613.1627 
 170   0.0000      43.669430      1188.3056 
 171   0.0000      43.686464      1188.7691 

                    ********************************
                    * MULLIKEN POPULATION ANALYSIS *
                    ********************************

-----------------------
MULLIKEN ATOMIC CHARGES
-----------------------
   0 C :   -0.149401
   1 O :   -0.466109
   2 H :    0.314235
   3 H :    0.118988
   4 H :    0.118936
   5 H :    0.054589
   6 C :   -0.173111
   7 O :   -0.474694
   8 H :    0.318281
   9 H :    0.115033
  10 H :    0.097633
  11 H :    0.125619
Sum of atomic charges:   -0.0000000

--------------------------------
MULLIKEN REDUCED ORBITAL CHARGES
--------------------------------
  0 C s       :     3.213456  s :     3.213456
      pz      :     1.008207  p :     2.836289
      px      :     1.061174
      py      :     0.766908
      dz2     :     0.023110  d :     0.092588
      dxz     :     0.007123
      dyz     :     0.021251
      dx2y2   :     0.011996
      dxy     :     0.029109
      f0      :     0.000889  f :     0.007067
      f+1     :     0.000116
      f-1     :     0.001987
      f+2     :     0.000982
      f-2     :     0.000777
      f+3     :     0.001214
      f-3     :     0.001103
  1 O s       :     3.816720  s :     3.816720
      pz      :     1.690706  p :     4.616896
      px      :     1.554165
      py      :     1.372024
      dz2     :     0.003892  d :     0.031018
      dxz     :     0.005210
      dyz     :     0.008634
      dx2y2   :     0.006710
      dxy     :     0.006572
      f0      :     0.000227  f :     0.001474
      f+1     :     0.000042
      f-1     :     0.000192
      f+2     :     0.000315
      f-2     :     0.000233
      f+3     :     0.000150
      f-3     :     0.000316
  2 H s       :     0.644888  s :     0.644888
      pz      :     0.013005  p :     0.040877
      px      :     0.015959
      py      :     0.011913
  3 H s       :     0.861621  s :     0.861621
      pz      :     0.012030  p :     0.019391
      px      :     0.004938
      py      :     0.002424
  4 H s       :     0.859812  s :     0.859812
      pz      :     0.006146  p :     0.021252
      px      :     0.009884
      py      :     0.005222
  5 H s       :     0.925054  s :     0.925054
      pz      :     0.004207  p :     0.020356
      px      :     0.009235
      py      :     0.006914
  6 C s       :     3.214826  s :     3.214826
      pz      :     0.985793  p :     2.849585
      px      :     0.825174
      py      :     1.038617
      dz2     :     0.011854  d :     0.100912
      dxz     :     0.024274
      dyz     :     0.021052
      dx2y2   :     0.022980
      dxy     :     0.020752
      f0      :     0.000208  f :     0.007788
      f+1     :     0.001671
      f-1     :     0.000139
      f+2     :     0.001924
      f-2     :     0.001596
      f+3     :     0.001210
      f-3     :     0.001041
  7 O s       :     3.793764  s :     3.793764
      pz      :     1.562112  p :     4.649198
      px      :     1.329235
      py      :     1.757851
      dz2     :     0.003895  d :     0.030045
      dxz     :     0.012759
      dyz     :     0.005586
      dx2y2   :     0.003730
      dxy     :     0.004075
      f0      :     0.000067  f :     0.001687
      f+1     :     0.000185
      f-1     :     0.000070
      f+2     :     0.000244
      f-2     :     0.000472
      f+3     :     0.000251
      f-3     :     0.000397
  8 H s       :     0.635148  s :     0.635148
      pz      :     0.013852  p :     0.046572
      px      :     0.014716
      py      :     0.018004
  9 H s       :     0.865471  s :     0.865471
      pz      :     0.007132  p :     0.019496
      px      :     0.004385
      py      :     0.007980
 10 H s       :     0.881251  s :     0.881251
      pz      :     0.006881  p :     0.021116
      px      :     0.003837
      py      :     0.010399
 11 H s       :     0.854160  s :     0.854160
      pz      :     0.006337  p :     0.020221
      px      :     0.008794
      py      :     0.005090


                     *******************************
                     * LOEWDIN POPULATION ANALYSIS *
                     *******************************

----------------------
LOEWDIN ATOMIC CHARGES
----------------------
   0 C :   -0.398722
   1 O :   -0.099555
   2 H :    0.201382
   3 H :    0.102982
   4 H :    0.106434
   5 H :    0.085781
   6 C :   -0.393459
   7 O :   -0.066695
   8 H :    0.173993
   9 H :    0.095361
  10 H :    0.082923
  11 H :    0.109575

-------------------------------
LOEWDIN REDUCED ORBITAL CHARGES
-------------------------------
  0 C s       :     2.860885  s :     2.860885
      pz      :     1.079604  p :     3.073591
      px      :     1.107501
      py      :     0.886487
      dz2     :     0.106508  d :     0.411200
      dxz     :     0.028016
      dyz     :     0.095478
      dx2y2   :     0.061633
      dxy     :     0.119566
      f0      :     0.004271  f :     0.053046
      f+1     :     0.001508
      f-1     :     0.011005
      f+2     :     0.011961
      f-2     :     0.008616
      f+3     :     0.006626
      f-3     :     0.009058
  1 O s       :     3.416358  s :     3.416358
      pz      :     1.668969  p :     4.610266
      px      :     1.527756
      py      :     1.413540
      dz2     :     0.009380  d :     0.068664
      dxz     :     0.007014
      dyz     :     0.018512
      dx2y2   :     0.014483
      dxy     :     0.019276
      f0      :     0.000433  f :     0.004268
      f+1     :     0.000019
      f-1     :     0.000747
      f+2     :     0.000877
      f-2     :     0.000804
      f+3     :     0.000605
      f-3     :     0.000783
  2 H s       :     0.666814  s :     0.666814
      pz      :     0.040138  p :     0.131804
      px      :     0.060481
      py      :     0.031186
  3 H s       :     0.838215  s :     0.838215
      pz      :     0.035796  p :     0.058803
      px      :     0.014864
      py      :     0.008144
  4 H s       :     0.830973  s :     0.830973
      pz      :     0.018711  p :     0.062593
      px      :     0.029189
      py      :     0.014693
  5 H s       :     0.852744  s :     0.852744
      pz      :     0.013424  p :     0.061475
      px      :     0.027473
      py      :     0.020578
  6 C s       :     2.843452  s :     2.843452
      pz      :     1.050904  p :     3.068024
      px      :     0.932513
      py      :     1.084607
      dz2     :     0.033013  d :     0.422936
      dxz     :     0.121083
      dyz     :     0.093792
      dx2y2   :     0.099015
      dxy     :     0.076034
      f0      :     0.006388  f :     0.059047
      f+1     :     0.011862
      f-1     :     0.002337
      f+2     :     0.009337
      f-2     :     0.007883
      f+3     :     0.011673
      f-3     :     0.009566
  7 O s       :     3.362588  s :     3.362588
      pz      :     1.581319  p :     4.627399
      px      :     1.364685
      py      :     1.681395
      dz2     :     0.008068  d :     0.072054
      dxz     :     0.027956
      dyz     :     0.010042
      dx2y2   :     0.011553
      dxy     :     0.014435
      f0      :     0.000297  f :     0.004654
      f+1     :     0.001122
      f-1     :     0.000212
      f+2     :     0.000605
      f-2     :     0.001131
      f+3     :     0.000561
      f-3     :     0.000727
  8 H s       :     0.673269  s :     0.673269
      pz      :     0.056523  p :     0.152738
      px      :     0.044819
      py      :     0.051395
  9 H s       :     0.842181  s :     0.842181
      pz      :     0.022877  p :     0.062458
      px      :     0.014446
      py      :     0.025135
 10 H s       :     0.850084  s :     0.850084
      pz      :     0.021852  p :     0.066992
      px      :     0.012807
      py      :     0.032333
 11 H s       :     0.829961  s :     0.829961
      pz      :     0.020299  p :     0.060464
      px      :     0.025038
      py      :     0.015128


                      *****************************
                      * MAYER POPULATION ANALYSIS *
                      *****************************

  NA   - Mulliken gross atomic population
  ZA   - Total nuclear charge
  QA   - Mulliken gross atomic charge
  VA   - Mayer's total valence
  BVA  - Mayer's bonded valence
  FA   - Mayer's free valence

  ATOM       NA         ZA         QA         VA         BVA        FA
  0 C      6.1494     6.0000    -0.1494     3.9460     3.9460    -0.0000
  1 O      8.4661     8.0000    -0.4661     1.9172     1.9172    -0.0000
  2 H      0.6858     1.0000     0.3142     0.9083     0.9083     0.0000
  3 H      0.8810     1.0000     0.1190     0.9492     0.9492    -0.0000
  4 H      0.8811     1.0000     0.1189     0.9544     0.9544    -0.0000
  5 H      0.9454     1.0000     0.0546     0.9702     0.9702    -0.0000
  6 C      6.1731     6.0000    -0.1731     3.9480     3.9480    -0.0000
  7 O      8.4747     8.0000    -0.4747     1.8987     1.8987     0.0000
  8 H      0.6817     1.0000     0.3183     0.9112     0.9112    -0.0000
  9 H      0.8850     1.0000     0.1150     0.9585     0.9585    -0.0000
 10 H      0.9024     1.0000     0.0976     0.9406     0.9406     0.0000
 11 H      0.8744     1.0000     0.1256     0.9604     0.9604    -0.0000

  Mayer bond orders larger than 0.1
B(  0-C ,  1-O ) :   1.0188 B(  0-C ,  3-H ) :   0.9642 B(  0-C ,  4-H ) :   0.9751 
B(  0-C ,  5-H ) :   0.9719 B(  1-O ,  2-H ) :   0.8960 B(  6-C ,  7-O ) :   0.9997 
B(  6-C ,  9-H ) :   0.9826 B(  6-C , 10-H ) :   0.9779 B(  6-C , 11-H ) :   0.9743 
B(  7-O ,  8-H ) :   0.8927 

-------
TIMINGS
-------

Total SCF time: 0 days 0 hours 0 min 17 sec 

Total time                  ....      17.165 sec
Sum of individual times     ....      16.673 sec  ( 97.1%)

Fock matrix formation       ....      15.966 sec  ( 93.0%)
  XC integration            ....       6.890 sec  ( 43.2% of F)
    Basis function eval.    ....       0.059 sec  (  0.9% of XC)
    Density eval.           ....       0.094 sec  (  1.4% of XC)
    XC-Functional eval.     ....       0.102 sec  (  1.5% of XC)
    XC-Potential eval.      ....       0.068 sec  (  1.0% of XC)
Diagonalization             ....       0.117 sec  (  0.7%)
Density matrix formation    ....       0.005 sec  (  0.0%)
Population analysis         ....       0.079 sec  (  0.5%)
Initial guess               ....       0.111 sec  (  0.6%)
Orbital Transformation      ....       0.000 sec  (  0.0%)
Orbital Orthonormalization  ....       0.000 sec  (  0.0%)
DIIS solution               ....       0.064 sec  (  0.4%)
SOSCF solution              ....       0.029 sec  (  0.2%)
Grid generation             ....       0.302 sec  (  1.8%)


-------------------------------------------------------------------------------
                          DFT DISPERSION CORRECTION                            
                                                                               
                              DFTD3 V3.1  Rev 1                                
                              USING zero damping                               
-------------------------------------------------------------------------------
The omegaB97X-D3 functional is recognized. Fit by Chai et al.
Active option DFTDOPT                   ...         3   

molecular C6(AA) [au] = 834.961089 


            DFT-D V3
 parameters
 s6 scaling factor         :     1.0000 
 rs6 scaling factor        :     1.2810 
 s8 scaling factor         :     1.0000 
 rs8 scaling factor        :     1.0940 
 Damping factor alpha6     :    14.0000 
 Damping factor alpha8     :    16.0000 
 ad hoc parameters k1-k3   :    16.0000     1.3333    -4.0000 

 Edisp/kcal,au: -1.199526078555  -0.001911566279 
 E6   /kcal   :  -0.515841573 
 E8   /kcal   :  -0.683684505 
 % E8         :  56.996218551 

-------------------------   ----------------
Dispersion correction           -0.001911566
-------------------------   ----------------


-------------------------   --------------------
FINAL SINGLE POINT ENERGY      -231.463663851925
-------------------------   --------------------


                            ***************************************
                            *     ORCA property calculations      *
                            ***************************************

                                    ---------------------
                                    Active property flags
                                    ---------------------
   (+) Dipole Moment


------------------------------------------------------------------------------
                       ORCA ELECTRIC PROPERTIES CALCULATION
------------------------------------------------------------------------------

Dipole Moment Calculation                       ... on
Quadrupole Moment Calculation                   ... off
Polarizability Calculation                      ... off
GBWName                                         ... 22-139_DFT_AB.gbw
Electron density file                           ... 22-139_DFT_AB.scfp.tmp
The origin for moment calculation is the CENTER OF MASS  = ( 3.720884,  4.493133 17.221323)

-------------
DIPOLE MOMENT
-------------
                                X             Y             Z
Electronic contribution:     -1.37101      -1.26549      -0.14541
Nuclear contribution   :      1.91651       1.61011       0.28234
                        -----------------------------------------
Total Dipole Moment    :      0.54550       0.34461       0.13693
                        -----------------------------------------
Magnitude (a.u.)       :      0.65960
Magnitude (Debye)      :      1.67658



--------------------
Rotational spectrum 
--------------------
 
Rotational constants in cm-1:     0.500537     0.060890     0.056116 
Rotational constants in MHz : 15005.722034  1825.428144  1682.321720 

 Dipole components along the rotational axes: 
x,y,z [a.u.] :     0.512943    -0.276411     0.309131 
x,y,z [Debye]:     1.303798    -0.702581     0.785749 

 
------------------------------------------------------------------------------
                      ORCA CHELPG CHARGES GENERATION
------------------------------------------------------------------------------

GBW file                           ... 22-139_DFT_AB.gbw

Reading the GBW file               ... done

Grid spacing                       ...     0.300000
Point Cut-Off                      ...     2.800000
Van-der-Waals Radii                ...        COSMO
Total charge                       ...            0


Number of points X direction       ...           35
Number of points Y direction       ...           32
Number of points Z direction       ...           26
Maximum number of possible points  ...        29120
Final number of points             ...         9716


CHELPG Charges            
--------------------------------
  0   C   :       0.153917
  1   O   :      -0.591839
  2   H   :       0.381837
  3   H   :       0.005648
  4   H   :       0.062218
  5   H   :      -0.013129
  6   C   :       0.188977
  7   O   :      -0.616372
  8   H   :       0.391118
  9   H   :      -0.010815
 10   H   :      -0.002995
 11   H   :       0.051435
--------------------------------
Total charge:     0.000000
--------------------------------

CHELPG charges calculated...

Timings for individual parts in CHELPG calculation:
Grid generation                 ...        0.001 sec (=   0.000 min)
Potential calculation           ...        2.216 sec (=   0.037 min)
Fit to the potential            ...        0.003 sec (=   0.000 min)
------------------------------------------------------------------------------


Timings for individual modules:

Sum of individual times         ...       27.210 sec (=   0.453 min)
GTO integral calculation        ...        4.747 sec (=   0.079 min)  17.4 %
SCF iterations                  ...       20.211 sec (=   0.337 min)  74.3 %
CHELPG charge generation        ...        2.252 sec (=   0.038 min)   8.3 %


                 $$$$$$$$$$$$$$$$  JOB NUMBER  2 $$$$$$$$$$$$$$


                       ****************************
                       * Single Point Calculation *
                       ****************************

---------------------------------
CARTESIAN COORDINATES (ANGSTROEM)
---------------------------------
  C      0.527698    1.859503    9.663229
  O      0.594535    0.604207   10.339565
  H      1.417129    0.142972    9.950281
  H      0.246686    1.908735    8.587147
  H     -0.322910    2.327679   10.124349
  H      1.373423    2.534069    9.816187
  C      3.964316    3.347006    8.560207
  O      2.798326    3.703831    7.869844
  H      2.181258    4.153824    8.473695
  H      4.313658    4.116674    9.230770
  H      3.796506    2.467997    9.113621
  H      4.797698    3.092619    7.910218

----------------------------
CARTESIAN COORDINATES (A.U.)
----------------------------
  NO LB      ZA    FRAG     MASS         X           Y           Z
   0 C     6.0000    0    12.011    0.997205    3.513951   18.260856
   1 O     8.0000    0    15.999    1.123508    1.141786   19.538946
   2 H     1.0000    0     1.008    2.677986    0.270178   18.803306
   3 H     1.0000    0     1.008    0.466169    3.606986   16.227356
   4 H     1.0000    0     1.008   -0.610211    4.398676   19.132247
   5 H     1.0000    0     1.008    2.595393    4.788696   18.549905
   6 C     0.0000    0     0.000    7.491472    6.324925   16.176447
   7 O     0.0000    0     0.000    5.288070    6.999226   14.871850
   8 H     0.0000    0     0.000    4.121980    7.849590   16.012963
   9 H     0.0000    0     0.000    8.151632    7.779386   17.443627
  10 H     0.0000    0     0.000    7.174357    4.663838   17.222248
  11 H     0.0000    0     0.000    9.066335    5.844203   14.948146

--------------------------------
INTERNAL COORDINATES (ANGSTROEM)
--------------------------------
 C      0   0   0     0.000000000000     0.00000000     0.00000000
 O      1   0   0     1.427468254316     0.00000000     0.00000000
 H      2   1   0     1.020264988479   104.74504316     0.00000000
 H      1   2   3     1.113258283011   120.57642907    70.73024789
 H      1   2   3     1.074874127998   102.52240140   182.07758267
 H      1   2   3     1.092559478356   116.12769068   297.70392929
 C      6   1   2     2.991835367098   141.19952943    95.51871757
 O      7   6   1     1.401234395986    63.60351667    68.09502029
 H      8   7   6     0.973602920535   109.84757514    50.78258773
 H      7   6   1     1.078926967017   102.31688709   178.08314466
 H      7   6   1     1.052180627828    54.13230327   282.39520448
 H      7   6   1     1.087071296564   148.35537978   335.11278838

---------------------------
INTERNAL COORDINATES (A.U.)
---------------------------
 C      0   0   0     0.000000000000     0.00000000     0.00000000
 O      1   0   0     2.697524065525     0.00000000     0.00000000
 H      2   1   0     1.928021412255   104.74504316     0.00000000
 H      1   2   3     2.103753271210   120.57642907    70.73024789
 H      1   2   3     2.031217730354   102.52240140   182.07758267
 H      1   2   3     2.064638199112   116.12769068   297.70392929
 C      6   1   2     5.653749481595   141.19952943    95.51871757
 O      7   6   1     2.647949257844    63.60351667    68.09502029
 H      8   7   6     1.839842882997   109.84757514    50.78258773
 H      7   6   1     2.038876486165   102.31688709   178.08314466
 H      7   6   1     1.988333230013    54.13230327   282.39520448
 H      7   6   1     2.054267038553   148.35537978   335.11278838

---------------------
BASIS SET INFORMATION
---------------------
There are 3 groups of distinct atoms

 Group   1 Type C   : 11s6p2d1f contracted to 5s3p2d1f pattern {62111/411/11/1}
 Group   2 Type O   : 11s6p2d1f contracted to 5s3p2d1f pattern {62111/411/11/1}
 Group   3 Type H   : 5s1p contracted to 3s1p pattern {311/1}

Atom   0C    basis set group =>   1
Atom   1O    basis set group =>   2
Atom   2H    basis set group =>   3
Atom   3H    basis set group =>   3
Atom   4H    basis set group =>   3
Atom   5H    basis set group =>   3
Atom   6C    basis set group =>   1
Atom   7O    basis set group =>   2
Atom   8H    basis set group =>   3
Atom   9H    basis set group =>   3
Atom  10H    basis set group =>   3
Atom  11H    basis set group =>   3


           ************************************************************
           *        Program running with 8 parallel MPI-processes     *
           *              working on a common directory               *
           ************************************************************
------------------------------------------------------------------------------
                           ORCA GTO INTEGRAL CALCULATION
------------------------------------------------------------------------------

                         BASIS SET STATISTICS AND STARTUP INFO

 # of primitive gaussian shells          ...  128
 # of primitive gaussian functions       ...  248
 # of contracted shells                  ...   76
 # of contracted basis functions         ...  172
 Highest angular momentum                ...    3
 Maximum contraction depth               ...    6
 Integral package used                   ... LIBINT
 Integral threshhold            Thresh   ...  2.500e-11
 Primitive cut-off              TCut     ...  2.500e-12


------------------------------ INTEGRAL EVALUATION ----------------------------


 * One electron integrals 
 Pre-screening matrix                    ... done
 Shell pair data                         ... done (   0.001 sec)



           ************************************************************
           *        Program running with 8 parallel MPI-processes     *
           *              working on a common directory               *
           ************************************************************
-------------------------------------------------------------------------------
                                 ORCA SCF
-------------------------------------------------------------------------------

------------
SCF SETTINGS
------------
Hamiltonian:
 Density Functional     Method          .... DFT(GTOs)
 Exchange Functional    Exchange        .... WB97X-D3
 Correlation Functional Correlation     .... WB97X-D3
 Gradients option       PostSCFGGA      .... off
 Hybrid DFT is turned on
   Fraction HF Exchange ScalHFX         ....  0.195728
   Scaling of DF-GGA-X  ScalDFX         ....  0.000000
   Scaling of DF-GGA-C  ScalDFC         ....  1.000000
   Scaling of DF-LDA-C  ScalLDAC        ....  1.000000
   Perturbative correction              ....  0.000000
   Density functional embedding theory  .... OFF
 Long-range corrected/Screened/Range-Separated Hybrid DFT is turned on
   Amount of maximum screened exact exchange              ....  0.804272
   Range separation parameter mu (erf(mu*r12)/r12)        ....  0.250000


General Settings:
 Integral files         IntName         .... 22-139_DFT_A
 Hartree-Fock type      HFTyp           .... RHF
 Total Charge           Charge          ....    0
 Multiplicity           Mult            ....    1
 Number of Electrons    NEL             ....   18
 Basis Dimension        Dim             ....  172
 Nuclear Repulsion      ENuc            ....     39.8563776607 Eh

Convergence Acceleration:
 DIIS                   CNVDIIS         .... on
   Start iteration      DIISMaxIt       ....    12
   Startup error        DIISStart       ....  0.200000
   # of expansion vecs  DIISMaxEq       ....     5
   Bias factor          DIISBfac        ....   1.050
   Max. coefficient     DIISMaxC        ....  10.000
 Newton-Raphson         CNVNR           .... off
 SOSCF                  CNVSOSCF        .... on
   Start iteration      SOSCFMaxIt      ....   150
   Startup grad/error   SOSCFStart      ....  0.003300
 Level Shifting         CNVShift        .... on
   Level shift para.    LevelShift      ....    0.2500
   Turn off err/grad.   ShiftErr        ....    0.0010
 Zerner damping         CNVZerner       .... off
 Static damping         CNVDamp         .... on
   Fraction old density DampFac         ....    0.7000
   Max. Damping (<1)    DampMax         ....    0.9800
   Min. Damping (>=0)   DampMin         ....    0.0000
   Turn off err/grad.   DampErr         ....    0.1000
 Fernandez-Rico         CNVRico         .... off

SCF Procedure:
 Maximum # iterations   MaxIter         ....  1000
 SCF integral mode      SCFMode         .... Direct
   Integral package                     .... LIBINT
 Reset frequency        DirectResetFreq ....    20
 Integral Threshold     Thresh          ....  2.500e-11 Eh
 Primitive CutOff       TCut            ....  2.500e-12 Eh

Convergence Tolerance:
 Convergence Check Mode ConvCheckMode   .... Total+1el-Energy
 Convergence forced     ConvForced      .... 0
 Energy Change          TolE            ....  1.000e-08 Eh
 1-El. energy change                    ....  1.000e-05 Eh
 Orbital Gradient       TolG            ....  1.000e-05
 Orbital Rotation angle TolX            ....  1.000e-05
 DIIS Error             TolErr          ....  5.000e-07


Diagonalization of the overlap matrix:
Smallest eigenvalue                        ... 1.192e-03
Time for diagonalization                   ...    0.005 sec
Threshold for overlap eigenvalues          ... 1.000e-08
Number of eigenvalues below threshold      ... 0
Time for construction of square roots      ...    0.007 sec
Total time needed                          ...    0.011 sec

-------------------
DFT GRID GENERATION
-------------------

General Integration Accuracy     IntAcc      ...  4.340
Radial Grid Type                 RadialGrid  ... Gauss-Chebyshev
Angular Grid (max. acc.)         AngularGrid ... Lebedev-110
Angular grid pruning method      GridPruning ... 3 (G Style)
Weight generation scheme         WeightScheme... Becke
Basis function cutoff            BFCut       ...    1.0000e-11
Integration weight cutoff        WCut        ...    1.0000e-14
Grids for H and He will be reduced by one unit

# of grid points (after initial pruning)     ...  13096 (   0.0 sec)
# of grid points (after weights+screening)   ...  12505 (   0.0 sec)
nearest neighbour list constructed           ...    0.0 sec
Grid point re-assignment to atoms done       ...    0.0 sec
Grid point division into batches done        ...    0.0 sec
Reduced shell lists constructed in    0.0 sec

Total number of grid points                  ...    12505
Total number of batches                      ...      203
Average number of points per batch           ...       61
Average number of grid points per atom       ...     1042
Average number of shells per batch           ...    48.96 (64.42%)
Average number of basis functions per batch  ...   106.89 (62.14%)
Average number of large shells per batch     ...    40.11 (81.92%)
Average number of large basis fcns per batch ...    87.96 (82.29%)
Maximum spatial batch extension              ...  14.66, 16.81, 15.71 au
Average spatial batch extension              ...   0.42,  0.42,  0.39 au

Time for grid setup =    0.041 sec

------------------------------
INITIAL GUESS: MODEL POTENTIAL
------------------------------
Loading Hartree-Fock densities                     ... done
Calculating cut-offs                               ... done
Setting up the integral package                    ... done
Initializing the effective Hamiltonian             ... done
Starting the Coulomb interaction                   ... done (   0.0 sec)
Reading the grid                                   ... done
Mapping shells                                     ... done
Starting the XC term evaluation                    ... done (   0.0 sec)
  promolecular density results
     # of electrons  =     18.006509228
     EX              =    -14.413945404
     EC              =     -0.573346270
     EX+EC           =    -14.987291674
Transforming the Hamiltonian                       ... done (   0.0 sec)
Diagonalizing the Hamiltonian                      ... done (   0.0 sec)
Back transforming the eigenvectors                 ... done (   0.0 sec)
Now organizing SCF variables                       ... done
                      ------------------
                      INITIAL GUESS DONE (   0.1 sec)
                      ------------------
--------------
SCF ITERATIONS
--------------
ITER       Energy         Delta-E        Max-DP      RMS-DP      [F,P]     Damp
               ***  Starting incremental Fock matrix formation  ***
  0   -115.6462356307   0.000000000000 0.03539359  0.00072306  0.2405933 0.7000
  1   -115.6814239638  -0.035188333123 0.02126333  0.00051429  0.1191958 0.7000
                               ***Turning on DIIS***
  2   -115.6976191358  -0.016195171992 0.03042396  0.00093026  0.0453266 0.0000
  3   -115.7240173518  -0.026398215982 0.01678884  0.00034991  0.0575937 0.0000
  4   -115.7283236570  -0.004306305206 0.00388724  0.00007176  0.0061052 0.0000
                      *** Initiating the SOSCF procedure ***
                           *** Shutting down DIIS ***
                      *** Re-Reading the Fockian *** 
                      *** Removing any level shift *** 
ITER      Energy       Delta-E        Grad      Rot      Max-DP    RMS-DP
  5   -115.72842216  -0.0000985041  0.000431  0.000431  0.000717  0.000026
               *** Restarting incremental Fock matrix formation ***
  6   -115.72843105  -0.0000088918  0.000154  0.000169  0.000510  0.000015
  7   -115.72843189  -0.0000008408  0.000047  0.000095  0.000228  0.000007
  8   -115.72843195  -0.0000000599  0.000033  0.000023  0.000047  0.000001
  9   -115.72843197  -0.0000000194  0.000010  0.000008  0.000024  0.000001
                  ***Gradient check signals convergence***
              ***Rediagonalizing the Fockian in SOSCF/NRSCF***

               *****************************************************
               *                     SUCCESS                       *
               *           SCF CONVERGED AFTER  10 CYCLES          *
               *****************************************************

Setting up the final grid:

General Integration Accuracy     IntAcc      ...  4.670
Radial Grid Type                 RadialGrid  ... Gauss-Chebyshev
Angular Grid (max. acc.)         AngularGrid ... Lebedev-302
Angular grid pruning method      GridPruning ... 3 (G Style)
Weight generation scheme         WeightScheme... Becke
Basis function cutoff            BFCut       ...    1.0000e-11
Integration weight cutoff        WCut        ...    1.0000e-14
Grids for H and He will be reduced by one unit

# of grid points (after initial pruning)     ...  52000 (   0.0 sec)
# of grid points (after weights+screening)   ...  49058 (   0.0 sec)
nearest neighbour list constructed           ...    0.0 sec
Grid point re-assignment to atoms done       ...    0.0 sec
Grid point division into batches done        ...    0.2 sec
Reduced shell lists constructed in    0.2 sec

Total number of grid points                  ...    49058
Total number of batches                      ...      771
Average number of points per batch           ...       63
Average number of grid points per atom       ...     4088
Average number of shells per batch           ...    47.05 (61.91%)
Average number of basis functions per batch  ...   102.62 (59.66%)
Average number of large shells per batch     ...    37.59 (79.90%)
Average number of large basis fcns per batch ...    82.90 (80.78%)
Maximum spatial batch extension              ...  16.22, 17.93, 17.01 au
Average spatial batch extension              ...   0.28,  0.27,  0.27 au

Final grid set up in    0.3 sec
Final integration                            ... done (   0.1 sec)
Change in XC energy                          ...    -0.000253649
Integrated number of electrons               ...    18.000110291
Previous integrated no of electrons          ...    18.002285434

----------------
TOTAL SCF ENERGY
----------------

Total Energy       :         -115.72868562 Eh           -3149.13763 eV

Components:
Nuclear Repulsion  :           39.85637766 Eh            1084.54717 eV
Electronic Energy  :         -155.58506328 Eh           -4233.68481 eV
One Electron Energy:         -236.16332433 Eh           -6426.33076 eV
Two Electron Energy:           80.57826105 Eh            2192.64596 eV

Virial components:
Potential Energy   :         -230.85585564 Eh           -6281.90720 eV
Kinetic Energy     :          115.12717001 Eh            3132.76956 eV
Virial Ratio       :            2.00522479


DFT components:
N(Alpha)           :        9.000055145574 electrons
N(Beta)            :        9.000055145574 electrons
N(Total)           :       18.000110291147 electrons
E(XC)              :      -10.625461970812 Eh       
DFET-embed. en.    :        0.000000000000 Eh       

---------------
SCF CONVERGENCE
---------------

  Last Energy change         ...   -2.2010e-09  Tolerance :   1.0000e-08
  Last MAX-Density change    ...    4.5389e-06  Tolerance :   1.0000e-07
  Last RMS-Density change    ...    1.4548e-07  Tolerance :   5.0000e-09
  Last Orbital Gradient      ...    2.1160e-06  Tolerance :   1.0000e-05
  Last Orbital Rotation      ...    2.7798e-06  Tolerance :   1.0000e-05

             **** THE GBW FILE WAS UPDATED (22-139_DFT_A.gbw) ****
             **** DENSITY FILE WAS UPDATED (22-139_DFT_A.scfp.tmp) ****
             **** ENERGY FILE WAS UPDATED (22-139_DFT_A.en.tmp) ****
----------------
ORBITAL ENERGIES
----------------

  NO   OCC          E(Eh)            E(eV) 
   0   2.0000     -19.242396      -523.6122 
   1   2.0000     -10.311911      -280.6014 
   2   2.0000      -1.126074       -30.6420 
   3   2.0000      -0.793229       -21.5849 
   4   2.0000      -0.604627       -16.4527 
   5   2.0000      -0.537438       -14.6244 
   6   2.0000      -0.517013       -14.0686 
   7   2.0000      -0.436941       -11.8898 
   8   2.0000      -0.378183       -10.2909 
   9   0.0000       0.079404         2.1607 
  10   0.0000       0.111661         3.0384 
  11   0.0000       0.142971         3.8904 
  12   0.0000       0.182165         4.9570 
  13   0.0000       0.184307         5.0153 
  14   0.0000       0.204012         5.5514 
  15   0.0000       0.209387         5.6977 
  16   0.0000       0.228036         6.2052 
  17   0.0000       0.244913         6.6644 
  18   0.0000       0.289636         7.8814 
  19   0.0000       0.314864         8.5679 
  20   0.0000       0.324103         8.8193 
  21   0.0000       0.342335         9.3154 
  22   0.0000       0.354719         9.6524 
  23   0.0000       0.392340        10.6761 
  24   0.0000       0.408455        11.1146 
  25   0.0000       0.443476        12.0676 
  26   0.0000       0.468046        12.7362 
  27   0.0000       0.498786        13.5727 
  28   0.0000       0.507966        13.8225 
  29   0.0000       0.538362        14.6496 
  30   0.0000       0.550584        14.9822 
  31   0.0000       0.584850        15.9146 
  32   0.0000       0.606934        16.5155 
  33   0.0000       0.614426        16.7194 
  34   0.0000       0.626642        17.0518 
  35   0.0000       0.663257        18.0482 
  36   0.0000       0.689914        18.7735 
  37   0.0000       0.693541        18.8722 
  38   0.0000       0.754802        20.5392 
  39   0.0000       0.807106        21.9625 
  40   0.0000       0.812778        22.1168 
  41   0.0000       0.837634        22.7932 
  42   0.0000       0.879178        23.9237 
  43   0.0000       0.945711        25.7341 
  44   0.0000       1.011779        27.5319 
  45   0.0000       1.053151        28.6577 
  46   0.0000       1.071349        29.1529 
  47   0.0000       1.100544        29.9473 
  48   0.0000       1.163126        31.6503 
  49   0.0000       1.172054        31.8932 
  50   0.0000       1.177141        32.0316 
  51   0.0000       1.213580        33.0232 
  52   0.0000       1.242745        33.8168 
  53   0.0000       1.346867        36.6501 
  54   0.0000       1.370441        37.2916 
  55   0.0000       1.396232        37.9934 
  56   0.0000       1.447366        39.3848 
  57   0.0000       1.528194        41.5843 
  58   0.0000       1.536902        41.8212 
  59   0.0000       1.572971        42.8027 
  60   0.0000       1.599901        43.5355 
  61   0.0000       1.633801        44.4580 
  62   0.0000       1.652441        44.9652 
  63   0.0000       1.680347        45.7246 
  64   0.0000       1.703371        46.3511 
  65   0.0000       1.817376        49.4533 
  66   0.0000       1.853227        50.4289 
  67   0.0000       1.907421        51.9036 
  68   0.0000       1.927782        52.4576 
  69   0.0000       1.957596        53.2689 
  70   0.0000       2.039750        55.5044 
  71   0.0000       2.071530        56.3692 
  72   0.0000       2.085078        56.7379 
  73   0.0000       2.115199        57.5575 
  74   0.0000       2.121611        57.7320 
  75   0.0000       2.180397        59.3316 
  76   0.0000       2.229178        60.6590 
  77   0.0000       2.232291        60.7437 
  78   0.0000       2.246091        61.1192 
  79   0.0000       2.322856        63.2081 
  80   0.0000       2.345709        63.8300 
  81   0.0000       2.357278        64.1448 
  82   0.0000       2.376020        64.6548 
  83   0.0000       2.474884        67.3450 
  84   0.0000       2.513622        68.3991 
  85   0.0000       2.550000        69.3890 
  86   0.0000       2.567646        69.8692 
  87   0.0000       2.609871        71.0182 
  88   0.0000       2.632683        71.6390 
  89   0.0000       2.667411        72.5839 
  90   0.0000       2.690081        73.2008 
  91   0.0000       2.722039        74.0704 
  92   0.0000       2.767933        75.3193 
  93   0.0000       2.818854        76.7049 
  94   0.0000       2.829158        76.9853 
  95   0.0000       2.927926        79.6729 
  96   0.0000       2.945532        80.1520 
  97   0.0000       3.008668        81.8700 
  98   0.0000       3.085088        83.9495 
  99   0.0000       3.087437        84.0134 
 100   0.0000       3.136782        85.3562 
 101   0.0000       3.157324        85.9151 
 102   0.0000       3.185527        86.6826 
 103   0.0000       3.215104        87.4874 
 104   0.0000       3.288094        89.4736 
 105   0.0000       3.313539        90.1660 
 106   0.0000       3.339228        90.8650 
 107   0.0000       3.367705        91.6399 
 108   0.0000       3.372118        91.7600 
 109   0.0000       3.383179        92.0610 
 110   0.0000       3.540022        96.3289 
 111   0.0000       3.579730        97.4094 
 112   0.0000       3.644615        99.1750 
 113   0.0000       3.684636       100.2640 
 114   0.0000       3.702212       100.7423 
 115   0.0000       3.712841       101.0315 
 116   0.0000       3.732841       101.5758 
 117   0.0000       3.910852       106.4197 
 118   0.0000       4.073131       110.8355 
 119   0.0000       4.149243       112.9067 
 120   0.0000       4.230078       115.1063 
 121   0.0000       4.273211       116.2800 
 122   0.0000       4.288738       116.7025 
 123   0.0000       4.331957       117.8785 
 124   0.0000       4.398495       119.6891 
 125   0.0000       4.418807       120.2418 
 126   0.0000       4.536432       123.4426 
 127   0.0000       4.542433       123.6059 
 128   0.0000       4.557877       124.0261 
 129   0.0000       4.563829       124.1881 
 130   0.0000       4.591613       124.9441 
 131   0.0000       4.996667       135.9662 
 132   0.0000       5.088335       138.4606 
 133   0.0000       5.155474       140.2876 
 134   0.0000       5.344158       145.4219 
 135   0.0000       5.356445       145.7563 
 136   0.0000       5.432644       147.8298 
 137   0.0000       5.445467       148.1787 
 138   0.0000       5.487651       149.3266 
 139   0.0000       5.764818       156.8687 
 140   0.0000       5.801435       157.8651 
 141   0.0000       5.808709       158.0630 
 142   0.0000       5.962230       162.2405 
 143   0.0000       6.049091       164.6041 
 144   0.0000       6.173644       167.9934 
 145   0.0000       6.193080       168.5223 
 146   0.0000       6.504299       176.9910 
 147   0.0000       6.602780       179.6708 
 148   0.0000       6.690121       182.0474 
 149   0.0000       6.744292       183.5215 
 150   0.0000       6.775076       184.3592 
 151   0.0000       6.852434       186.4642 
 152   0.0000       7.022352       191.0879 
 153   0.0000       7.140977       194.3159 
 154   0.0000       7.149100       194.5369 
 155   0.0000       7.289394       198.3545 
 156   0.0000       7.454680       202.8522 
 157   0.0000       8.038059       218.7267 
 158   0.0000       8.941853       243.3202 
 159   0.0000       9.319142       253.5867 
 160   0.0000       9.549823       259.8639 
 161   0.0000       9.564371       260.2598 
 162   0.0000       9.801810       266.7208 
 163   0.0000       9.898504       269.3520 
 164   0.0000       9.943669       270.5810 
 165   0.0000      10.141496       275.9641 
 166   0.0000      11.225518       305.4619 
[...]
  82   0.0000       2.432657        66.1960 
  83   0.0000       2.461545        66.9820 
  84   0.0000       2.498540        67.9887 
  85   0.0000       2.535598        68.9971 
  86   0.0000       2.561761        69.7090 
  87   0.0000       2.594805        70.6082 
  88   0.0000       2.644581        71.9627 
  89   0.0000       2.680489        72.9398 
  90   0.0000       2.690302        73.2068 
  91   0.0000       2.715706        73.8981 
  92   0.0000       2.813584        76.5615 
  93   0.0000       2.831724        77.0551 
  94   0.0000       2.859100        77.8001 
  95   0.0000       2.908239        79.1372 
  96   0.0000       2.955884        80.4337 
  97   0.0000       2.985464        81.2386 
  98   0.0000       3.037110        82.6440 
  99   0.0000       3.105194        84.4966 
 100   0.0000       3.119986        84.8991 
 101   0.0000       3.165771        86.1450 
 102   0.0000       3.201662        87.1216 
 103   0.0000       3.270181        88.9862 
 104   0.0000       3.280910        89.2781 
 105   0.0000       3.317101        90.2629 
 106   0.0000       3.362623        91.5016 
 107   0.0000       3.391689        92.2925 
 108   0.0000       3.431095        93.3648 
 109   0.0000       3.477372        94.6241 
 110   0.0000       3.549367        96.5832 
 111   0.0000       3.617301        98.4318 
 112   0.0000       3.628748        98.7432 
 113   0.0000       3.673968        99.9737 
 114   0.0000       3.690466       100.4227 
 115   0.0000       3.732808       101.5749 
 116   0.0000       3.787676       103.0679 
 117   0.0000       4.014664       109.2446 
 118   0.0000       4.040632       109.9512 
 119   0.0000       4.120412       112.1221 
 120   0.0000       4.200447       114.3000 
 121   0.0000       4.280017       116.4652 
 122   0.0000       4.285972       116.6272 
 123   0.0000       4.334492       117.9475 
 124   0.0000       4.363717       118.7428 
 125   0.0000       4.470295       121.6429 
 126   0.0000       4.514249       122.8390 
 127   0.0000       4.546272       123.7103 
 128   0.0000       4.549759       123.8052 
 129   0.0000       4.600343       125.1817 
 130   0.0000       4.666732       126.9882 
 131   0.0000       4.915694       133.7628 
 132   0.0000       5.062172       137.7487 
 133   0.0000       5.138360       139.8219 
 134   0.0000       5.187351       141.1550 
 135   0.0000       5.351600       145.6244 
 136   0.0000       5.421577       147.5286 
 137   0.0000       5.430564       147.7732 
 138   0.0000       5.557086       151.2160 
 139   0.0000       5.783408       157.3745 
 140   0.0000       5.851228       159.2200 
 141   0.0000       5.855633       159.3399 
 142   0.0000       5.934960       161.4985 
 143   0.0000       5.986304       162.8956 
 144   0.0000       6.094059       165.8278 
 145   0.0000       6.330101       172.2508 
 146   0.0000       6.531365       177.7275 
 147   0.0000       6.601535       179.6369 
 148   0.0000       6.701053       182.3449 
 149   0.0000       6.757419       183.8787 
 150   0.0000       6.763296       184.0386 
 151   0.0000       6.826325       185.7537 
 152   0.0000       7.026808       191.2092 
 153   0.0000       7.041173       191.6000 
 154   0.0000       7.187530       195.5826 
 155   0.0000       7.205203       196.0635 
 156   0.0000       7.356199       200.1723 
 157   0.0000       7.826435       212.9681 
 158   0.0000       8.883820       241.7410 
 159   0.0000       9.308109       253.2865 
 160   0.0000       9.519787       259.0466 
 161   0.0000       9.533335       259.4152 
 162   0.0000       9.762297       265.6456 
 163   0.0000       9.895904       269.2812 
 164   0.0000       9.936784       270.3936 
 165   0.0000      10.087089       274.4837 
 166   0.0000      11.148641       303.3699 
 167   0.0000      19.113843       520.1141 
 168   0.0000      22.540355       613.3542 
 169   0.0000      43.686696      1188.7754 
 170   0.0000      65.880420      1792.6974 
 171   0.0000     126.438534      3440.5674 

                    ********************************
                    * MULLIKEN POPULATION ANALYSIS *
                    ********************************

-----------------------
MULLIKEN ATOMIC CHARGES
-----------------------
   0 C :    0.001365
   1 O :   -0.000185
   2 H :   -0.000093
   3 H :   -0.001172
   4 H :   -0.000551
   5 H :   -0.008377
   6 C :   -0.172746
   7 O :   -0.474768
   8 H :    0.320352
   9 H :    0.108258
  10 H :    0.106239
  11 H :    0.121680
Sum of atomic charges:   -0.0000000

--------------------------------
MULLIKEN REDUCED ORBITAL CHARGES
--------------------------------
  0 C s       :    -0.004817  s :    -0.004817
      pz      :     0.003593  p :     0.003489
      px      :    -0.000447
      py      :     0.000343
      dz2     :     0.000020  d :    -0.000034
      dxz     :    -0.000040
      dyz     :    -0.000008
      dx2y2   :    -0.000003
      dxy     :    -0.000003
      f0      :    -0.000000  f :    -0.000003
      f+1     :    -0.000001
      f-1     :     0.000000
      f+2     :     0.000000
      f-2     :    -0.000001
      f+3     :    -0.000000
      f-3     :    -0.000001
  1 O s       :     0.000078  s :     0.000078
      pz      :    -0.000024  p :     0.000107
      px      :     0.000031
      py      :     0.000100
      dz2     :     0.000000  d :     0.000001
      dxz     :    -0.000000
      dyz     :     0.000001
      dx2y2   :     0.000000
      dxy     :     0.000000
      f0      :     0.000000  f :    -0.000000
      f+1     :    -0.000000
      f-1     :    -0.000000
      f+2     :     0.000000
      f-2     :    -0.000000
      f+3     :    -0.000000
      f-3     :    -0.000000
  2 H s       :     0.000093  s :     0.000093
      pz      :    -0.000000  p :     0.000000
      px      :     0.000001
      py      :     0.000000
  3 H s       :     0.001167  s :     0.001167
      pz      :     0.000005  p :     0.000005
      px      :    -0.000002
      py      :     0.000002
  4 H s       :     0.000551  s :     0.000551
      pz      :    -0.000000  p :    -0.000000
      px      :     0.000001
      py      :    -0.000001
  5 H s       :     0.008389  s :     0.008389
      pz      :     0.000015  p :    -0.000011
      px      :    -0.000020
      py      :    -0.000006
  6 C s       :     3.212783  s :     3.212783
      pz      :     0.985242  p :     2.850486
      px      :     0.823611
      py      :     1.041633
      dz2     :     0.012098  d :     0.101665
      dxz     :     0.023918
      dyz     :     0.021221
      dx2y2   :     0.023779
      dxy     :     0.020648
      f0      :     0.000219  f :     0.007813
      f+1     :     0.001674
      f-1     :     0.000132
      f+2     :     0.001938
      f-2     :     0.001571
      f+3     :     0.001246
      f-3     :     0.001034
  7 O s       :     3.792223  s :     3.792223
      pz      :     1.560740  p :     4.650661
      px      :     1.329992
      py      :     1.759929
      dz2     :     0.003863  d :     0.030192
      dxz     :     0.012877
      dyz     :     0.005662
      dx2y2   :     0.003731
      dxy     :     0.004058
      f0      :     0.000068  f :     0.001692
      f+1     :     0.000186
      f-1     :     0.000071
      f+2     :     0.000244
      f-2     :     0.000473
      f+3     :     0.000251
      f-3     :     0.000399
  8 H s       :     0.633408  s :     0.633408
      pz      :     0.013692  p :     0.046241
      px      :     0.014494
      py      :     0.018055
  9 H s       :     0.872295  s :     0.872295
      pz      :     0.007138  p :     0.019447
      px      :     0.004362
      py      :     0.007947
 10 H s       :     0.872764  s :     0.872764
      pz      :     0.006800  p :     0.020997
      px      :     0.003817
      py      :     0.010380
 11 H s       :     0.858145  s :     0.858145
      pz      :     0.006334  p :     0.020174
      px      :     0.008753
      py      :     0.005088


                     *******************************
                     * LOEWDIN POPULATION ANALYSIS *
                     *******************************

----------------------
LOEWDIN ATOMIC CHARGES
----------------------
   0 C :   -0.008353
   1 O :   -0.000061
   2 H :   -0.000146
   3 H :   -0.002093
   4 H :   -0.000089
   5 H :   -0.007174
   6 C :   -0.388538
   7 O :   -0.062568
   8 H :    0.179846
   9 H :    0.093679
  10 H :    0.087162
  11 H :    0.108335

-------------------------------
LOEWDIN REDUCED ORBITAL CHARGES
-------------------------------
  0 C s       :     0.000694  s :     0.000694
      pz      :     0.002628  p :     0.007251
      px      :     0.002306
      py      :     0.002317
      dz2     :     0.000029  d :     0.000403
      dxz     :     0.000138
      dyz     :     0.000094
      dx2y2   :     0.000023
      dxy     :     0.000117
      f0      :     0.000000  f :     0.000006
      f+1     :     0.000001
      f-1     :     0.000000
      f+2     :     0.000000
      f-2     :     0.000002
      f+3     :     0.000001
      f-3     :     0.000002
  1 O s       :     0.000016  s :     0.000016
      pz      :     0.000009  p :     0.000042
      px      :     0.000028
      py      :     0.000005
      dz2     :     0.000000  d :     0.000003
      dxz     :     0.000000
      dyz     :     0.000000
      dx2y2   :     0.000001
      dxy     :     0.000001
      f0      :     0.000000  f :     0.000000
      f+1     :     0.000000
      f-1     :     0.000000
      f+2     :     0.000000
      f-2     :     0.000000
      f+3     :     0.000000
      f-3     :     0.000000
  2 H s       :     0.000145  s :     0.000145
      pz      :     0.000000  p :     0.000001
      px      :     0.000000
      py      :     0.000000
  3 H s       :     0.002081  s :     0.002081
      pz      :     0.000001  p :     0.000011
      px      :     0.000008
      py      :     0.000003
  4 H s       :     0.000087  s :     0.000087
      pz      :     0.000000  p :     0.000002
      px      :     0.000001
      py      :     0.000001
  5 H s       :     0.006979  s :     0.006979
      pz      :     0.000075  p :     0.000195
      px      :     0.000040
      py      :     0.000080
  6 C s       :     2.842836  s :     2.842836
      pz      :     1.049764  p :     3.063776
      px      :     0.928817
      py      :     1.085196
      dz2     :     0.033029  d :     0.422909
      dxz     :     0.121113
      dyz     :     0.093733
      dx2y2   :     0.099023
      dxy     :     0.076011
      f0      :     0.006378  f :     0.059017
      f+1     :     0.011868
      f-1     :     0.002344
      f+2     :     0.009341
      f-2     :     0.007867
      f+3     :     0.011669
      f-3     :     0.009550
  7 O s       :     3.361858  s :     3.361858
      pz      :     1.580254  p :     4.624177
      px      :     1.363152
      py      :     1.680772
      dz2     :     0.008038  d :     0.071882
      dxz     :     0.027845
      dyz     :     0.010042
      dx2y2   :     0.011580
      dxy     :     0.014377
      f0      :     0.000297  f :     0.004651
      f+1     :     0.001119
      f-1     :     0.000211
      f+2     :     0.000605
      f-2     :     0.001130
      f+3     :     0.000561
      f-3     :     0.000728
  8 H s       :     0.667870  s :     0.667870
      pz      :     0.056285  p :     0.152284
      px      :     0.044734
      py      :     0.051265
  9 H s       :     0.843991  s :     0.843991
      pz      :     0.022834  p :     0.062330
      px      :     0.014421
      py      :     0.025076
 10 H s       :     0.845806  s :     0.845806
      pz      :     0.021786  p :     0.067032
      px      :     0.012742
      py      :     0.032504
 11 H s       :     0.831302  s :     0.831302
      pz      :     0.020265  p :     0.060363
      px      :     0.024929
      py      :     0.015169


                      *****************************
                      * MAYER POPULATION ANALYSIS *
                      *****************************

  NA   - Mulliken gross atomic population
  ZA   - Total nuclear charge
  QA   - Mulliken gross atomic charge
  VA   - Mayer's total valence
  BVA  - Mayer's bonded valence
  FA   - Mayer's free valence

  ATOM       NA         ZA         QA         VA         BVA        FA
  0 C     -0.0014     0.0000     0.0014    -0.0027    -0.0027     0.0000
  1 O      0.0002     0.0000    -0.0002     0.0004     0.0004     0.0000
  2 H      0.0001     0.0000    -0.0001     0.0002     0.0002     0.0000
  3 H      0.0012     0.0000    -0.0012     0.0023     0.0023     0.0000
  4 H      0.0006     0.0000    -0.0006     0.0011     0.0011    -0.0000
  5 H      0.0084     0.0000    -0.0084     0.0167     0.0167    -0.0000
  6 C      6.1727     6.0000    -0.1727     3.9465     3.9465    -0.0000
  7 O      8.4748     8.0000    -0.4748     1.8981     1.8981    -0.0000
  8 H      0.6796     1.0000     0.3204     0.9087     0.9087    -0.0000
  9 H      0.8917     1.0000     0.1083     0.9592     0.9592     0.0000
 10 H      0.8938     1.0000     0.1062     0.9446     0.9446     0.0000
 11 H      0.8783     1.0000     0.1217     0.9593     0.9593    -0.0000

  Mayer bond orders larger than 0.1
B(  6-C ,  7-O ) :   1.0016 B(  6-C ,  9-H ) :   0.9825 B(  6-C , 10-H ) :   0.9799 
B(  6-C , 11-H ) :   0.9739 B(  7-O ,  8-H ) :   0.8934 

-------
TIMINGS
-------

Total SCF time: 0 days 0 hours 0 min 9 sec 

Total time                  ....       9.042 sec
Sum of individual times     ....       8.769 sec  ( 97.0%)

Fock matrix formation       ....       8.273 sec  ( 91.5%)
  XC integration            ....       1.263 sec  ( 15.3% of F)
    Basis function eval.    ....       0.059 sec  (  4.7% of XC)
    Density eval.           ....       0.056 sec  (  4.4% of XC)
    XC-Functional eval.     ....       0.081 sec  (  6.4% of XC)
    XC-Potential eval.      ....       0.065 sec  (  5.1% of XC)
Diagonalization             ....       0.050 sec  (  0.6%)
Density matrix formation    ....       0.005 sec  (  0.1%)
Population analysis         ....       0.017 sec  (  0.2%)
Initial guess               ....       0.094 sec  (  1.0%)
Orbital Transformation      ....       0.000 sec  (  0.0%)
Orbital Orthonormalization  ....       0.000 sec  (  0.0%)
DIIS solution               ....       0.024 sec  (  0.3%)
SOSCF solution              ....       0.022 sec  (  0.2%)
Grid generation             ....       0.286 sec  (  3.2%)


-------------------------------------------------------------------------------
                          DFT DISPERSION CORRECTION                            
                                                                               
                              DFTD3 V3.1  Rev 1                                
                              USING zero damping                               
-------------------------------------------------------------------------------
The omegaB97X-D3 functional is recognized. Fit by Chai et al.
Active option DFTDOPT                   ...         3   

molecular C6(AA) [au] = 208.676632 


            DFT-D V3
 parameters
 s6 scaling factor         :     1.0000 
 rs6 scaling factor        :     1.2810 
 s8 scaling factor         :     1.0000 
 rs8 scaling factor        :     1.0940 
 Damping factor alpha6     :    14.0000 
 Damping factor alpha8     :    16.0000 
 ad hoc parameters k1-k3   :    16.0000     1.3333    -4.0000 

 Edisp/kcal,au: -0.146857368313  -0.000234032088 
 E6   /kcal   :  -0.030889765 
 E8   /kcal   :  -0.115967603 
 % E8         :  78.966145373 

-------------------------   ----------------
Dispersion correction           -0.000234032
-------------------------   ----------------


-------------------------   --------------------
FINAL SINGLE POINT ENERGY      -115.734308862781
-------------------------   --------------------


                            ***************************************
                            *     ORCA property calculations      *
                            ***************************************

                                    ---------------------
                                    Active property flags
                                    ---------------------
   (+) Dipole Moment


------------------------------------------------------------------------------
                       ORCA ELECTRIC PROPERTIES CALCULATION
------------------------------------------------------------------------------

Dipole Moment Calculation                       ... on
Quadrupole Moment Calculation                   ... off
Polarizability Calculation                      ... off
GBWName                                         ... 22-139_DFT_B.gbw
Electron density file                           ... 22-139_DFT_B.scfp.tmp
The origin for moment calculation is the CENTER OF MASS  = ( 6.345619,  6.687953 15.554024)

-------------
DIPOLE MOMENT
-------------
                                X             Y             Z
Electronic contribution:     -1.45469       0.44632      -1.03239
Nuclear contribution   :      1.54656      -0.30279       1.68804
                        -----------------------------------------
Total Dipole Moment    :      0.09187       0.14354       0.65564
                        -----------------------------------------
Magnitude (a.u.)       :      0.67743
Magnitude (Debye)      :      1.72189



--------------------
Rotational spectrum 
--------------------
 
Rotational constants in cm-1:     4.513768     0.840520     0.808341 
Rotational constants in MHz : 135319.363084 25198.169952 24233.456605 

 Dipole components along the rotational axes: 
x,y,z [a.u.] :     0.326682     0.592271    -0.037496 
x,y,z [Debye]:     0.830360     1.505434    -0.095307 

 
------------------------------------------------------------------------------
                      ORCA CHELPG CHARGES GENERATION
------------------------------------------------------------------------------

GBW file                           ... 22-139_DFT_B.gbw

Reading the GBW file               ... done

Grid spacing                       ...     0.300000
Point Cut-Off                      ...     2.800000
Van-der-Waals Radii                ...        COSMO
Total charge                       ...            0


Number of points X direction       ...           35
Number of points Y direction       ...           32
Number of points Z direction       ...           26
Maximum number of possible points  ...        29120
Final number of points             ...         5940


CHELPG Charges            
--------------------------------
  0   C   :       0.005289
  1   O   :      -0.033110
  2   H   :       0.024484
  3   H   :      -0.007950
  4   H   :       0.002832
  5   H   :       0.000309
  6   C   :       0.164427
  7   O   :      -0.613248
  8   H   :       0.403410
  9   H   :      -0.010047
 10   H   :       0.003329
 11   H   :       0.060274
--------------------------------
Total charge:    -0.000000
--------------------------------

CHELPG charges calculated...

Timings for individual parts in CHELPG calculation:
Grid generation                 ...        0.001 sec (=   0.000 min)
Potential calculation           ...        1.207 sec (=   0.020 min)
Fit to the potential            ...        0.002 sec (=   0.000 min)
------------------------------------------------------------------------------


Timings for individual modules:

Sum of individual times         ...       12.460 sec (=   0.208 min)
GTO integral calculation        ...        1.352 sec (=   0.023 min)  10.9 %
SCF iterations                  ...        9.868 sec (=   0.164 min)  79.2 %
CHELPG charge generation        ...        1.240 sec (=   0.021 min)   9.9 %



                             ****ORCA TERMINATED NORMALLY****
TOTAL RUN TIME: 0 days 0 hours 1 minutes 3 seconds 865 msec
