
                                 *****************
                                 * O   R   C   A *
                                 *****************

           --- An Ab Initio, DFT and Semiempirical electronic structure package ---

                  #######################################################
                  #                        -***-                        #
                  #          Department of theory and spectroscopy      #
                  #               Directorship: Frank Neese             #
                  #        Max Planck Institute fuer Kohlenforschung    #
                  #                Kaiser Wilhelm Platz 1               #
                  #                 D-45470 Muelheim/Ruhr               #
                  #                      Germany                        #
                  #                                                     #
                  #                  All rights reserved                #
                  #                        -***-                        #
                  #######################################################


                         Program Version 4.1.2  - RELEASE  -


 With contributions from (in alphabetic order):
   Daniel Aravena         : Magnetic Properties
   Michael Atanasov       : Ab Initio Ligand Field Theory
   Alexander A. Auer      : GIAO ZORA
   Ute Becker             : Parallelization
   Giovanni Bistoni       : ED, Open-shell LED
   Martin Brehm           : Molecular dynamics
   Dmytro Bykov           : SCF Hessian
   Vijay G. Chilkuri      : MRCI spin determinant printing
   Dipayan Datta          : RHF DLPNO-CCSD density
   Achintya Kumar Dutta   : EOM-CC, STEOM-CC
   Dmitry Ganyushin       : Spin-Orbit,Spin-Spin,Magnetic field MRCI
   Miquel Garcia          : C-PCM Hessian
   Yang Guo               : DLPNO-NEVPT2, CIM, IAO-localization
   Andreas Hansen         : Spin unrestricted coupled pair/coupled cluster methods
   Benjamin Helmich-Paris : CASSCF linear response (MC-RPA)
   Lee Huntington         : MR-EOM, pCC
   Robert Izsak           : Overlap fitted RIJCOSX, COSX-SCS-MP3, EOM
   Christian Kollmar      : KDIIS, OOCD, Brueckner-CCSD(T), CCSD density
   Simone Kossmann        : Meta GGA functionals, TD-DFT gradient, OOMP2, MP2 Hessian
   Martin Krupicka        : AUTO-CI
   Lucas Lang             : DCDCAS
   Dagmar Lenk            : GEPOL surface, SMD
   Dimitrios Liakos       : Extrapolation schemes; parallel MDCI
   Dimitrios Manganas     : ROCIS; embedding schemes
   Dimitrios Pantazis     : SARC Basis sets
   Taras Petrenko         : DFT Hessian,TD-DFT gradient, ASA, ECA, R-Raman, ABS, FL, XAS/XES, NRVS
   Peter Pinski           : DLPNO-MP2, DLPNO-MP2 Gradient
   Christoph Reimann      : Effective Core Potentials
   Marius Retegan         : Local ZFS, SOC
   Christoph Riplinger    : Optimizer, TS searches, QM/MM, DLPNO-CCSD(T), (RO)-DLPNO pert. Triples
   Tobias Risthaus        : Range-separated hybrids, TD-DFT gradient, RPA, STAB
   Michael Roemelt        : Restricted open shell CIS
   Masaaki Saitow         : Open-shell DLPNO
   Barbara Sandhoefer     : DKH picture change effects
   Avijit Sen             : IP-ROCIS
   Kantharuban Sivalingam : CASSCF convergence, NEVPT2, FIC-MRCI
   Bernardo de Souza      : ESD, SOC TD-DFT
   Georgi Stoychev        : AutoAux, RI-MP2 NMR
   Willem Van den Heuvel  : Paramagnetic NMR
   Boris Wezisla          : Elementary symmetry handling
   Frank Wennmohs         : Technical directorship


 We gratefully acknowledge several colleagues who have allowed us to
 interface, adapt or use parts of their codes:
   Stefan Grimme, W. Hujo, H. Kruse,             : VdW corrections, initial TS optimization,
                  C. Bannwarth                     DFT functionals, gCP, sTDA/sTD-DF
   Ed Valeev                                     : LibInt (2-el integral package), F12 methods
   Garnet Chan, S. Sharma, J. Yang, R. Olivares  : DMRG
   Ulf Ekstrom                                   : XCFun DFT Library
   Mihaly Kallay                                 : mrcc  (arbitrary order and MRCC methods)
   Andreas Klamt, Michael Diedenhofen            : otool_cosmo (COSMO solvation model)
   Jiri Pittner, Ondrej Demel                    : Mk-CCSD
   Frank Weinhold                                : gennbo (NPA and NBO analysis)
   Christopher J. Cramer and Donald G. Truhlar   : smd solvation model
   Lars Goerigk                                  : TD-DFT with DH, B97 family of functionals
   V. Asgeirsson, H. Jonsson                     : NEB implementation
   FAccTs GmbH                                   : IRC, NEB, NEB-TS, Multilevel


 Your calculation uses the libint2 library for the computation of 2-el integrals
 For citations please refer to: http://libint.valeyev.net

 This ORCA versions uses:
   CBLAS   interface :  Fast vector & matrix operations
   LAPACKE interface :  Fast linear algebra routines
   SCALAPACK package :  Parallel linear algebra routines


Your calculation utilizes the atom-pairwise dispersion correction
with the zero-damping scheme (D30)
Cite in your paper:
S.Grimme, J.Antony, S.Ehrlich and H.Krieg, J.Chem.Phys., 132, (2010), 154104 
   

XCFun DFT library Copyright 2009-2010 Ulf Ekstrom and contributors.
See http://admol.org/xcfun for more information. This is free soft-
ware; see the source code for copying conditions. There is ABSOLUTELY
NO WARRANTY; not even for MERCHANTABILITY or FITNESS FOR A PARTICULAR
PURPOSE. For details see the documentation. Scientific users of this 
library should cite U. Ekstrom, L. Visscher, R. Bast, A. J. Thorvald-
sen and K. Ruud; J.Chem.Theor.Comp. 2010, DOI: 10.1021/ct100117s
XCFun Version 0.99 
----- Orbital basis set information -----
Your calculation utilizes the basis: def2-TZVP
   F. Weigend and R. Ahlrichs, Phys. Chem. Chem. Phys. 7, 3297 (2005).

================================================================================
                                        WARNINGS
                       Please study these warnings very carefully!
================================================================================


INFO   : the flag for use of LIBINT has been found!

Your calculation utilizes the atom-pairwise dispersion correction
with the zero-damping scheme (D30)
Cite in your paper:
S.Grimme, J.Antony, S.Ehrlich and H.Krieg, J.Chem.Phys., 132, (2010), 154104 
   

XCFun DFT library Copyright 2009-2010 Ulf Ekstrom and contributors.
See http://admol.org/xcfun for more information. This is free soft-
ware; see the source code for copying conditions. There is ABSOLUTELY
NO WARRANTY; not even for MERCHANTABILITY or FITNESS FOR A PARTICULAR
PURPOSE. For details see the documentation. Scientific users of this 
library should cite U. Ekstrom, L. Visscher, R. Bast, A. J. Thorvald-
sen and K. Ruud; J.Chem.Theor.Comp. 2010, DOI: 10.1021/ct100117s
XCFun Version 0.99 
----- Orbital basis set information -----
Your calculation utilizes the basis: def2-TZVP
   F. Weigend and R. Ahlrichs, Phys. Chem. Chem. Phys. 7, 3297 (2005).

================================================================================
                                        WARNINGS
                       Please study these warnings very carefully!
================================================================================


WARNING: MOInp is set but Guess=PModel. MOInp will be ignored!
         To read the initial guess from a file you must also specify
         'MORead' in the simple input or 'Guess MORead' in the %scf block


INFO   : the flag for use of LIBINT has been found!

Your calculation utilizes the atom-pairwise dispersion correction
with the zero-damping scheme (D30)
Cite in your paper:
S.Grimme, J.Antony, S.Ehrlich and H.Krieg, J.Chem.Phys., 132, (2010), 154104 
   

XCFun DFT library Copyright 2009-2010 Ulf Ekstrom and contributors.
See http://admol.org/xcfun for more information. This is free soft-
ware; see the source code for copying conditions. There is ABSOLUTELY
NO WARRANTY; not even for MERCHANTABILITY or FITNESS FOR A PARTICULAR
PURPOSE. For details see the documentation. Scientific users of this 
library should cite U. Ekstrom, L. Visscher, R. Bast, A. J. Thorvald-
sen and K. Ruud; J.Chem.Theor.Comp. 2010, DOI: 10.1021/ct100117s
XCFun Version 0.99 
----- Orbital basis set information -----
Your calculation utilizes the basis: def2-TZVP
   F. Weigend and R. Ahlrichs, Phys. Chem. Chem. Phys. 7, 3297 (2005).

================================================================================
                                        WARNINGS
                       Please study these warnings very carefully!
================================================================================


WARNING: MOInp is set but Guess=PModel. MOInp will be ignored!
         To read the initial guess from a file you must also specify
         'MORead' in the simple input or 'Guess MORead' in the %scf block


INFO   : the flag for use of LIBINT has been found!

================================================================================
                                       INPUT FILE
================================================================================
NAME = 8-198.in
|  1> #Run DFT-D3 single point of the dimer
|  2> ! wB97X-D3 def2-TZVP TIGHTSCF CHELPG PMODEL PAL8
|  3> 
|  4> %base "8-198_DFT_AB"
|  5> 
|  6> %scf
|  7> MaxIter 1000
|  8> end
|  9> 
| 10> * xyz 0 1
| 11>   C                      -5.723827            -4.420740            -6.893500           
| 12>   O                      -5.543455            -4.072141            -8.256521           
| 13>   H                      -5.341087            -4.846862            -8.759427           
| 14>   H                      -4.835925            -4.954805            -6.632402           
| 15>   H                      -5.821917            -3.488937            -6.411756           
| 16>   H                      -6.684576            -4.909651            -6.795096           
| 17>   C                      -1.046311            -5.840517            -7.392696           
| 18>   O                      -2.034853            -5.649059            -8.417081           
| 19>   H                      -2.908656            -5.826258            -8.049725           
| 20>   H                      -0.002871            -5.776610            -7.787120           
| 21>   H                      -1.114569            -5.024084            -6.616437           
| 22>   H                      -1.078801            -6.794849            -6.821808           
| 23> *
| 24> 
| 25> #Run DFT-D3 single point of the molecule with dimer basis set
| 26> $new_job
| 27> %base "8-198_DFT_A"
| 28> ! wB97X-D3 def2-TZVP TIGHTSCF CHELPG PMODEL
| 29> 
| 30> %scf
| 31> MaxIter 1000
| 32> end
| 33> 
| 34> * xyz 0 1
| 35>   C                      -5.723827            -4.420740            -6.893500           
| 36>   O                      -5.543455            -4.072141            -8.256521           
| 37>   H                      -5.341087            -4.846862            -8.759427           
| 38>   H                      -4.835925            -4.954805            -6.632402           
| 39>   H                      -5.821917            -3.488937            -6.411756           
| 40>   H                      -6.684576            -4.909651            -6.795096           
| 41>   C                    : -1.046311            -5.840517            -7.392696           
| 42>   O                    : -2.034853            -5.649059            -8.417081           
| 43>   H                    : -2.908656            -5.826258            -8.049725           
| 44>   H                    : -0.002871            -5.776610            -7.787120           
| 45>   H                    : -1.114569            -5.024084            -6.616437           
| 46>   H                    : -1.078801            -6.794849            -6.821808           
| 47> *
| 48> 
| 49> #Run DFT-D3 single point of the particle with dimer basis set
| 50> $new_job
| 51> %base "8-198_DFT_B"
| 52> ! wB97X-D3 def2-TZVP TIGHTSCF CHELPG PMODEL
| 53> 
| 54> %scf
| 55> MaxIter 1000
| 56> end
| 57> 
| 58> * xyz 0 1
| 59>   C                    : -5.723827            -4.420740            -6.893500           
| 60>   O                    : -5.543455            -4.072141            -8.256521           
| 61>   H                    : -5.341087            -4.846862            -8.759427           
| 62>   H                    : -4.835925            -4.954805            -6.632402           
| 63>   H                    : -5.821917            -3.488937            -6.411756           
| 64>   H                    : -6.684576            -4.909651            -6.795096           
| 65>   C                      -1.046311            -5.840517            -7.392696           
| 66>   O                      -2.034853            -5.649059            -8.417081           
| 67>   H                      -2.908656            -5.826258            -8.049725           
| 68>   H                      -0.002871            -5.776610            -7.787120           
| 69>   H                      -1.114569            -5.024084            -6.616437           
| 70>   H                      -1.078801            -6.794849            -6.821808           
| 71> *
| 72> 
| 73>                          ****END OF INPUT****
================================================================================


                 $$$$$$$$$$$$$$$$$$$$$$$$$$$$$$$$$$$$$$$$$$$$$$ 
                 $ THERE ARE  3 JOBS TO BE PROCESSED THIS RUN $
                 $$$$$$$$$$$$$$$$$$$$$$$$$$$$$$$$$$$$$$$$$$$$$$ 




                 $$$$$$$$$$$$$$$$  JOB NUMBER  1 $$$$$$$$$$$$$$


                       ****************************
                       * Single Point Calculation *
                       ****************************

---------------------------------
CARTESIAN COORDINATES (ANGSTROEM)
---------------------------------
  C     -5.723827   -4.420740   -6.893500
  O     -5.543455   -4.072141   -8.256521
  H     -5.341087   -4.846862   -8.759427
  H     -4.835925   -4.954805   -6.632402
  H     -5.821917   -3.488937   -6.411756
  H     -6.684576   -4.909651   -6.795096
  C     -1.046311   -5.840517   -7.392696
  O     -2.034853   -5.649059   -8.417081
  H     -2.908656   -5.826258   -8.049725
  H     -0.002871   -5.776610   -7.787120
  H     -1.114569   -5.024084   -6.616437
  H     -1.078801   -6.794849   -6.821808

----------------------------
CARTESIAN COORDINATES (A.U.)
----------------------------
  NO LB      ZA    FRAG     MASS         X           Y           Z
   0 C     6.0000    0    12.011  -10.816465   -8.353988  -13.026827
   1 O     8.0000    0    15.999  -10.475612   -7.695231  -15.602564
   2 H     1.0000    0     1.008  -10.093192   -9.159242  -16.552918
   3 H     1.0000    0     1.008   -9.138574   -9.363224  -12.533423
   4 H     1.0000    0     1.008  -11.001829   -6.593135  -12.116463
   5 H     1.0000    0     1.008  -12.632018   -9.277896  -12.840870
   6 C     6.0000    0    12.011   -1.977241  -11.036978  -13.970171
   7 O     8.0000    0    15.999   -3.845315  -10.675174  -15.905978
   8 H     1.0000    0     1.008   -5.496563  -11.010032  -15.211776
   9 H     1.0000    0     1.008   -0.005425  -10.916211  -14.715524
  10 H     1.0000    0     1.008   -2.106230   -9.494143  -12.503254
  11 H     1.0000    0     1.008   -2.038638  -12.840404  -12.891349

--------------------------------
INTERNAL COORDINATES (ANGSTROEM)
--------------------------------
 C      0   0   0     0.000000000000     0.00000000     0.00000000
 O      1   0   0     1.418408110392     0.00000000     0.00000000
 H      2   1   0     0.945547397067   109.69107194     0.00000000
 H      1   2   3     1.068535236402   104.59464044    53.47436052
 H      1   2   3     1.053544379912   103.52538813   173.20566505
 H      1   2   3     1.082476768406   108.13306543   285.33445655
 C      4   1   2     3.965312974076   149.19586662    19.44474770
 O      7   4   1     1.436396908850    56.58159285   322.63023130
 H      8   7   4     0.964303686162   109.11373889   335.50178675
 H      7   4   1     1.117327807774   161.33403733    21.41221250
 H      7   4   1     1.128627499724    69.43606813    96.94188975
 H      7   4   1     1.112527875996    93.74438679   202.01002079

---------------------------
INTERNAL COORDINATES (A.U.)
---------------------------
 C      0   0   0     0.000000000000     0.00000000     0.00000000
 O      1   0   0     2.680402874774     0.00000000     0.00000000
 H      2   1   0     1.786825627100   109.69107194     0.00000000
 H      1   2   3     2.019238961245   104.59464044    53.47436052
 H      1   2   3     1.990910347966   103.52538813   173.20566505
 H      1   2   3     2.045584638619   108.13306543   285.33445655
 C      4   1   2     7.493355556289   149.19586662    19.44474770
 O      7   4   1     2.714396777337    56.58159285   322.63023130
 H      8   7   4     1.822269876777   109.11373889   335.50178675
 H      7   4   1     2.111443558507   161.33403733    21.41221250
 H      7   4   1     2.132796881691    69.43606813    96.94188975
 H      7   4   1     2.102373001985    93.74438679   202.01002079

---------------------
BASIS SET INFORMATION
---------------------
There are 3 groups of distinct atoms

 Group   1 Type C   : 11s6p2d1f contracted to 5s3p2d1f pattern {62111/411/11/1}
 Group   2 Type O   : 11s6p2d1f contracted to 5s3p2d1f pattern {62111/411/11/1}
 Group   3 Type H   : 5s1p contracted to 3s1p pattern {311/1}

Atom   0C    basis set group =>   1
Atom   1O    basis set group =>   2
Atom   2H    basis set group =>   3
Atom   3H    basis set group =>   3
Atom   4H    basis set group =>   3
Atom   5H    basis set group =>   3
Atom   6C    basis set group =>   1
Atom   7O    basis set group =>   2
Atom   8H    basis set group =>   3
Atom   9H    basis set group =>   3
Atom  10H    basis set group =>   3
Atom  11H    basis set group =>   3


           ************************************************************
           *        Program running with 8 parallel MPI-processes     *
           *              working on a common directory               *
           ************************************************************
------------------------------------------------------------------------------
                           ORCA GTO INTEGRAL CALCULATION
------------------------------------------------------------------------------

                         BASIS SET STATISTICS AND STARTUP INFO

 # of primitive gaussian shells          ...  128
 # of primitive gaussian functions       ...  248
 # of contracted shells                  ...   76
 # of contracted basis functions         ...  172
 Highest angular momentum                ...    3
 Maximum contraction depth               ...    6
 Integral package used                   ... LIBINT
 Integral threshhold            Thresh   ...  2.500e-11
 Primitive cut-off              TCut     ...  2.500e-12


------------------------------ INTEGRAL EVALUATION ----------------------------


 * One electron integrals 
 Pre-screening matrix                    ... done
 Shell pair data                         ... done (   0.001 sec)



           ************************************************************
           *        Program running with 8 parallel MPI-processes     *
           *              working on a common directory               *
           ************************************************************
-------------------------------------------------------------------------------
                                 ORCA SCF
-------------------------------------------------------------------------------

------------
SCF SETTINGS
------------
Hamiltonian:
 Density Functional     Method          .... DFT(GTOs)
 Exchange Functional    Exchange        .... WB97X-D3
 Correlation Functional Correlation     .... WB97X-D3
 Gradients option       PostSCFGGA      .... off
 Hybrid DFT is turned on
   Fraction HF Exchange ScalHFX         ....  0.195728
   Scaling of DF-GGA-X  ScalDFX         ....  0.000000
   Scaling of DF-GGA-C  ScalDFC         ....  1.000000
   Scaling of DF-LDA-C  ScalLDAC        ....  1.000000
   Perturbative correction              ....  0.000000
   Density functional embedding theory  .... OFF
 Long-range corrected/Screened/Range-Separated Hybrid DFT is turned on
   Amount of maximum screened exact exchange              ....  0.804272
   Range separation parameter mu (erf(mu*r12)/r12)        ....  0.250000


General Settings:
 Integral files         IntName         .... 8-198_DFT_AB
 Hartree-Fock type      HFTyp           .... RHF
 Total Charge           Charge          ....    0
 Multiplicity           Mult            ....    1
 Number of Electrons    NEL             ....   36
 Basis Dimension        Dim             ....  172
 Nuclear Repulsion      ENuc            ....    119.6508989612 Eh

Convergence Acceleration:
 DIIS                   CNVDIIS         .... on
   Start iteration      DIISMaxIt       ....    12
   Startup error        DIISStart       ....  0.200000
   # of expansion vecs  DIISMaxEq       ....     5
   Bias factor          DIISBfac        ....   1.050
   Max. coefficient     DIISMaxC        ....  10.000
 Newton-Raphson         CNVNR           .... off
 SOSCF                  CNVSOSCF        .... on
   Start iteration      SOSCFMaxIt      ....   150
   Startup grad/error   SOSCFStart      ....  0.003300
 Level Shifting         CNVShift        .... on
   Level shift para.    LevelShift      ....    0.2500
   Turn off err/grad.   ShiftErr        ....    0.0010
 Zerner damping         CNVZerner       .... off
 Static damping         CNVDamp         .... on
   Fraction old density DampFac         ....    0.7000
   Max. Damping (<1)    DampMax         ....    0.9800
   Min. Damping (>=0)   DampMin         ....    0.0000
   Turn off err/grad.   DampErr         ....    0.1000
 Fernandez-Rico         CNVRico         .... off

SCF Procedure:
 Maximum # iterations   MaxIter         ....  1000
 SCF integral mode      SCFMode         .... Direct
   Integral package                     .... LIBINT
 Reset frequency        DirectResetFreq ....    20
 Integral Threshold     Thresh          ....  2.500e-11 Eh
 Primitive CutOff       TCut            ....  2.500e-12 Eh

Convergence Tolerance:
 Convergence Check Mode ConvCheckMode   .... Total+1el-Energy
 Convergence forced     ConvForced      .... 0
 Energy Change          TolE            ....  1.000e-08 Eh
 1-El. energy change                    ....  1.000e-05 Eh
 Orbital Gradient       TolG            ....  1.000e-05
 Orbital Rotation angle TolX            ....  1.000e-05
 DIIS Error             TolErr          ....  5.000e-07


Diagonalization of the overlap matrix:
Smallest eigenvalue                        ... 1.348e-03
Time for diagonalization                   ...    0.004 sec
Threshold for overlap eigenvalues          ... 1.000e-08
Number of eigenvalues below threshold      ... 0
Time for construction of square roots      ...    0.012 sec
Total time needed                          ...    0.016 sec

-------------------
DFT GRID GENERATION
-------------------

General Integration Accuracy     IntAcc      ...  4.340
Radial Grid Type                 RadialGrid  ... Gauss-Chebyshev
Angular Grid (max. acc.)         AngularGrid ... Lebedev-110
Angular grid pruning method      GridPruning ... 3 (G Style)
Weight generation scheme         WeightScheme... Becke
Basis function cutoff            BFCut       ...    1.0000e-11
Integration weight cutoff        WCut        ...    1.0000e-14
Grids for H and He will be reduced by one unit

# of grid points (after initial pruning)     ...  13096 (   0.0 sec)
# of grid points (after weights+screening)   ...  12509 (   0.0 sec)
nearest neighbour list constructed           ...    0.0 sec
Grid point re-assignment to atoms done       ...    0.0 sec
Grid point division into batches done        ...    0.0 sec
Reduced shell lists constructed in    0.0 sec

Total number of grid points                  ...    12509
Total number of batches                      ...      201
Average number of points per batch           ...       62
Average number of grid points per atom       ...     1042
Average number of shells per batch           ...    49.11 (64.62%)
Average number of basis functions per batch  ...   107.41 (62.45%)
Average number of large shells per batch     ...    39.70 (80.84%)
Average number of large basis fcns per batch ...    87.56 (81.52%)
Maximum spatial batch extension              ...  21.64, 16.20, 13.23 au
Average spatial batch extension              ...   0.39,  0.35,  0.35 au

Time for grid setup =    0.068 sec

------------------------------
INITIAL GUESS: MODEL POTENTIAL
------------------------------
Loading Hartree-Fock densities                     ... done
Calculating cut-offs                               ... done
Setting up the integral package                    ... done
Initializing the effective Hamiltonian             ... done
Starting the Coulomb interaction                   ... done (   0.0 sec)
Reading the grid                                   ... done
Mapping shells                                     ... done
Starting the XC term evaluation                    ... done (   0.0 sec)
  promolecular density results
     # of electrons  =     35.988813451
     EX              =    -28.853687516
     EC              =     -1.150854467
     EX+EC           =    -30.004541982
Transforming the Hamiltonian                       ... done (   0.0 sec)
Diagonalizing the Hamiltonian                      ... done (   0.0 sec)
Back transforming the eigenvectors                 ... done (   0.0 sec)
Now organizing SCF variables                       ... done
                      ------------------
                      INITIAL GUESS DONE (   0.2 sec)
                      ------------------
--------------
SCF ITERATIONS
--------------
ITER       Energy         Delta-E        Max-DP      RMS-DP      [F,P]     Damp
               ***  Starting incremental Fock matrix formation  ***
  0   -231.2889166038   0.000000000000 0.03853499  0.00107336  0.2589306 0.7000
  1   -231.3633584435  -0.074441839636 0.02376823  0.00076297  0.1299611 0.7000
                               ***Turning on DIIS***
  2   -231.3974691156  -0.034110672111 0.03700544  0.00137418  0.0510368 0.0000
  3   -231.4529913243  -0.055522208744 0.01873001  0.00050317  0.0634285 0.0000
  4   -231.4620711587  -0.009079834332 0.00451835  0.00010031  0.0069156 0.0000
                      *** Initiating the SOSCF procedure ***
                           *** Shutting down DIIS ***
                      *** Re-Reading the Fockian *** 
                      *** Removing any level shift *** 
ITER      Energy       Delta-E        Grad      Rot      Max-DP    RMS-DP
  5   -231.46226311  -0.0001919521  0.000453  0.000453  0.000766  0.000035
               *** Restarting incremental Fock matrix formation ***
  6   -231.46227998  -0.0000168677  0.000154  0.000295  0.000528  0.000021
  7   -231.46228176  -0.0000017785  0.000055  0.000161  0.000258  0.000010
  8   -231.46228191  -0.0000001563  0.000034  0.000028  0.000052  0.000001
  9   -231.46228194  -0.0000000223  0.000016  0.000012  0.000020  0.000001
 10   -231.46228194  -0.0000000054  0.000004  0.000004  0.000006  0.000000
                  ***Gradient check signals convergence***
              ***Rediagonalizing the Fockian in SOSCF/NRSCF***

               *****************************************************
               *                     SUCCESS                       *
               *           SCF CONVERGED AFTER  11 CYCLES          *
               *****************************************************

Setting up the final grid:

General Integration Accuracy     IntAcc      ...  4.670
Radial Grid Type                 RadialGrid  ... Gauss-Chebyshev
Angular Grid (max. acc.)         AngularGrid ... Lebedev-302
Angular grid pruning method      GridPruning ... 3 (G Style)
Weight generation scheme         WeightScheme... Becke
Basis function cutoff            BFCut       ...    1.0000e-11
Integration weight cutoff        WCut        ...    1.0000e-14
Grids for H and He will be reduced by one unit

# of grid points (after initial pruning)     ...  52000 (   0.0 sec)
# of grid points (after weights+screening)   ...  49275 (   0.0 sec)
nearest neighbour list constructed           ...    0.0 sec
Grid point re-assignment to atoms done       ...    0.0 sec
Grid point division into batches done        ...    0.2 sec
Reduced shell lists constructed in    0.2 sec

Total number of grid points                  ...    49275
Total number of batches                      ...      776
Average number of points per batch           ...       63
Average number of grid points per atom       ...     4106
Average number of shells per batch           ...    47.21 (62.12%)
Average number of basis functions per batch  ...   103.09 (59.94%)
Average number of large shells per batch     ...    38.14 (80.79%)
Average number of large basis fcns per batch ...    84.10 (81.58%)
Maximum spatial batch extension              ...  16.94, 15.48, 13.57 au
Average spatial batch extension              ...   0.25,  0.24,  0.23 au

Final grid set up in    0.3 sec
Final integration                            ... done (   0.1 sec)
Change in XC energy                          ...    -0.000257407
Integrated number of electrons               ...    36.000028876
Previous integrated no of electrons          ...    35.997836888

----------------
TOTAL SCF ENERGY
----------------

Total Energy       :         -231.46253935 Eh           -6298.41590 eV

Components:
Nuclear Repulsion  :          119.65089896 Eh            3255.86649 eV
Electronic Energy  :         -351.11343831 Eh           -9554.28239 eV
One Electron Energy:         -551.99255928 Eh          -15020.48116 eV
Two Electron Energy:          200.87912097 Eh            5466.19878 eV

Virial components:
Potential Energy   :         -461.94451094 Eh          -12570.14920 eV
Kinetic Energy     :          230.48197159 Eh            6271.73330 eV
Virial Ratio       :            2.00425442


DFT components:
N(Alpha)           :       18.000014438053 electrons
N(Beta)            :       18.000014438053 electrons
N(Total)           :       36.000028876106 electrons
E(XC)              :      -21.301893148441 Eh       
DFET-embed. en.    :        0.000000000000 Eh       

---------------
SCF CONVERGENCE
---------------

  Last Energy change         ...   -5.9353e-10  Tolerance :   1.0000e-08
  Last MAX-Density change    ...    2.9703e-06  Tolerance :   1.0000e-07
  Last RMS-Density change    ...    7.6746e-08  Tolerance :   5.0000e-09
  Last Orbital Gradient      ...    1.9677e-06  Tolerance :   1.0000e-05
  Last Orbital Rotation      ...    1.9381e-06  Tolerance :   1.0000e-05

             **** THE GBW FILE WAS UPDATED (8-198_DFT_AB.gbw) ****
             **** DENSITY FILE WAS UPDATED (8-198_DFT_AB.scfp.tmp) ****
             **** ENERGY FILE WAS UPDATED (8-198_DFT_AB.en.tmp) ****
----------------
ORBITAL ENERGIES
----------------

  NO   OCC          E(Eh)            E(eV) 
   0   2.0000     -19.239484      -523.5330 
   1   2.0000     -19.225082      -523.1411 
   2   2.0000     -10.326472      -280.9976 
   3   2.0000     -10.311140      -280.5804 
   4   2.0000      -1.139456       -31.0062 
   5   2.0000      -1.134210       -30.8634 
   6   2.0000      -0.807061       -21.9612 
   7   2.0000      -0.795889       -21.6572 
   8   2.0000      -0.615479       -16.7480 
   9   2.0000      -0.608560       -16.5598 
  10   2.0000      -0.566456       -15.4140 
  11   2.0000      -0.533721       -14.5233 
  12   2.0000      -0.532617       -14.4932 
  13   2.0000      -0.526485       -14.3264 
  14   2.0000      -0.437768       -11.9123 
  15   2.0000      -0.434015       -11.8102 
  16   2.0000      -0.379025       -10.3138 
  17   2.0000      -0.376092       -10.2340 
  18   0.0000       0.082391         2.2420 
  19   0.0000       0.130315         3.5460 
  20   0.0000       0.159420         4.3380 
  21   0.0000       0.161176         4.3858 
  22   0.0000       0.189843         5.1659 
  23   0.0000       0.199269         5.4224 
  24   0.0000       0.202416         5.5080 
  25   0.0000       0.208253         5.6668 
  26   0.0000       0.213709         5.8153 
  27   0.0000       0.267221         7.2715 
  28   0.0000       0.294045         8.0014 
  29   0.0000       0.301687         8.2093 
  30   0.0000       0.318188         8.6583 
  31   0.0000       0.329338         8.9617 
  32   0.0000       0.390454        10.6248 
  33   0.0000       0.401595        10.9280 
  34   0.0000       0.451278        12.2799 
  35   0.0000       0.457783        12.4569 
  36   0.0000       0.470267        12.7966 
  37   0.0000       0.490120        13.3369 
  38   0.0000       0.519679        14.1412 
  39   0.0000       0.539132        14.6705 
  40   0.0000       0.544758        14.8236 
  41   0.0000       0.551858        15.0168 
  42   0.0000       0.557962        15.1829 
  43   0.0000       0.576497        15.6873 
  44   0.0000       0.587759        15.9937 
  45   0.0000       0.615622        16.7519 
  46   0.0000       0.623407        16.9638 
  47   0.0000       0.671726        18.2786 
  48   0.0000       0.689287        18.7565 
  49   0.0000       0.718983        19.5645 
  50   0.0000       0.776493        21.1295 
  51   0.0000       0.803100        21.8535 
  52   0.0000       0.819382        22.2965 
  53   0.0000       0.840165        22.8620 
  54   0.0000       0.863262        23.4906 
  55   0.0000       0.878805        23.9135 
  56   0.0000       0.977422        26.5970 
  57   0.0000       0.997391        27.1404 
  58   0.0000       1.012717        27.5574 
  59   0.0000       1.030666        28.0458 
  60   0.0000       1.099077        29.9074 
  61   0.0000       1.115969        30.3671 
  62   0.0000       1.370735        37.2996 
  63   0.0000       1.385237        37.6942 
  64   0.0000       1.499555        40.8050 
  65   0.0000       1.515584        41.2411 
  66   0.0000       1.537361        41.8337 
  67   0.0000       1.554950        42.3123 
  68   0.0000       1.576138        42.8889 
  69   0.0000       1.589355        43.2485 
  70   0.0000       1.603951        43.6457 
  71   0.0000       1.618862        44.0515 
  72   0.0000       1.624226        44.1974 
  73   0.0000       1.655618        45.0517 
  74   0.0000       1.663018        45.2530 
  75   0.0000       1.663318        45.2612 
  76   0.0000       1.689413        45.9713 
  77   0.0000       1.749612        47.6094 
  78   0.0000       1.768876        48.1336 
  79   0.0000       1.799748        48.9736 
  80   0.0000       1.948810        53.0298 
  81   0.0000       1.949739        53.0551 
  82   0.0000       2.007191        54.6185 
  83   0.0000       2.016276        54.8657 
  84   0.0000       2.040214        55.5170 
  85   0.0000       2.062919        56.1349 
  86   0.0000       2.082212        56.6599 
  87   0.0000       2.101035        57.1721 
  88   0.0000       2.109223        57.3949 
  89   0.0000       2.136313        58.1320 
  90   0.0000       2.243854        61.0584 
  91   0.0000       2.299540        62.5737 
  92   0.0000       2.322907        63.2095 
  93   0.0000       2.324399        63.2501 
  94   0.0000       2.344424        63.7950 
  95   0.0000       2.357662        64.1552 
  96   0.0000       2.366193        64.3874 
  97   0.0000       2.387984        64.9803 
  98   0.0000       2.419924        65.8495 
  99   0.0000       2.438327        66.3503 
 100   0.0000       2.495427        67.9040 
 101   0.0000       2.554758        69.5185 
 102   0.0000       2.565511        69.8111 
 103   0.0000       2.609701        71.0136 
 104   0.0000       2.626646        71.4747 
 105   0.0000       2.677222        72.8509 
 106   0.0000       2.713588        73.8405 
 107   0.0000       2.713712        73.8438 
 108   0.0000       2.808255        76.4165 
 109   0.0000       2.821303        76.7716 
 110   0.0000       2.862173        77.8837 
 111   0.0000       2.887251        78.5661 
 112   0.0000       2.910825        79.2076 
 113   0.0000       2.947607        80.2085 
 114   0.0000       2.983603        81.1880 
 115   0.0000       2.998875        81.6035 
 116   0.0000       3.083819        83.9150 
 117   0.0000       3.106835        84.5413 
 118   0.0000       3.135322        85.3164 
 119   0.0000       3.199250        87.0560 
 120   0.0000       3.226663        87.8020 
 121   0.0000       3.323174        90.4281 
 122   0.0000       3.383829        92.0787 
 123   0.0000       3.400443        92.5308 
 124   0.0000       3.424417        93.1831 
 125   0.0000       3.453610        93.9775 
 126   0.0000       3.493571        95.0649 
 127   0.0000       3.530685        96.0748 
 128   0.0000       3.554055        96.7108 
 129   0.0000       3.624650        98.6318 
 130   0.0000       3.637483        98.9810 
 131   0.0000       3.653775        99.4243 
 132   0.0000       3.656768        99.5057 
 133   0.0000       3.684417       100.2581 
 134   0.0000       3.988512       108.5329 
 135   0.0000       4.021097       109.4196 
 136   0.0000       4.171188       113.5038 
 137   0.0000       4.201083       114.3173 
 138   0.0000       4.234004       115.2131 
 139   0.0000       4.339564       118.0855 
 140   0.0000       4.346496       118.2742 
 141   0.0000       4.533770       123.3702 
 142   0.0000       4.580948       124.6539 
 143   0.0000       4.605994       125.3355 
 144   0.0000       5.328543       144.9970 
 145   0.0000       5.338652       145.2721 
 146   0.0000       5.401335       146.9778 
 147   0.0000       5.422532       147.5546 
 148   0.0000       5.537289       150.6773 
 149   0.0000       5.569415       151.5515 
 150   0.0000       5.774580       157.1343 
 151   0.0000       5.797468       157.7571 
 152   0.0000       5.823816       158.4741 
 153   0.0000       5.835142       158.7823 
 154   0.0000       5.938674       161.5995 
 155   0.0000       5.979271       162.7042 
 156   0.0000       6.335391       172.3948 
 157   0.0000       6.426450       174.8726 
 158   0.0000       6.510716       177.1656 
 159   0.0000       6.531758       177.7382 
 160   0.0000       6.726462       183.0363 
 161   0.0000       6.755072       183.8149 
 162   0.0000       6.778236       184.4452 
 163   0.0000       6.830160       185.8581 
 164   0.0000       7.034409       191.4160 
 165   0.0000       7.055729       191.9962 
 166   0.0000       7.185636       195.5311 
 167   0.0000       7.245358       197.1562 
 168   0.0000      22.252362       605.5176 
 169   0.0000      22.476521       611.6172 
 170   0.0000      43.670546      1188.3360 
 171   0.0000      43.697960      1189.0819 

                    ********************************
                    * MULLIKEN POPULATION ANALYSIS *
                    ********************************

-----------------------
MULLIKEN ATOMIC CHARGES
-----------------------
   0 C :   -0.139707
   1 O :   -0.478013
   2 H :    0.306180
   3 H :    0.078829
   4 H :    0.124066
   5 H :    0.110024
   6 C :   -0.184493
   7 O :   -0.458899
   8 H :    0.299738
   9 H :    0.127779
  10 H :    0.106339
  11 H :    0.108157
Sum of atomic charges:    0.0000000

--------------------------------
MULLIKEN REDUCED ORBITAL CHARGES
--------------------------------
  0 C s       :     3.222690  s :     3.222690
      pz      :     0.719156  p :     2.814162
      px      :     1.026657
      py      :     1.068350
      dz2     :     0.018435  d :     0.095030
      dxz     :     0.032325
      dyz     :     0.033194
      dx2y2   :     0.002653
      dxy     :     0.008423
      f0      :     0.001909  f :     0.007824
      f+1     :     0.002440
      f-1     :     0.001902
      f+2     :     0.000349
      f-2     :     0.000356
      f+3     :     0.000047
      f-3     :     0.000821
  1 O s       :     3.788287  s :     3.788287
      pz      :     1.271688  p :     4.657351
      px      :     1.876068
      py      :     1.509595
      dz2     :     0.006828  d :     0.030650
      dxz     :     0.003714
      dyz     :     0.012096
      dx2y2   :     0.005075
      dxy     :     0.002938
      f0      :     0.000492  f :     0.001726
      f+1     :     0.000265
      f-1     :     0.000198
      f+2     :     0.000315
      f-2     :     0.000172
      f+3     :     0.000128
      f-3     :     0.000156
  2 H s       :     0.644042  s :     0.644042
      pz      :     0.014613  p :     0.049778
      px      :     0.018482
      py      :     0.016682
  3 H s       :     0.901076  s :     0.901076
      pz      :     0.004105  p :     0.020095
      px      :     0.010131
      py      :     0.005859
  4 H s       :     0.854902  s :     0.854902
      pz      :     0.005307  p :     0.021031
      px      :     0.004735
      py      :     0.010989
  5 H s       :     0.870321  s :     0.870321
      pz      :     0.003171  p :     0.019655
      px      :     0.010994
      py      :     0.005490
  6 C s       :     3.234527  s :     3.234527
      pz      :     0.877826  p :     2.846191
      px      :     0.917609
      py      :     1.050756
      dz2     :     0.023378  d :     0.096585
      dxz     :     0.012353
      dyz     :     0.027443
      dx2y2   :     0.017985
      dxy     :     0.015426
      f0      :     0.000884  f :     0.007190
      f+1     :     0.001515
      f-1     :     0.000354
      f+2     :     0.002040
      f-2     :     0.001442
      f+3     :     0.000402
      f-3     :     0.000553
  7 O s       :     3.794134  s :     3.794134
      pz      :     1.538687  p :     4.634269
      px      :     1.219283
      py      :     1.876299
      dz2     :     0.006102  d :     0.028904
      dxz     :     0.011457
      dyz     :     0.004071
      dx2y2   :     0.004595
      dxy     :     0.002680
      f0      :     0.000141  f :     0.001592
      f+1     :     0.000148
      f-1     :     0.000075
      f+2     :     0.000452
      f-2     :     0.000162
      f+3     :     0.000385
      f-3     :     0.000229
  8 H s       :     0.652595  s :     0.652595
      pz      :     0.012476  p :     0.047667
      px      :     0.017671
      py      :     0.017520
  9 H s       :     0.852734  s :     0.852734
      pz      :     0.003772  p :     0.019486
      px      :     0.011352
      py      :     0.004362
 10 H s       :     0.874664  s :     0.874664
      pz      :     0.007508  p :     0.018997
      px      :     0.003084
      py      :     0.008406
 11 H s       :     0.872926  s :     0.872926
      pz      :     0.005822  p :     0.018917
      px      :     0.003137
      py      :     0.009958


                     *******************************
                     * LOEWDIN POPULATION ANALYSIS *
                     *******************************

----------------------
LOEWDIN ATOMIC CHARGES
----------------------
   0 C :   -0.363375
   1 O :   -0.076620
   2 H :    0.151341
   3 H :    0.086181
   4 H :    0.104438
   5 H :    0.097460
   6 C :   -0.385412
   7 O :   -0.087777
   8 H :    0.162859
   9 H :    0.114083
  10 H :    0.099992
  11 H :    0.096830

-------------------------------
LOEWDIN REDUCED ORBITAL CHARGES
-------------------------------
  0 C s       :     2.857541  s :     2.857541
      pz      :     0.850601  p :     3.046068
      px      :     1.084347
      py      :     1.111120
      dz2     :     0.102637  d :     0.400745
      dxz     :     0.103769
      dyz     :     0.115885
      dx2y2   :     0.025081
      dxy     :     0.053373
      f0      :     0.014953  f :     0.059021
      f+1     :     0.018467
      f-1     :     0.013711
      f+2     :     0.005770
      f-2     :     0.002509
      f+3     :     0.000336
      f-3     :     0.003275
  1 O s       :     3.359656  s :     3.359656
      pz      :     1.335571  p :     4.639980
      px      :     1.775536
      py      :     1.528873
      dz2     :     0.018728  d :     0.072284
      dxz     :     0.013288
      dyz     :     0.030530
      dx2y2   :     0.006179
      dxy     :     0.003559
      f0      :     0.001374  f :     0.004701
      f+1     :     0.000844
      f-1     :     0.000842
      f+2     :     0.000896
      f-2     :     0.000363
      f+3     :     0.000190
      f-3     :     0.000192
  2 H s       :     0.682705  s :     0.682705
      pz      :     0.040685  p :     0.165955
      px      :     0.051787
      py      :     0.073483
  3 H s       :     0.850242  s :     0.850242
      pz      :     0.013136  p :     0.063577
      px      :     0.030750
      py      :     0.019692
  4 H s       :     0.830329  s :     0.830329
      pz      :     0.015182  p :     0.065233
      px      :     0.015070
      py      :     0.034980
  5 H s       :     0.840800  s :     0.840800
      pz      :     0.010166  p :     0.061740
      px      :     0.033041
      py      :     0.018533
  6 C s       :     2.879830  s :     2.879830
      pz      :     0.973383  p :     3.057765
      px      :     0.981179
      py      :     1.103203
      dz2     :     0.072241  d :     0.396960
      dxz     :     0.082795
      dyz     :     0.119511
      dx2y2   :     0.080908
      dxy     :     0.041506
      f0      :     0.008020  f :     0.050857
      f+1     :     0.012239
      f-1     :     0.002878
      f+2     :     0.007604
      f-2     :     0.009912
      f+3     :     0.003896
      f-3     :     0.006308
  7 O s       :     3.382348  s :     3.382348
      pz      :     1.582426  p :     4.634663
      px      :     1.266434
      py      :     1.785803
      dz2     :     0.014062  d :     0.066565
      dxz     :     0.023599
      dyz     :     0.007373
      dx2y2   :     0.013828
      dxy     :     0.007702
      f0      :     0.000703  f :     0.004202
      f+1     :     0.000725
      f-1     :     0.000191
      f+2     :     0.001019
      f-2     :     0.000655
      f+3     :     0.000577
      f-3     :     0.000332
  8 H s       :     0.680112  s :     0.680112
      pz      :     0.044343  p :     0.157028
      px      :     0.064875
      py      :     0.047810
  9 H s       :     0.829017  s :     0.829017
      pz      :     0.012108  p :     0.056900
      px      :     0.032280
      py      :     0.012513
 10 H s       :     0.844218  s :     0.844218
      pz      :     0.021434  p :     0.055790
      px      :     0.009839
      py      :     0.024518
 11 H s       :     0.844517  s :     0.844517
      pz      :     0.017548  p :     0.058654
      px      :     0.010395
      py      :     0.030711


                      *****************************
                      * MAYER POPULATION ANALYSIS *
                      *****************************

  NA   - Mulliken gross atomic population
  ZA   - Total nuclear charge
  QA   - Mulliken gross atomic charge
  VA   - Mayer's total valence
  BVA  - Mayer's bonded valence
  FA   - Mayer's free valence

  ATOM       NA         ZA         QA         VA         BVA        FA
  0 C      6.1397     6.0000    -0.1397     3.9436     3.9436     0.0000
  1 O      8.4780     8.0000    -0.4780     1.8790     1.8790    -0.0000
  2 H      0.6938     1.0000     0.3062     0.9203     0.9203    -0.0000
  3 H      0.9212     1.0000     0.0788     0.9661     0.9661     0.0000
  4 H      0.8759     1.0000     0.1241     0.9593     0.9593    -0.0000
  5 H      0.8900     1.0000     0.1100     0.9618     0.9618    -0.0000
  6 C      6.1845     6.0000    -0.1845     3.9245     3.9245     0.0000
  7 O      8.4589     8.0000    -0.4589     1.9065     1.9065    -0.0000
  8 H      0.7003     1.0000     0.2997     0.9288     0.9288     0.0000
  9 H      0.8722     1.0000     0.1278     0.9592     0.9592    -0.0000
 10 H      0.8937     1.0000     0.1063     0.9568     0.9568     0.0000
 11 H      0.8918     1.0000     0.1082     0.9554     0.9554     0.0000

  Mayer bond orders larger than 0.1
B(  0-C ,  1-O ) :   0.9950 B(  0-C ,  3-H ) :   0.9817 B(  0-C ,  4-H ) :   0.9760 
B(  0-C ,  5-H ) :   0.9809 B(  1-O ,  2-H ) :   0.9064 B(  6-C ,  7-O ) :   0.9983 
B(  6-C ,  9-H ) :   0.9715 B(  6-C , 10-H ) :   0.9752 B(  6-C , 11-H ) :   0.9691 
B(  7-O ,  8-H ) :   0.9047 

-------
TIMINGS
-------

Total SCF time: 0 days 0 hours 0 min 10 sec 

Total time                  ....      10.661 sec
Sum of individual times     ....      10.206 sec  ( 95.7%)

Fock matrix formation       ....       9.616 sec  ( 90.2%)
  XC integration            ....       1.375 sec  ( 14.3% of F)
    Basis function eval.    ....       0.064 sec  (  4.7% of XC)
    Density eval.           ....       0.057 sec  (  4.1% of XC)
    XC-Functional eval.     ....       0.092 sec  (  6.7% of XC)
    XC-Potential eval.      ....       0.070 sec  (  5.1% of XC)
Diagonalization             ....       0.046 sec  (  0.4%)
Density matrix formation    ....       0.006 sec  (  0.1%)
Population analysis         ....       0.014 sec  (  0.1%)
Initial guess               ....       0.126 sec  (  1.2%)
Orbital Transformation      ....       0.000 sec  (  0.0%)
Orbital Orthonormalization  ....       0.000 sec  (  0.0%)
DIIS solution               ....       0.028 sec  (  0.3%)
SOSCF solution              ....       0.029 sec  (  0.3%)
Grid generation             ....       0.341 sec  (  3.2%)


-------------------------------------------------------------------------------
                          DFT DISPERSION CORRECTION                            
                                                                               
                              DFTD3 V3.1  Rev 1                                
                              USING zero damping                               
-------------------------------------------------------------------------------
The omegaB97X-D3 functional is recognized. Fit by Chai et al.
Active option DFTDOPT                   ...         3   

molecular C6(AA) [au] = 835.019263 


            DFT-D V3
 parameters
 s6 scaling factor         :     1.0000 
 rs6 scaling factor        :     1.2810 
 s8 scaling factor         :     1.0000 
 rs8 scaling factor        :     1.0940 
 Damping factor alpha6     :    14.0000 
 Damping factor alpha8     :    16.0000 
 ad hoc parameters k1-k3   :    16.0000     1.3333    -4.0000 

 Edisp/kcal,au: -0.897300829946  -0.001429939740 
 E6   /kcal   :  -0.433054034 
 E8   /kcal   :  -0.464246796 
 % E8         :  51.738144026 

-------------------------   ----------------
Dispersion correction           -0.001429940
-------------------------   ----------------


-------------------------   --------------------
FINAL SINGLE POINT ENERGY      -231.463969288416
-------------------------   --------------------


                            ***************************************
                            *     ORCA property calculations      *
                            ***************************************

                                    ---------------------
                                    Active property flags
                                    ---------------------
   (+) Dipole Moment


------------------------------------------------------------------------------
                       ORCA ELECTRIC PROPERTIES CALCULATION
------------------------------------------------------------------------------

Dipole Moment Calculation                       ... on
Quadrupole Moment Calculation                   ... off
Polarizability Calculation                      ... off
GBWName                                         ... 8-198_DFT_AB.gbw
Electron density file                           ... 8-198_DFT_AB.scfp.tmp
The origin for moment calculation is the CENTER OF MASS  = (-6.799174, -9.457845 -14.646505)

-------------
DIPOLE MOMENT
-------------
                                X             Y             Z
Electronic contribution:     -1.02868       0.71958      -2.98731
Nuclear contribution   :      0.92815      -1.48091       3.85827
                        -----------------------------------------
Total Dipole Moment    :     -0.10052      -0.76133       0.87096
                        -----------------------------------------
Magnitude (a.u.)       :      1.16116
Magnitude (Debye)      :      2.95143



--------------------
Rotational spectrum 
--------------------
 
Rotational constants in cm-1:     0.508017     0.053055     0.049370 
Rotational constants in MHz : 15229.975283  1590.536679  1480.081163 

 Dipole components along the rotational axes: 
x,y,z [a.u.] :    -0.123137     0.938448     0.672639 
x,y,z [Debye]:    -0.312991     2.385345     1.709711 

 
------------------------------------------------------------------------------
                      ORCA CHELPG CHARGES GENERATION
------------------------------------------------------------------------------

GBW file                           ... 8-198_DFT_AB.gbw

Reading the GBW file               ... done

Grid spacing                       ...     0.300000
Point Cut-Off                      ...     2.800000
Van-der-Waals Radii                ...        COSMO
Total charge                       ...            0


Number of points X direction       ...           40
Number of points Y direction       ...           29
Number of points Z direction       ...           26
Maximum number of possible points  ...        30160
Final number of points             ...        10211


CHELPG Charges            
--------------------------------
  0   C   :      -0.123055
  1   O   :      -0.566399
  2   H   :       0.388263
  3   H   :       0.052058
  4   H   :       0.151255
  5   H   :       0.086459
  6   C   :       0.161262
  7   O   :      -0.642489
  8   H   :       0.434318
  9   H   :       0.068745
 10   H   :       0.001934
 11   H   :      -0.012351
--------------------------------
Total charge:     0.000000
--------------------------------

CHELPG charges calculated...

Timings for individual parts in CHELPG calculation:
Grid generation                 ...        0.001 sec (=   0.000 min)
Potential calculation           ...        2.072 sec (=   0.035 min)
Fit to the potential            ...        0.003 sec (=   0.000 min)
------------------------------------------------------------------------------


Timings for individual modules:

Sum of individual times         ...       17.936 sec (=   0.299 min)
GTO integral calculation        ...        2.447 sec (=   0.041 min)  13.6 %
SCF iterations                  ...       13.380 sec (=   0.223 min)  74.6 %
CHELPG charge generation        ...        2.109 sec (=   0.035 min)  11.8 %


                 $$$$$$$$$$$$$$$$  JOB NUMBER  2 $$$$$$$$$$$$$$


                       ****************************
                       * Single Point Calculation *
                       ****************************

---------------------------------
CARTESIAN COORDINATES (ANGSTROEM)
---------------------------------
  C     -5.723827   -4.420740   -6.893500
  O     -5.543455   -4.072141   -8.256521
  H     -5.341087   -4.846862   -8.759427
  H     -4.835925   -4.954805   -6.632402
  H     -5.821917   -3.488937   -6.411756
  H     -6.684576   -4.909651   -6.795096
  C     -1.046311   -5.840517   -7.392696
  O     -2.034853   -5.649059   -8.417081
  H     -2.908656   -5.826258   -8.049725
  H     -0.002871   -5.776610   -7.787120
  H     -1.114569   -5.024084   -6.616437
  H     -1.078801   -6.794849   -6.821808

----------------------------
CARTESIAN COORDINATES (A.U.)
----------------------------
  NO LB      ZA    FRAG     MASS         X           Y           Z
   0 C     6.0000    0    12.011  -10.816465   -8.353988  -13.026827
   1 O     8.0000    0    15.999  -10.475612   -7.695231  -15.602564
   2 H     1.0000    0     1.008  -10.093192   -9.159242  -16.552918
   3 H     1.0000    0     1.008   -9.138574   -9.363224  -12.533423
   4 H     1.0000    0     1.008  -11.001829   -6.593135  -12.116463
   5 H     1.0000    0     1.008  -12.632018   -9.277896  -12.840870
   6 C     0.0000    0     0.000   -1.977241  -11.036978  -13.970171
   7 O     0.0000    0     0.000   -3.845315  -10.675174  -15.905978
   8 H     0.0000    0     0.000   -5.496563  -11.010032  -15.211776
   9 H     0.0000    0     0.000   -0.005425  -10.916211  -14.715524
  10 H     0.0000    0     0.000   -2.106230   -9.494143  -12.503254
  11 H     0.0000    0     0.000   -2.038638  -12.840404  -12.891349

--------------------------------
INTERNAL COORDINATES (ANGSTROEM)
--------------------------------
 C      0   0   0     0.000000000000     0.00000000     0.00000000
 O      1   0   0     1.418408110392     0.00000000     0.00000000
 H      2   1   0     0.945547397067   109.69107194     0.00000000
 H      1   2   3     1.068535236402   104.59464044    53.47436052
 H      1   2   3     1.053544379912   103.52538813   173.20566505
 H      1   2   3     1.082476768406   108.13306543   285.33445655
 C      4   1   2     3.965312974076   149.19586662    19.44474770
 O      7   4   1     1.436396908850    56.58159285   322.63023130
 H      8   7   4     0.964303686162   109.11373889   335.50178675
 H      7   4   1     1.117327807774   161.33403733    21.41221250
 H      7   4   1     1.128627499724    69.43606813    96.94188975
 H      7   4   1     1.112527875996    93.74438679   202.01002079

---------------------------
INTERNAL COORDINATES (A.U.)
---------------------------
 C      0   0   0     0.000000000000     0.00000000     0.00000000
 O      1   0   0     2.680402874774     0.00000000     0.00000000
 H      2   1   0     1.786825627100   109.69107194     0.00000000
 H      1   2   3     2.019238961245   104.59464044    53.47436052
 H      1   2   3     1.990910347966   103.52538813   173.20566505
 H      1   2   3     2.045584638619   108.13306543   285.33445655
 C      4   1   2     7.493355556289   149.19586662    19.44474770
 O      7   4   1     2.714396777337    56.58159285   322.63023130
 H      8   7   4     1.822269876777   109.11373889   335.50178675
 H      7   4   1     2.111443558507   161.33403733    21.41221250
 H      7   4   1     2.132796881691    69.43606813    96.94188975
 H      7   4   1     2.102373001985    93.74438679   202.01002079

---------------------
BASIS SET INFORMATION
---------------------
There are 3 groups of distinct atoms

 Group   1 Type C   : 11s6p2d1f contracted to 5s3p2d1f pattern {62111/411/11/1}
 Group   2 Type O   : 11s6p2d1f contracted to 5s3p2d1f pattern {62111/411/11/1}
 Group   3 Type H   : 5s1p contracted to 3s1p pattern {311/1}

Atom   0C    basis set group =>   1
Atom   1O    basis set group =>   2
Atom   2H    basis set group =>   3
Atom   3H    basis set group =>   3
Atom   4H    basis set group =>   3
Atom   5H    basis set group =>   3
Atom   6C    basis set group =>   1
Atom   7O    basis set group =>   2
Atom   8H    basis set group =>   3
Atom   9H    basis set group =>   3
Atom  10H    basis set group =>   3
Atom  11H    basis set group =>   3


           ************************************************************
           *        Program running with 8 parallel MPI-processes     *
           *              working on a common directory               *
           ************************************************************
------------------------------------------------------------------------------
                           ORCA GTO INTEGRAL CALCULATION
------------------------------------------------------------------------------

                         BASIS SET STATISTICS AND STARTUP INFO

 # of primitive gaussian shells          ...  128
 # of primitive gaussian functions       ...  248
 # of contracted shells                  ...   76
 # of contracted basis functions         ...  172
 Highest angular momentum                ...    3
 Maximum contraction depth               ...    6
 Integral package used                   ... LIBINT
 Integral threshhold            Thresh   ...  2.500e-11
 Primitive cut-off              TCut     ...  2.500e-12


------------------------------ INTEGRAL EVALUATION ----------------------------


 * One electron integrals 
 Pre-screening matrix                    ... done
 Shell pair data                         ... done (   0.001 sec)



           ************************************************************
           *        Program running with 8 parallel MPI-processes     *
           *              working on a common directory               *
           ************************************************************
-------------------------------------------------------------------------------
                                 ORCA SCF
-------------------------------------------------------------------------------

------------
SCF SETTINGS
------------
Hamiltonian:
 Density Functional     Method          .... DFT(GTOs)
 Exchange Functional    Exchange        .... WB97X-D3
 Correlation Functional Correlation     .... WB97X-D3
 Gradients option       PostSCFGGA      .... off
 Hybrid DFT is turned on
   Fraction HF Exchange ScalHFX         ....  0.195728
   Scaling of DF-GGA-X  ScalDFX         ....  0.000000
   Scaling of DF-GGA-C  ScalDFC         ....  1.000000
   Scaling of DF-LDA-C  ScalLDAC        ....  1.000000
   Perturbative correction              ....  0.000000
   Density functional embedding theory  .... OFF
 Long-range corrected/Screened/Range-Separated Hybrid DFT is turned on
   Amount of maximum screened exact exchange              ....  0.804272
   Range separation parameter mu (erf(mu*r12)/r12)        ....  0.250000


General Settings:
 Integral files         IntName         .... 8-198_DFT_A
 Hartree-Fock type      HFTyp           .... RHF
 Total Charge           Charge          ....    0
 Multiplicity           Mult            ....    1
 Number of Electrons    NEL             ....   18
 Basis Dimension        Dim             ....  172
 Nuclear Repulsion      ENuc            ....     40.8640487441 Eh

Convergence Acceleration:
 DIIS                   CNVDIIS         .... on
   Start iteration      DIISMaxIt       ....    12
   Startup error        DIISStart       ....  0.200000
   # of expansion vecs  DIISMaxEq       ....     5
   Bias factor          DIISBfac        ....   1.050
   Max. coefficient     DIISMaxC        ....  10.000
 Newton-Raphson         CNVNR           .... off
 SOSCF                  CNVSOSCF        .... on
   Start iteration      SOSCFMaxIt      ....   150
   Startup grad/error   SOSCFStart      ....  0.003300
 Level Shifting         CNVShift        .... on
   Level shift para.    LevelShift      ....    0.2500
   Turn off err/grad.   ShiftErr        ....    0.0010
 Zerner damping         CNVZerner       .... off
 Static damping         CNVDamp         .... on
   Fraction old density DampFac         ....    0.7000
   Max. Damping (<1)    DampMax         ....    0.9800
   Min. Damping (>=0)   DampMin         ....    0.0000
   Turn off err/grad.   DampErr         ....    0.1000
 Fernandez-Rico         CNVRico         .... off

SCF Procedure:
 Maximum # iterations   MaxIter         ....  1000
 SCF integral mode      SCFMode         .... Direct
   Integral package                     .... LIBINT
 Reset frequency        DirectResetFreq ....    20
 Integral Threshold     Thresh          ....  2.500e-11 Eh
 Primitive CutOff       TCut            ....  2.500e-12 Eh

Convergence Tolerance:
 Convergence Check Mode ConvCheckMode   .... Total+1el-Energy
 Convergence forced     ConvForced      .... 0
 Energy Change          TolE            ....  1.000e-08 Eh
 1-El. energy change                    ....  1.000e-05 Eh
 Orbital Gradient       TolG            ....  1.000e-05
 Orbital Rotation angle TolX            ....  1.000e-05
 DIIS Error             TolErr          ....  5.000e-07


Diagonalization of the overlap matrix:
Smallest eigenvalue                        ... 1.348e-03
Time for diagonalization                   ...    0.004 sec
Threshold for overlap eigenvalues          ... 1.000e-08
Number of eigenvalues below threshold      ... 0
Time for construction of square roots      ...    0.004 sec
Total time needed                          ...    0.008 sec

-------------------
DFT GRID GENERATION
-------------------

General Integration Accuracy     IntAcc      ...  4.340
Radial Grid Type                 RadialGrid  ... Gauss-Chebyshev
Angular Grid (max. acc.)         AngularGrid ... Lebedev-110
Angular grid pruning method      GridPruning ... 3 (G Style)
Weight generation scheme         WeightScheme... Becke
Basis function cutoff            BFCut       ...    1.0000e-11
Integration weight cutoff        WCut        ...    1.0000e-14
Grids for H and He will be reduced by one unit

# of grid points (after initial pruning)     ...  13096 (   0.0 sec)
# of grid points (after weights+screening)   ...  12509 (   0.0 sec)
nearest neighbour list constructed           ...    0.0 sec
Grid point re-assignment to atoms done       ...    0.0 sec
Grid point division into batches done        ...    0.0 sec
Reduced shell lists constructed in    0.0 sec

Total number of grid points                  ...    12509
Total number of batches                      ...      201
Average number of points per batch           ...       62
Average number of grid points per atom       ...     1042
Average number of shells per batch           ...    49.11 (64.62%)
Average number of basis functions per batch  ...   107.41 (62.45%)
Average number of large shells per batch     ...    39.70 (80.84%)
Average number of large basis fcns per batch ...    87.56 (81.52%)
Maximum spatial batch extension              ...  21.64, 16.20, 13.23 au
Average spatial batch extension              ...   0.39,  0.35,  0.35 au

Time for grid setup =    0.038 sec

------------------------------
INITIAL GUESS: MODEL POTENTIAL
------------------------------
Loading Hartree-Fock densities                     ... done
Calculating cut-offs                               ... done
Setting up the integral package                    ... done
Initializing the effective Hamiltonian             ... done
Starting the Coulomb interaction                   ... done (   0.0 sec)
Reading the grid                                   ... done
Mapping shells                                     ... done
Starting the XC term evaluation                    ... done (   0.0 sec)
  promolecular density results
     # of electrons  =     17.991140864
     EX              =    -14.444168720
     EC              =     -0.577003957
     EX+EC           =    -15.021172678
Transforming the Hamiltonian                       ... done (   0.0 sec)
Diagonalizing the Hamiltonian                      ... done (   0.0 sec)
Back transforming the eigenvectors                 ... done (   0.0 sec)
Now organizing SCF variables                       ... done
                      ------------------
                      INITIAL GUESS DONE (   0.1 sec)
                      ------------------
--------------
SCF ITERATIONS
--------------
ITER       Energy         Delta-E        Max-DP      RMS-DP      [F,P]     Damp
               ***  Starting incremental Fock matrix formation  ***
  0   -115.6385393621   0.000000000000 0.03858301  0.00077953  0.2586745 0.7000
  1   -115.6779634351  -0.039424073022 0.02441607  0.00055506  0.1299724 0.7000
                               ***Turning on DIIS***
  2   -115.6961763784  -0.018212943316 0.03828725  0.00100333  0.0511402 0.0000
  3   -115.7258133065  -0.029636928081 0.01874152  0.00036212  0.0634951 0.0000
  4   -115.7305903195  -0.004777013005 0.00440992  0.00007177  0.0068661 0.0000
                      *** Initiating the SOSCF procedure ***
                           *** Shutting down DIIS ***
                      *** Re-Reading the Fockian *** 
                      *** Removing any level shift *** 
ITER      Energy       Delta-E        Grad      Rot      Max-DP    RMS-DP
  5   -115.73069351  -0.0001031912  0.000439  0.000439  0.000761  0.000023
               *** Restarting incremental Fock matrix formation ***
  6   -115.73070230  -0.0000087896  0.000122  0.000166  0.000391  0.000014
  7   -115.73070312  -0.0000008159  0.000039  0.000085  0.000175  0.000006
  8   -115.73070319  -0.0000000745  0.000012  0.000012  0.000019  0.000000
  9   -115.73070319  -0.0000000027  0.000006  0.000005  0.000009  0.000000
                  ***Gradient check signals convergence***
              ***Rediagonalizing the Fockian in SOSCF/NRSCF***

               *****************************************************
               *                     SUCCESS                       *
               *           SCF CONVERGED AFTER  10 CYCLES          *
               *****************************************************

Setting up the final grid:

General Integration Accuracy     IntAcc      ...  4.670
Radial Grid Type                 RadialGrid  ... Gauss-Chebyshev
Angular Grid (max. acc.)         AngularGrid ... Lebedev-302
Angular grid pruning method      GridPruning ... 3 (G Style)
Weight generation scheme         WeightScheme... Becke
Basis function cutoff            BFCut       ...    1.0000e-11
Integration weight cutoff        WCut        ...    1.0000e-14
Grids for H and He will be reduced by one unit

# of grid points (after initial pruning)     ...  52000 (   0.0 sec)
# of grid points (after weights+screening)   ...  49275 (   0.0 sec)
nearest neighbour list constructed           ...    0.0 sec
Grid point re-assignment to atoms done       ...    0.0 sec
Grid point division into batches done        ...    0.2 sec
Reduced shell lists constructed in    0.2 sec

Total number of grid points                  ...    49275
Total number of batches                      ...      776
Average number of points per batch           ...       63
Average number of grid points per atom       ...     4106
Average number of shells per batch           ...    47.21 (62.12%)
Average number of basis functions per batch  ...   103.09 (59.94%)
Average number of large shells per batch     ...    38.14 (80.79%)
Average number of large basis fcns per batch ...    84.10 (81.58%)
Maximum spatial batch extension              ...  16.94, 15.48, 13.57 au
Average spatial batch extension              ...   0.25,  0.24,  0.23 au

Final grid set up in    0.3 sec
Final integration                            ... done (   0.1 sec)
Change in XC energy                          ...    -0.000316058
Integrated number of electrons               ...    18.000006298
Previous integrated no of electrons          ...    17.997163828

----------------
TOTAL SCF ENERGY
----------------

Total Energy       :         -115.73101925 Eh           -3149.20114 eV

Components:
Nuclear Repulsion  :           40.86404874 Eh            1111.96730 eV
Electronic Energy  :         -156.59506800 Eh           -4261.16843 eV
One Electron Energy:         -238.14426195 Eh           -6480.23482 eV
Two Electron Energy:           81.54919395 Eh            2219.06638 eV

Virial components:
Potential Energy   :         -231.13438410 Eh           -6289.48634 eV
Kinetic Energy     :          115.40336484 Eh            3140.28521 eV
Virial Ratio       :            2.00283921


DFT components:
N(Alpha)           :        9.000003148929 electrons
N(Beta)            :        9.000003148929 electrons
N(Total)           :       18.000006297858 electrons
E(XC)              :      -10.682830338680 Eh       
DFET-embed. en.    :        0.000000000000 Eh       

---------------
SCF CONVERGENCE
---------------

  Last Energy change         ...   -5.9782e-10  Tolerance :   1.0000e-08
  Last MAX-Density change    ...    1.9365e-06  Tolerance :   1.0000e-07
  Last RMS-Density change    ...    5.6004e-08  Tolerance :   5.0000e-09
  Last Orbital Gradient      ...    1.0300e-06  Tolerance :   1.0000e-05
  Last Orbital Rotation      ...    1.0930e-06  Tolerance :   1.0000e-05

             **** THE GBW FILE WAS UPDATED (8-198_DFT_A.gbw) ****
             **** DENSITY FILE WAS UPDATED (8-198_DFT_A.scfp.tmp) ****
             **** ENERGY FILE WAS UPDATED (8-198_DFT_A.en.tmp) ****
----------------
ORBITAL ENERGIES
----------------

  NO   OCC          E(Eh)            E(eV) 
   0   2.0000     -19.219745      -522.9959 
   1   2.0000     -10.303936      -280.3844 
   2   2.0000      -1.133674       -30.8488 
   3   2.0000      -0.800556       -21.7842 
   4   2.0000      -0.604532       -16.4501 
   5   2.0000      -0.559380       -15.2215 
   6   2.0000      -0.526886       -14.3373 
   7   2.0000      -0.428352       -11.6561 
   8   2.0000      -0.371133       -10.0990 
   9   0.0000       0.080294         2.1849 
  10   0.0000       0.120533         3.2799 
  11   0.0000       0.160471         4.3666 
  12   0.0000       0.178650         4.8613 
  13   0.0000       0.193737         5.2719 
  14   0.0000       0.196719         5.3530 
  15   0.0000       0.208099         5.6627 
  16   0.0000       0.219333         5.9683 
  17   0.0000       0.239251         6.5104 
  18   0.0000       0.290771         7.9123 
  19   0.0000       0.310011         8.4358 
  20   0.0000       0.314571         8.5599 
  21   0.0000       0.323632         8.8065 
  22   0.0000       0.339955         9.2507 
  23   0.0000       0.364648         9.9226 
  24   0.0000       0.405002        11.0207 
  25   0.0000       0.454019        12.3545 
  26   0.0000       0.460313        12.5258 
  27   0.0000       0.486385        13.2352 
  28   0.0000       0.517765        14.0891 
  29   0.0000       0.547649        14.9023 
  30   0.0000       0.554667        15.0933 
  31   0.0000       0.565803        15.3963 
  32   0.0000       0.598231        16.2787 
  33   0.0000       0.620663        16.8891 
  34   0.0000       0.646452        17.5909 
  35   0.0000       0.673789        18.3347 
  36   0.0000       0.683993        18.6124 
  37   0.0000       0.712798        19.3962 
  38   0.0000       0.779403        21.2086 
  39   0.0000       0.804013        21.8783 
  40   0.0000       0.816011        22.2048 
  41   0.0000       0.843321        22.9479 
  42   0.0000       0.869270        23.6540 
  43   0.0000       0.908638        24.7253 
  44   0.0000       0.989582        26.9279 
  45   0.0000       1.015460        27.6321 
  46   0.0000       1.041530        28.3415 
  47   0.0000       1.116630        30.3850 
  48   0.0000       1.146888        31.2084 
  49   0.0000       1.155359        31.4389 
  50   0.0000       1.171244        31.8712 
  51   0.0000       1.194239        32.4969 
  52   0.0000       1.224421        33.3182 
  53   0.0000       1.347442        36.6658 
  54   0.0000       1.390337        37.8330 
  55   0.0000       1.397624        38.0313 
  56   0.0000       1.449249        39.4361 
  57   0.0000       1.513116        41.1740 
  58   0.0000       1.533331        41.7241 
  59   0.0000       1.553077        42.2614 
  60   0.0000       1.589078        43.2410 
  61   0.0000       1.625483        44.2316 
  62   0.0000       1.661634        45.2154 
  63   0.0000       1.668829        45.4111 
  64   0.0000       1.755495        47.7695 
  65   0.0000       1.769304        48.1452 
  66   0.0000       1.812930        49.3323 
  67   0.0000       1.921259        52.2801 
  68   0.0000       1.944164        52.9034 
  69   0.0000       1.962677        53.4071 
  70   0.0000       2.025099        55.1057 
  71   0.0000       2.067445        56.2580 
  72   0.0000       2.099878        57.1406 
  73   0.0000       2.110718        57.4356 
  74   0.0000       2.141387        58.2701 
  75   0.0000       2.177070        59.2411 
  76   0.0000       2.190020        59.5935 
  77   0.0000       2.224361        60.5279 
  78   0.0000       2.295282        62.4578 
  79   0.0000       2.311146        62.8895 
  80   0.0000       2.332905        63.4816 
  81   0.0000       2.352506        64.0150 
  82   0.0000       2.372648        64.5630 
  83   0.0000       2.419504        65.8381 
  84   0.0000       2.495409        67.9035 
  85   0.0000       2.545802        69.2748 
  86   0.0000       2.567121        69.8549 
  87   0.0000       2.570171        69.9379 
  88   0.0000       2.617977        71.2388 
  89   0.0000       2.633050        71.6489 
  90   0.0000       2.695526        73.3490 
  91   0.0000       2.720435        74.0268 
  92   0.0000       2.805836        76.3507 
  93   0.0000       2.818267        76.6890 
  94   0.0000       2.887229        78.5655 
  95   0.0000       2.915160        79.3255 
  96   0.0000       2.952730        80.3479 
  97   0.0000       2.998705        81.5989 
  98   0.0000       3.038464        82.6808 
  99   0.0000       3.109652        84.6179 
 100   0.0000       3.116807        84.8126 
 101   0.0000       3.153962        85.8237 
 102   0.0000       3.209954        87.3473 
 103   0.0000       3.232486        87.9604 
 104   0.0000       3.328984        90.5863 
 105   0.0000       3.389688        92.2381 
 106   0.0000       3.407797        92.7309 
 107   0.0000       3.409522        92.7778 
 108   0.0000       3.433264        93.4239 
 109   0.0000       3.461184        94.1836 
 110   0.0000       3.538062        96.2756 
 111   0.0000       3.589720        97.6813 
 112   0.0000       3.628880        98.7468 
 113   0.0000       3.632853        98.8550 
 114   0.0000       3.654199        99.4358 
 115   0.0000       3.665197        99.7351 
 116   0.0000       3.690995       100.4371 
 117   0.0000       4.010947       109.1434 
 118   0.0000       4.040718       109.9535 
 119   0.0000       4.073375       110.8422 
 120   0.0000       4.178459       113.7016 
 121   0.0000       4.241867       115.4271 
 122   0.0000       4.258722       115.8857 
 123   0.0000       4.344981       118.2329 
 124   0.0000       4.353553       118.4662 
 125   0.0000       4.503721       122.5525 
 126   0.0000       4.538670       123.5035 
 127   0.0000       4.552954       123.8922 
 128   0.0000       4.564819       124.2150 
 129   0.0000       4.597848       125.1138 
 130   0.0000       4.612777       125.5200 
 131   0.0000       4.991331       135.8210 
 132   0.0000       5.033148       136.9589 
 133   0.0000       5.079556       138.2217 
 134   0.0000       5.323901       144.8707 
 135   0.0000       5.343968       145.4168 
 136   0.0000       5.427896       147.7005 
 137   0.0000       5.461375       148.6116 
 138   0.0000       5.574462       151.6888 
 139   0.0000       5.682866       154.6386 
 140   0.0000       5.815450       158.2464 
 141   0.0000       5.829249       158.6219 
 142   0.0000       5.840375       158.9247 
 143   0.0000       5.878916       159.9734 
 144   0.0000       5.984869       162.8566 
 145   0.0000       6.431637       175.0138 
 146   0.0000       6.536991       177.8806 
 147   0.0000       6.578696       179.0154 
 148   0.0000       6.661472       181.2679 
 149   0.0000       6.761073       183.9781 
 150   0.0000       6.834996       185.9897 
 151   0.0000       6.836721       186.0366 
 152   0.0000       7.054715       191.9686 
 153   0.0000       7.064368       192.2312 
 154   0.0000       7.169653       195.0962 
 155   0.0000       7.248185       197.2331 
 156   0.0000       7.351064       200.0326 
 157   0.0000       8.048901       219.0217 
 158   0.0000       8.873638       241.4640 
 159   0.0000       9.310285       253.3457 
 160   0.0000       9.539479       259.5824 
 161   0.0000       9.568739       260.3786 
 162   0.0000       9.766765       265.7672 
 163   0.0000       9.841234       267.7936 
 164   0.0000       9.898775       269.3594 
[...]
  82   0.0000       2.401590        65.3506 
  83   0.0000       2.437416        66.3255 
  84   0.0000       2.495452        67.9047 
  85   0.0000       2.518655        68.5361 
  86   0.0000       2.558973        69.6332 
  87   0.0000       2.608487        70.9805 
  88   0.0000       2.629097        71.5414 
  89   0.0000       2.678008        72.8723 
  90   0.0000       2.705691        73.6256 
  91   0.0000       2.712578        73.8130 
  92   0.0000       2.822025        76.7912 
  93   0.0000       2.863003        77.9063 
  94   0.0000       2.889166        78.6182 
  95   0.0000       2.906860        79.0997 
  96   0.0000       2.934705        79.8574 
  97   0.0000       2.966650        80.7266 
  98   0.0000       2.988257        81.3146 
  99   0.0000       3.083211        83.8984 
 100   0.0000       3.115315        84.7720 
 101   0.0000       3.138092        85.3918 
 102   0.0000       3.157274        85.9138 
 103   0.0000       3.192736        86.8788 
 104   0.0000       3.203011        87.1584 
 105   0.0000       3.255752        88.5935 
 106   0.0000       3.310678        90.0881 
 107   0.0000       3.325854        90.5011 
 108   0.0000       3.344427        91.0065 
 109   0.0000       3.427885        93.2775 
 110   0.0000       3.496390        95.1416 
 111   0.0000       3.557143        96.7948 
 112   0.0000       3.639532        99.0367 
 113   0.0000       3.649600        99.3107 
 114   0.0000       3.657692        99.5309 
 115   0.0000       3.738421       101.7276 
 116   0.0000       3.885936       105.7417 
 117   0.0000       4.009583       109.1063 
 118   0.0000       4.124473       112.2326 
 119   0.0000       4.198789       114.2548 
 120   0.0000       4.203485       114.3826 
 121   0.0000       4.234119       115.2162 
 122   0.0000       4.254946       115.7830 
 123   0.0000       4.318668       117.5169 
 124   0.0000       4.330707       117.8445 
 125   0.0000       4.342611       118.1685 
 126   0.0000       4.517018       122.9143 
 127   0.0000       4.524117       123.1075 
 128   0.0000       4.552629       123.8833 
 129   0.0000       4.585174       124.7689 
 130   0.0000       4.598580       125.1337 
 131   0.0000       5.005112       136.1960 
 132   0.0000       5.037338       137.0729 
 133   0.0000       5.120944       139.3480 
 134   0.0000       5.331757       145.0845 
 135   0.0000       5.359173       145.8305 
 136   0.0000       5.405076       147.0796 
 137   0.0000       5.421826       147.5354 
 138   0.0000       5.541495       150.7918 
 139   0.0000       5.778103       157.2302 
 140   0.0000       5.801127       157.8567 
 141   0.0000       5.935150       161.5036 
 142   0.0000       5.943124       161.7206 
 143   0.0000       6.064436       165.0217 
 144   0.0000       6.178530       168.1263 
 145   0.0000       6.340295       172.5282 
 146   0.0000       6.514594       177.2711 
 147   0.0000       6.585879       179.2109 
 148   0.0000       6.699773       182.3101 
 149   0.0000       6.730594       183.1488 
 150   0.0000       6.781329       184.5294 
 151   0.0000       6.870749       186.9626 
 152   0.0000       7.043059       191.6514 
 153   0.0000       7.158934       194.8045 
 154   0.0000       7.191472       195.6899 
 155   0.0000       7.243677       197.1105 
 156   0.0000       7.444609       202.5781 
 157   0.0000       8.178985       222.5615 
 158   0.0000       8.893249       241.9976 
 159   0.0000       9.332458       253.9491 
 160   0.0000       9.549780       259.8627 
 161   0.0000       9.580476       260.6980 
 162   0.0000       9.809219       266.9224 
 163   0.0000       9.881742       268.8959 
 164   0.0000       9.963435       271.1189 
 165   0.0000      10.080096       274.2934 
 166   0.0000      11.169139       303.9277 
 167   0.0000      19.116611       520.1894 
 168   0.0000      22.255089       605.5918 
 169   0.0000      43.675208      1188.4628 
 170   0.0000      65.981517      1795.4484 
 171   0.0000     126.442577      3440.6774 

                    ********************************
                    * MULLIKEN POPULATION ANALYSIS *
                    ********************************

-----------------------
MULLIKEN ATOMIC CHARGES
-----------------------
   0 C :    0.001163
   1 O :   -0.000207
   2 H :   -0.000315
   3 H :   -0.003715
   4 H :    0.000022
   5 H :   -0.000096
   6 C :   -0.182275
   7 O :   -0.470098
   8 H :    0.318450
   9 H :    0.125641
  10 H :    0.103133
  11 H :    0.108294
Sum of atomic charges:    0.0000000

--------------------------------
MULLIKEN REDUCED ORBITAL CHARGES
--------------------------------
  0 C s       :    -0.001244  s :    -0.001244
      pz      :     0.000266  p :     0.000080
      px      :    -0.000166
      py      :    -0.000021
      dz2     :    -0.000008  d :     0.000001
      dxz     :     0.000001
      dyz     :    -0.000001
      dx2y2   :     0.000005
      dxy     :     0.000005
      f0      :    -0.000000  f :    -0.000000
      f+1     :    -0.000000
      f-1     :     0.000000
      f+2     :    -0.000000
      f-2     :    -0.000000
      f+3     :    -0.000000
      f-3     :     0.000000
  1 O s       :    -0.000057  s :    -0.000057
      pz      :    -0.000019  p :     0.000267
      px      :     0.000259
      py      :     0.000026
      dz2     :     0.000000  d :    -0.000002
      dxz     :    -0.000000
      dyz     :     0.000000
      dx2y2   :    -0.000002
      dxy     :    -0.000000
      f0      :    -0.000000  f :    -0.000000
      f+1     :    -0.000000
      f-1     :    -0.000000
      f+2     :    -0.000000
      f-2     :    -0.000000
      f+3     :    -0.000000
      f-3     :    -0.000000
  2 H s       :     0.000314  s :     0.000314
      pz      :     0.000001  p :     0.000000
      px      :     0.000002
      py      :    -0.000002
  3 H s       :     0.003703  s :     0.003703
      pz      :     0.000002  p :     0.000012
      px      :     0.000008
      py      :     0.000002
  4 H s       :    -0.000022  s :    -0.000022
      pz      :     0.000000  p :     0.000001
      px      :     0.000000
      py      :    -0.000000
  5 H s       :     0.000096  s :     0.000096
      pz      :     0.000000  p :    -0.000000
      px      :    -0.000000
      py      :    -0.000000
  6 C s       :     3.234036  s :     3.234036
      pz      :     0.876676  p :     2.844449
      px      :     0.916645
      py      :     1.051128
      dz2     :     0.023327  d :     0.096601
      dxz     :     0.012296
      dyz     :     0.027444
      dx2y2   :     0.018121
      dxy     :     0.015413
      f0      :     0.000891  f :     0.007189
      f+1     :     0.001512
      f-1     :     0.000352
      f+2     :     0.002043
      f-2     :     0.001440
      f+3     :     0.000399
      f-3     :     0.000552
  7 O s       :     3.796079  s :     3.796079
      pz      :     1.539880  p :     4.643443
      px      :     1.227573
      py      :     1.875989
      dz2     :     0.006093  d :     0.028985
      dxz     :     0.011547
      dyz     :     0.004050
      dx2y2   :     0.004643
      dxy     :     0.002652
      f0      :     0.000141  f :     0.001591
      f+1     :     0.000148
      f-1     :     0.000075
      f+2     :     0.000452
      f-2     :     0.000163
      f+3     :     0.000384
      f-3     :     0.000228
  8 H s       :     0.634399  s :     0.634399
      pz      :     0.012300  p :     0.047150
      px      :     0.017569
      py      :     0.017281
  9 H s       :     0.854904  s :     0.854904
      pz      :     0.003772  p :     0.019455
      px      :     0.011328
      py      :     0.004354
 10 H s       :     0.877876  s :     0.877876
      pz      :     0.007519  p :     0.018991
      px      :     0.003091
      py      :     0.008380
 11 H s       :     0.872767  s :     0.872767
      pz      :     0.005826  p :     0.018939
      px      :     0.003145
      py      :     0.009969


                     *******************************
                     * LOEWDIN POPULATION ANALYSIS *
                     *******************************

----------------------
LOEWDIN ATOMIC CHARGES
----------------------
   0 C :   -0.001474
   1 O :   -0.000378
   2 H :   -0.000928
   3 H :   -0.002310
   4 H :   -0.000008
   5 H :   -0.000018
   6 C :   -0.385683
   7 O :   -0.088951
   8 H :    0.170580
   9 H :    0.113138
  10 H :    0.099015
  11 H :    0.097017

-------------------------------
LOEWDIN REDUCED ORBITAL CHARGES
-------------------------------
  0 C s       :     0.000104  s :     0.000104
      pz      :     0.000254  p :     0.001326
      px      :     0.000869
      py      :     0.000202
      dz2     :     0.000003  d :     0.000044
      dxz     :     0.000009
      dyz     :     0.000001
      dx2y2   :     0.000014
      dxy     :     0.000018
      f0      :     0.000000  f :     0.000001
      f+1     :     0.000000
      f-1     :     0.000000
      f+2     :     0.000000
      f-2     :     0.000000
      f+3     :     0.000000
      f-3     :     0.000001
  1 O s       :     0.000011  s :     0.000011
      pz      :     0.000008  p :     0.000363
      px      :     0.000305
      py      :     0.000049
      dz2     :     0.000001  d :     0.000004
      dxz     :     0.000000
      dyz     :     0.000000
      dx2y2   :     0.000001
      dxy     :     0.000001
      f0      :     0.000000  f :     0.000000
      f+1     :     0.000000
      f-1     :     0.000000
      f+2     :     0.000000
      f-2     :     0.000000
      f+3     :     0.000000
      f-3     :     0.000000
  2 H s       :     0.000922  s :     0.000922
      pz      :     0.000000  p :     0.000006
      px      :     0.000005
      py      :     0.000000
  3 H s       :     0.002287  s :     0.002287
      pz      :     0.000005  p :     0.000023
      px      :     0.000015
      py      :     0.000003
  4 H s       :     0.000006  s :     0.000006
      pz      :     0.000000  p :     0.000001
      px      :     0.000000
      py      :     0.000001
  5 H s       :     0.000017  s :     0.000017
      pz      :     0.000000  p :     0.000001
      px      :     0.000001
      py      :     0.000000
  6 C s       :     2.879812  s :     2.879812
      pz      :     0.973318  p :     3.057322
      px      :     0.980747
      py      :     1.103257
      dz2     :     0.072526  d :     0.397677
      dxz     :     0.082733
      dyz     :     0.119725
      dx2y2   :     0.081177
      dxy     :     0.041516
      f0      :     0.008050  f :     0.050873
      f+1     :     0.012232
      f-1     :     0.002881
      f+2     :     0.007607
      f-2     :     0.009901
      f+3     :     0.003897
      f-3     :     0.006305
  7 O s       :     3.381795  s :     3.381795
      pz      :     1.582422  p :     4.636707
      px      :     1.268593
      py      :     1.785692
      dz2     :     0.014004  d :     0.066269
      dxz     :     0.023601
      dyz     :     0.007339
      dx2y2   :     0.013693
      dxy     :     0.007632
      f0      :     0.000699  f :     0.004181
      f+1     :     0.000727
      f-1     :     0.000190
      f+2     :     0.001012
      f-2     :     0.000654
      f+3     :     0.000570
      f-3     :     0.000328
  8 H s       :     0.672385  s :     0.672385
      pz      :     0.044109  p :     0.157035
      px      :     0.065289
      py      :     0.047638
  9 H s       :     0.830039  s :     0.830039
      pz      :     0.012116  p :     0.056823
      px      :     0.032185
      py      :     0.012522
 10 H s       :     0.845276  s :     0.845276
      pz      :     0.021427  p :     0.055709
      px      :     0.009841
      py      :     0.024441
 11 H s       :     0.844354  s :     0.844354
      pz      :     0.017536  p :     0.058629
      px      :     0.010375
      py      :     0.030718


                      *****************************
                      * MAYER POPULATION ANALYSIS *
                      *****************************

  NA   - Mulliken gross atomic population
  ZA   - Total nuclear charge
  QA   - Mulliken gross atomic charge
  VA   - Mayer's total valence
  BVA  - Mayer's bonded valence
  FA   - Mayer's free valence

  ATOM       NA         ZA         QA         VA         BVA        FA
  0 C     -0.0012     0.0000     0.0012    -0.0023    -0.0023     0.0000
  1 O      0.0002     0.0000    -0.0002     0.0004     0.0004    -0.0000
  2 H      0.0003     0.0000    -0.0003     0.0006     0.0006     0.0000
  3 H      0.0037     0.0000    -0.0037     0.0074     0.0074    -0.0000
  4 H     -0.0000     0.0000     0.0000    -0.0000    -0.0000     0.0000
  5 H      0.0001     0.0000    -0.0001     0.0002     0.0002    -0.0000
  6 C      6.1823     6.0000    -0.1823     3.9291     3.9291     0.0000
  7 O      8.4701     8.0000    -0.4701     1.9016     1.9016    -0.0000
  8 H      0.6815     1.0000     0.3185     0.9118     0.9118     0.0000
  9 H      0.8744     1.0000     0.1256     0.9585     0.9585    -0.0000
 10 H      0.8969     1.0000     0.1031     0.9569     0.9569     0.0000
 11 H      0.8917     1.0000     0.1083     0.9557     0.9557     0.0000

  Mayer bond orders larger than 0.1
B(  6-C ,  7-O ) :   1.0010 B(  6-C ,  9-H ) :   0.9720 B(  6-C , 10-H ) :   0.9755 
B(  6-C , 11-H ) :   0.9694 B(  7-O ,  8-H ) :   0.8971 

-------
TIMINGS
-------

Total SCF time: 0 days 0 hours 0 min 8 sec 

Total time                  ....       8.913 sec
Sum of individual times     ....       8.649 sec  ( 97.0%)

Fock matrix formation       ....       8.119 sec  ( 91.1%)
  XC integration            ....       1.319 sec  ( 16.2% of F)
    Basis function eval.    ....       0.059 sec  (  4.5% of XC)
    Density eval.           ....       0.050 sec  (  3.8% of XC)
    XC-Functional eval.     ....       0.082 sec  (  6.2% of XC)
    XC-Potential eval.      ....       0.060 sec  (  4.6% of XC)
Diagonalization             ....       0.041 sec  (  0.5%)
Density matrix formation    ....       0.005 sec  (  0.1%)
Population analysis         ....       0.025 sec  (  0.3%)
Initial guess               ....       0.097 sec  (  1.1%)
Orbital Transformation      ....       0.000 sec  (  0.0%)
Orbital Orthonormalization  ....       0.000 sec  (  0.0%)
DIIS solution               ....       0.027 sec  (  0.3%)
SOSCF solution              ....       0.021 sec  (  0.2%)
Grid generation             ....       0.313 sec  (  3.5%)


-------------------------------------------------------------------------------
                          DFT DISPERSION CORRECTION                            
                                                                               
                              DFTD3 V3.1  Rev 1                                
                              USING zero damping                               
-------------------------------------------------------------------------------
The omegaB97X-D3 functional is recognized. Fit by Chai et al.
Active option DFTDOPT                   ...         3   

molecular C6(AA) [au] = 208.874334 


            DFT-D V3
 parameters
 s6 scaling factor         :     1.0000 
 rs6 scaling factor        :     1.2810 
 s8 scaling factor         :     1.0000 
 rs8 scaling factor        :     1.0940 
 Damping factor alpha6     :    14.0000 
 Damping factor alpha8     :    16.0000 
 ad hoc parameters k1-k3   :    16.0000     1.3333    -4.0000 

 Edisp/kcal,au: -0.177186249788  -0.000282364232 
 E6   /kcal   :  -0.036695900 
 E8   /kcal   :  -0.140490350 
 % E8         :  79.289645798 

-------------------------   ----------------
Dispersion correction           -0.000282364
-------------------------   ----------------


-------------------------   --------------------
FINAL SINGLE POINT ENERGY      -115.733671845980
-------------------------   --------------------


                            ***************************************
                            *     ORCA property calculations      *
                            ***************************************

                                    ---------------------
                                    Active property flags
                                    ---------------------
   (+) Dipole Moment


------------------------------------------------------------------------------
                       ORCA ELECTRIC PROPERTIES CALCULATION
------------------------------------------------------------------------------

Dipole Moment Calculation                       ... on
Quadrupole Moment Calculation                   ... off
Polarizability Calculation                      ... off
GBWName                                         ... 8-198_DFT_B.gbw
Electron density file                           ... 8-198_DFT_B.scfp.tmp
The origin for moment calculation is the CENTER OF MASS  = (-2.964667, -10.859875 -14.919167)

-------------
DIPOLE MOMENT
-------------
                                X             Y             Z
Electronic contribution:     -1.23439       0.20815      -1.51603
Nuclear contribution   :      1.09119      -0.40629       2.15425
                        -----------------------------------------
Total Dipole Moment    :     -0.14320      -0.19814       0.63822
                        -----------------------------------------
Magnitude (a.u.)       :      0.68344
Magnitude (Debye)      :      1.73718



--------------------
Rotational spectrum 
--------------------
 
Rotational constants in cm-1:     4.276230     0.792139     0.765639 
Rotational constants in MHz : 128198.135437 23747.724328 22953.281843 

 Dipole components along the rotational axes: 
x,y,z [a.u.] :    -0.351518     0.585802     0.019170 
x,y,z [Debye]:    -0.893489     1.488990     0.048725 

 
------------------------------------------------------------------------------
                      ORCA CHELPG CHARGES GENERATION
------------------------------------------------------------------------------

GBW file                           ... 8-198_DFT_B.gbw

Reading the GBW file               ... done

Grid spacing                       ...     0.300000
Point Cut-Off                      ...     2.800000
Van-der-Waals Radii                ...        COSMO
Total charge                       ...            0


Number of points X direction       ...           40
Number of points Y direction       ...           29
Number of points Z direction       ...           26
Maximum number of possible points  ...        30160
Final number of points             ...         6029


CHELPG Charges            
--------------------------------
  0   C   :       0.010498
  1   O   :      -0.004567
  2   H   :       0.001098
  3   H   :       0.000791
  4   H   :      -0.011729
  5   H   :      -0.002898
  6   C   :       0.077887
  7   O   :      -0.592928
  8   H   :       0.401144
  9   H   :       0.083730
 10   H   :       0.018529
 11   H   :       0.018445
--------------------------------
Total charge:     0.000000
--------------------------------

CHELPG charges calculated...

Timings for individual parts in CHELPG calculation:
Grid generation                 ...        0.001 sec (=   0.000 min)
Potential calculation           ...        1.223 sec (=   0.020 min)
Fit to the potential            ...        0.002 sec (=   0.000 min)
------------------------------------------------------------------------------


Timings for individual modules:

Sum of individual times         ...       11.143 sec (=   0.186 min)
GTO integral calculation        ...        0.552 sec (=   0.009 min)   5.0 %
SCF iterations                  ...        9.334 sec (=   0.156 min)  83.8 %
CHELPG charge generation        ...        1.258 sec (=   0.021 min)  11.3 %



                             ****ORCA TERMINATED NORMALLY****
TOTAL RUN TIME: 0 days 0 hours 0 minutes 42 seconds 387 msec
