LAMMPS data file via vdw_self_gen.py, on 2021-08-05 13:22:43.248148

4500 atoms
7 atom types
4000 bonds
6 bond types
6500 angles
9 angle types
6000 dihedrals
6 dihedral types

-39.8697709676658008  39.8697709676657936 xlo xhi
-39.8697709676658008  39.8697709676657936 ylo yhi
-39.8697709676658008  39.8697709676657936 zlo zhi

Masses

1  35.452700
2  1.007940
3  1.007940
4  1.007940
5  12.011000
6  12.011000
7  15.999400

Atoms

1         0    7   -0.6441380000000000  -22.5690831809119246 -31.2680993084728946 -14.8024428986716998 0 0 0
2         0    5    0.3514710000000000  -22.6691284604559797 -31.1361143478570703 -13.3872234197878797 0 0 0
3         0    6   -0.0729230000000000  -21.3098864364067033 -30.7701230613928942 -12.8122172040904125 0 0 0
4         0    1   -0.1873450000000000  -21.3958965346999790 -30.5987571095041844 -11.0462835070550867 0 0 0
5         0    4    0.4025730000000000  -23.4554168530123128 -31.5024356010188171 -15.1296292276906144 0 0 0
6         0    3   -0.0094320000000000  -23.0231490025554564 -32.0882846855727522 -12.9785458503691498 0 0 0
7         0    3   -0.0094320000000000  -23.4089038528763353 -30.3594780393576862 -13.1669781824051846 0 0 0
8         0    2    0.0846130000000000  -20.9500745742909835 -29.8267861118312325 -13.2353572582953021 0 0 0
9         0    2    0.0846130000000000  -20.5673159431193184 -31.5383185086530489 -13.0506353546320710 0 0 0
10        1    7   -0.6441380000000000   22.7753435587525210 -32.4683617592154619  31.1175563911021484 0 0 0
11        1    5    0.3514710000000000   22.0901575853550867 -31.3395167391714615  30.5822953671322821 0 0 0
12        1    6   -0.0729230000000000   22.0963904507124198 -30.2098935301022706  31.6001525313364056 0 0 0
13        1    1   -0.1873450000000000   21.2476498962037326 -28.7837196965261164  30.9669436271389245 0 0 0
14        1    4    0.4025730000000000   22.7481047273676147 -33.1657078303667348  30.4389414241918423 0 0 0
15        1    3   -0.0094320000000000   21.0660958108560017 -31.6430395834033753  30.3411571971152618 0 0 0
16        1    3   -0.0094320000000000   22.5963362788371853 -31.0373079441282762  29.6595860272189462 0 0 0
17        1    2    0.0846130000000000   23.1213436561733303 -29.9200330915918684  31.8528352074381900 0 0 0
18        1    2    0.0846130000000000   21.6074328740710726 -30.5208165991550082  32.5289290009865866 0 0 0
19        2    7   -0.6441380000000000  -3.0160876504345921  -4.7720256234963916   22.7933663258685932 0 0 0
20        2    5    0.3514710000000000  -4.0636146307616663  -4.0297534741751075   22.1753092548558897 0 0 0
21        2    6   -0.0729230000000000  -5.2726375654781421  -4.9287656066543706   21.9699768930990373 0 0 0
22        2    1   -0.1873450000000000  -6.6004238656169063  -4.0360864943417694   21.1983595057854828 0 0 0
23        2    4    0.4025730000000000  -2.2644772118114256  -4.1637496615002973   22.9057668276932063 0 0 0
24        2    3   -0.0094320000000000  -3.6937883938361988  -3.6470482503381216   21.2183654121308152 0 0 0
25        2    3   -0.0094320000000000  -4.3117055362527665  -3.1826488492925198   22.8232322507552006 0 0 0
26        2    2    0.0846130000000000  -5.6298598269827425  -5.3241754985277501   22.9262404317191262 0 0 0
27        2    2    0.0846130000000000  -5.0171762864913818  -5.7855175093394866   21.3382379364216064 0 0 0
28        3    7   -0.6441380000000000  -12.0471122140011602 -30.0192938609471369 -4.4965558631576048  0 0 0
29        3    5    0.3514710000000000  -13.3921312981491401 -30.4876660451953967 -4.5392925160476292  0 0 0
30        3    6   -0.0729230000000000  -13.4206783515711923 -31.9816195328015631 -4.2574970362927278  0 0 0
31        3    1   -0.1873450000000000  -15.0844296042324171 -32.6021097402455169 -4.3045025735661326  0 0 0
32        3    4    0.4025730000000000  -12.0725441217192149 -29.0640199666796661 -4.6819116701906882  0 0 0
33        3    3   -0.0094320000000000  -13.7996358741559586 -30.2690270774085306 -5.5318212432382321  0 0 0
34        3    3   -0.0094320000000000  -13.9705847803117802 -29.9372492304360023 -3.7900445927912227  0 0 0
35        3    2    0.0846130000000000  -12.9967216379612296 -32.1994370466379678 -3.2719956828430439  0 0 0
36        3    2    0.0846130000000000  -12.8254750208953130 -32.5279742733088142 -4.9961497895385278  0 0 0
37        4    7   -0.6441380000000000   22.8924509965008163  31.6703330056676968  29.7678630604004617 0 0 0
38        4    5    0.3514710000000000   22.4842538751235104  31.4257657293011974  31.1109331325225220 0 0 0
39        4    6   -0.0729230000000000   21.5036632455740957  30.2640431637402472  31.1419709756558696 0 0 0
40        4    1   -0.1873450000000000   20.9705515257916737  29.9310006839976630  32.8033440372279941 0 0 0
41        4    4    0.4025730000000000   23.5156148945367427  32.4177654508152031  29.7915962929129279 0 0 0
42        4    3   -0.0094320000000000   22.0214556464181399  32.3387060319861774  31.4999499126755573 0 0 0
43        4    3   -0.0094320000000000   23.3763398041574639  31.2004991099302629  31.7045468090132303 0 0 0
44        4    2    0.0846130000000000   21.9628818181621561  29.3568466574348363  30.7363732888559724 0 0 0
45        4    2    0.0846130000000000   20.6216430320643589  30.4834369407872856  30.5318192643960522 0 0 0
46        5    7   -0.6441380000000000  -31.0659149854997807 -22.4578169787362931 -20.5903269941737435 0 0 0
47        5    5    0.3514710000000000  -30.8803577895610672 -22.6524604489417705 -21.9895974139789132 0 0 0
48        5    6   -0.0729230000000000  -31.1829501479926314 -21.3584733652534453 -22.7286210547825149 0 0 0
49        5    1   -0.1873450000000000  -30.9636527862137143 -21.5641955484237684 -24.4792988947257832 0 0 0
50        5    4    0.4025730000000000  -30.8640356222311958 -23.3052704751608779 -20.1560240304675062 0 0 0
51        5    3   -0.0094320000000000  -31.5502479523414827 -23.4549050504514547 -22.3156435507724673 0 0 0
52        5    3   -0.0094320000000000  -29.8447135499745144 -22.9657680680613723 -22.1575822237469247 0 0 0
53        5    2    0.0846130000000000  -30.5238008195633093 -20.5533427207877786 -22.3884982972765485 0 0 0
54        5    2    0.0846130000000000  -32.2127231202828881 -21.0366221825122182 -22.5432623784045951 0 0 0
55        6    7   -0.6441380000000000  -11.9460832570519511  14.1213940792610924 -21.9684644002632581 0 0 0
56        6    5    0.3514710000000000  -13.2782785511488299  13.6630392143256607 -21.7552936298087758 0 0 0
57        6    6   -0.0729230000000000  -13.6067091934930833  12.5674972813632966 -22.7573125099155504 0 0 0
58        6    1   -0.1873450000000000  -15.2636696013655531  11.9720108201597810 -22.5224424818864435 0 0 0
59        6    4    0.4025730000000000  -11.7766045706857412  14.8188605072291661 -21.3109164347694531 0 0 0
60        6    3   -0.0094320000000000  -13.9563226261665427  14.5149996379019424 -21.8710343788693642 0 0 0
61        6    3   -0.0094320000000000  -13.3518165383282117  13.2890285633828675 -20.7288201771939740 0 0 0
62        6    2    0.0846130000000000  -12.9165980055372316  11.7243249115169021 -22.6514655213624216 0 0 0
63        6    2    0.0846130000000000  -13.5132305592202542  12.9381578878566152 -23.7831053042597595 0 0 0
64        7    7   -0.6441380000000000   22.4144308749511829  4.9165272145497889   23.6409913284226434 0 0 0
65        7    5    0.3514710000000000   22.6233542517281236  4.6756969753389637   22.2522411422056337 0 0 0
66        7    6   -0.0729230000000000   21.4099417261548410  3.9684659290206246   21.6695105529061287 0 0 0
67        7    1   -0.1873450000000000   21.6357976037056403  3.6495649252340896   19.9367159542419721 0 0 0
68        7    4    0.4025730000000000   23.2101132792975697  5.3674363283957121   23.9743413736667357 0 0 0
69        7    3   -0.0094320000000000   23.5236791409446404  4.0622073982277742   22.1425967869783520 0 0 0
70        7    3   -0.0094320000000000   22.7890845050390318  5.6389115888353682   21.7585908175987583 0 0 0
71        7    2    0.0846130000000000   20.5080746984668032  4.5759554537363964   21.7959582643513521 0 0 0
72        7    2    0.0846130000000000   21.2343787580411103  3.0150051543270617   22.1779086179573817 0 0 0
73        8    7   -0.6441380000000000  -12.3644522099582321  20.9896901895108030  3.8575777649914862  0 0 0
74        8    5    0.3514710000000000  -13.1061550398206919  22.2046108033599197  3.9217655786207608  0 0 0
75        8    6   -0.0729230000000000  -13.7604592653205078  22.3305848895916412  5.2885637202244071  0 0 0
76        8    1   -0.1873450000000000  -14.6971054209342480  23.8354034486237758  5.4047572328076381  0 0 0
77        8    4    0.4025730000000000  -11.9642792646288214  20.9472233914543615  2.9712313569267730  0 0 0
78        8    3   -0.0094320000000000  -13.8596644654294661  22.1883295598243109  3.1274515861545087  0 0 0
79        8    3   -0.0094320000000000  -12.4177226001897711  23.0363654323587390  3.7395992680612871  0 0 0
80        8    2    0.0846130000000000  -13.0063599730419241  22.3289829993626157  6.0821179863792914  0 0 0
81        8    2    0.0846130000000000  -14.4331146636737362  21.4876641242427944  5.4767064734996440  0 0 0
82        9    7   -0.6441380000000000   5.5762086243428399   22.8728248244454981 -31.8426764962927358 0 0 0
83        9    5    0.3514710000000000   4.9437672788438807   22.0589968694554237 -30.8588181399323602 0 0 0
84        9    6   -0.0729230000000000   3.4353487994024303   22.1186397572333924 -31.0411284978856585 0 0 0
85        9    1   -0.1873450000000000   2.6118607804338820   21.1154684958372023 -29.8283627531006168 0 0 0
86        9    4    0.4025730000000000   6.5356295939005813   22.8080822656746243 -31.6914429865910670 0 0 0
87        9    3   -0.0094320000000000   5.2331649443134376   22.4297409615871359 -29.8699935541891612 0 0 0
88        9    3   -0.0094320000000000   5.3113936124829717   21.0340565901176610 -30.9740910947227306 0 0 0
89        9    2    0.0846130000000000   3.1498404439191656   21.7640290227670334 -32.0366850698344621 0 0 0
90        9    2    0.0846130000000000   3.0725568900265761   23.1470160512109899 -30.9451981811118060 0 0 0
91        10   7   -0.6441380000000000   4.1228095846095378   12.7796089163380131  2.9550550203164931  0 0 0
92        10   5    0.3514710000000000   4.8241874707024763   13.0196679972311795  4.1719017484546468  0 0 0
93        10   6   -0.0729230000000000   3.9317425307497436   13.7920186103809499  5.1306181868867551  0 0 0
94        10   1   -0.1873450000000000   4.7752103290911894   14.1117062143011793  6.6608625326893334  0 0 0
95        10   4    0.4025730000000000   4.7260031600826542   12.2863390029429205  2.3716220136677801  0 0 0
96        10   3   -0.0094320000000000   5.7309591511256253   13.5873085111963388  3.9383945355297461  0 0 0
97        10   3   -0.0094320000000000   5.1117007627465174   12.0529108326975347  4.5981132490278469  0 0 0
98        10   2    0.0846130000000000   3.0178049072980504   13.2303254867066329  5.3488280337233327  0 0 0
99        10   2    0.0846130000000000   3.6293530712599664   14.7494273312025914  4.6943756473698510  0 0 0
100       11   7   -0.6441380000000000  -12.7442962076198754  32.5038617138551018 -4.4471410707627124  0 0 0
101       11   5    0.3514710000000000  -12.8832347172251342  31.1312256922352013 -4.0909926411716659  0 0 0
102       11   6   -0.0729230000000000  -13.9961251263517408  30.5014270882770866 -4.9137619317546548  0 0 0
103       11   1   -0.1873450000000000  -14.1997312891635428  28.7873340657852772 -4.4945776172700516  0 0 0
104       11   4    0.4025730000000000  -12.0262578085658500  32.8683546025624338 -3.9002246587163043  0 0 0
105       11   3   -0.0094320000000000  -13.1087854210320405  31.0760977653800801 -3.0209159879860770  0 0 0
106       11   3   -0.0094320000000000  -11.9275584660790805  30.6304109786653278 -4.2775591900686862  0 0 0
107       11   2    0.0846130000000000  -13.7767663149584418  30.5733595299340521 -5.9838573096071945  0 0 0
108       11   2    0.0846130000000000  -14.9465575520017051  31.0163253369660303 -4.7407405603284811  0 0 0
109       12   7   -0.6441380000000000  -4.2221614977127873   3.2635972604765691   3.3685901617478704  0 0 0
110       12   5    0.3514710000000000  -4.2463066606606930   3.9534834627546998   4.6150849672775545  0 0 0
111       12   6   -0.0729230000000000  -4.7408641061618892   5.3753565426030434   4.4010510267402418  0 0 0
112       12   1   -0.1873450000000000  -4.7824672194234168   6.2680065412105890   5.9362158419157582  0 0 0
113       12   4    0.4025730000000000  -3.9007750692413543   2.3625207179622110   3.5483778096126404  0 0 0
114       12   3   -0.0094320000000000  -3.2322437700379356   3.9501312957726809   5.0281726926318031  0 0 0
115       12   3   -0.0094320000000000  -4.9076974455720102   3.4077200551154139   5.2959991204689381  0 0 0
116       12   2    0.0846130000000000  -5.7478693841516666   5.3761302786857224   3.9717068135112896  0 0 0
117       12   2    0.0846130000000000  -4.0893858147040669   5.9128248130848586   3.7045725337596664  0 0 0
118       13   7   -0.6441380000000000   30.9449165393899328  14.4885718028605197  23.1935149370165909 0 0 0
119       13   5    0.3514710000000000   30.6576409790095994  13.2445608567879969  22.5609133407018803 0 0 0
120       13   6   -0.0729230000000000   31.5309164367335129  13.0871563176034247  21.3261119656697673 0 0 0
121       13   1   -0.1873450000000000   31.1982839602371556  11.5454435567937512  20.5089441447562777 0 0 0
122       13   4    0.4025730000000000   30.3674388197492533  14.5504819440749671  23.9746925019359942 0 0 0
123       13   3   -0.0094320000000000   29.5959770227318586  13.2335444974186061  22.2930989725904176 0 0 0
124       13   3   -0.0094320000000000   30.8495187183118453  12.4418750776135791  23.2805090776065740 0 0 0
125       13   2    0.0846130000000000   32.5919138451058217  13.1160678304604978  21.5941517124454023 0 0 0
126       13   2    0.0846130000000000   31.3517904523916187  13.9016110193840063  20.6169181856060533 0 0 0
127       14   7   -0.6441380000000000   22.7518641584431656 -23.2792650746769638 -30.0652381297546505 0 0 0
128       14   5    0.3514710000000000   21.7985732440375628 -22.4517424600480489 -30.7260845687928423 0 0 0
129       14   6   -0.0729230000000000   22.5203697126903108 -21.4639382717694751 -31.6290648527745830 0 0 0
130       14   1   -0.1873450000000000   21.3614851607162919 -20.4123244232751020 -32.4695294609829332 0 0 0
131       14   4    0.4025730000000000   22.2516456696209310 -23.8934695013538416 -29.4994765581620513 0 0 0
132       14   3   -0.0094320000000000   21.2122910423277631 -21.9283879501207544 -29.9636217900966777 0 0 0
133       14   3   -0.0094320000000000   21.1298318793327589 -23.0957398203707598 -31.3065946363456149 0 0 0
134       14   2    0.0846130000000000   23.1196747965730900 -21.9894710025418441 -32.3794283962114875 0 0 0
135       14   2    0.0846130000000000   23.2031191745870977 -20.8345163341722035 -31.0493583805397506 0 0 0
136       15   7   -0.6441380000000000   31.9512790931528592 -23.3755705302516361  13.6660650337441965 0 0 0
137       15   5    0.3514710000000000   30.7767340618755370 -22.5817298045198029  13.5227606972036938 0 0 0
138       15   6   -0.0729230000000000   31.1344998361020124 -21.2554459846218080  12.8707671928887155 0 0 0
139       15   1   -0.1873450000000000   29.6922646473909566 -20.2366900755489105  12.6774283530954168 0 0 0
140       15   4    0.4025730000000000   31.6804596232757660 -24.2110443732349552  14.0858173924346275 0 0 0
141       15   3   -0.0094320000000000   30.3457322399127314 -22.4250568941674082  14.5170781920847105 0 0 0
142       15   3   -0.0094320000000000   30.0598815966418442 -23.1380039589773254  12.9098812966109353 0 0 0
143       15   2    0.0846130000000000   31.5813002309888624 -21.4153163628794232  11.8842543692089020 0 0 0
144       15   2    0.0846130000000000   31.8662454443200218 -20.7099968541277164  13.4752603757261298 0 0 0
145       16   7   -0.6441380000000000  -32.0194847482264962  23.2196609597316552  30.4046002990120030 0 0 0
146       16   5    0.3514710000000000  -31.5396718079862914  22.0316871152831659  31.0281168974152237 0 0 0
147       16   6   -0.0729230000000000  -30.0226338679371914  22.0809904137726534  31.1191428443186204 0 0 0
148       16   1   -0.1873450000000000  -29.3875921658495542  20.6125258381480556  31.8909068468124453 0 0 0
149       16   4    0.4025730000000000  -32.9894862226859829  23.1483224849498157  30.3651068595286269 0 0 0
150       16   3   -0.0094320000000000  -31.8679904258365525  21.1747056147850827  30.4308181070456527 0 0 0
151       16   3   -0.0094320000000000  -31.9891492672640787  21.9619518221683876  32.0241322356482101 0 0 0
152       16   2    0.0846130000000000  -29.6962033713008609  22.9482880632992270  31.7019246216516386 0 0 0
153       16   2    0.0846130000000000  -29.5761848965735581  22.1707225261909215  30.1236480622281668 0 0 0
154       17   7   -0.6441380000000000  -12.2575820794858004  4.1169521827302846  -14.4588748701802405 0 0 0
155       17   5    0.3514710000000000  -13.4936372862552840  4.2650999544178587  -13.7656973858646783 0 0 0
156       17   6   -0.0729230000000000  -13.2277262124575596  4.7373560882931178  -12.3449982288828224 0 0 0
157       17   1   -0.1873450000000000  -14.7487391456582912  4.9316609452661160  -11.4483092480244704 0 0 0
158       17   4    0.4025730000000000  -12.4708180317022368  3.8141111575847786  -15.3590801314241272 0 0 0
159       17   3   -0.0094320000000000  -14.0051486958051328  3.2969412501741751  -13.7667236887070796 0 0 0
160       17   3   -0.0094320000000000  -14.1071995372956938  4.9901755476786178  -14.3104416374688341 0 0 0
161       17   2    0.0846130000000000  -12.7007445650377484  5.6968791505021326  -12.3465851667288753 0 0 0
162       17   2    0.0846130000000000  -12.5977173492996499  4.0205946910187071  -11.8086025457162602 0 0 0
163       18   7   -0.6441380000000000   29.9609895586082935  14.4846166363963604  4.3768845016602231  0 0 0
164       18   5    0.3514710000000000   31.0241055355110333  13.6158553881365485  3.9956843254060868  0 0 0
165       18   6   -0.0729230000000000   31.2232846680197973  12.5542273551390462  5.0659152549380870  0 0 0
166       18   1   -0.1873450000000000   32.5445833318856756  11.4520111353310270  4.6248085847795588  0 0 0
167       18   4    0.4025730000000000   29.8669549363478453  15.1465193543144068  3.6693577869497140  0 0 0
168       18   3   -0.0094320000000000   31.9298005985444284  14.2180057425295150  3.8687683866853613  0 0 0
169       18   3   -0.0094320000000000   30.7653629651649894  13.1588527544137843  3.0348823548829369  0 0 0
170       18   2    0.0846130000000000   30.3110056770708773  11.9649537907309114  5.2033939476978714  0 0 0
171       18   2    0.0846130000000000   31.4623095025076367  13.0142707460057245  6.0300758246659525  0 0 0
172       19   7   -0.6441380000000000  -29.5593729328739343 -30.4729192995284244 -31.3814300053300457 0 0 0
173       19   5    0.3514710000000000  -30.8826323244991379 -30.5052659312414463 -30.8539704911561863 0 0 0
174       19   6   -0.0729230000000000  -31.5165134887512046 -31.8552363349373451 -31.1504417858064251 0 0 0
175       19   1   -0.1873450000000000  -33.1708293517983535 -31.9315719809785250 -30.5080262324346059 0 0 0
176       19   4    0.4025730000000000  -29.1911302662476899 -29.5964538527017353 -31.1722472402778195 0 0 0
177       19   3   -0.0094320000000000  -31.4554258741824135 -29.6943567933580148 -31.3158256324487638 0 0 0
178       19   3   -0.0094320000000000  -30.8257658751298855 -30.3284605036690671 -29.7748756856747256 0 0 0
179       19   2    0.0846130000000000  -30.9325093829686963 -32.6656205349975011 -30.7025429861629924 0 0 0
180       19   2    0.0846130000000000  -31.5542172772092684 -32.0385115422485498 -32.2290367143690233 0 0 0
181       20   7   -0.6441380000000000   30.3094182579277636 -32.2755502237862189 -13.9513808222597078 0 0 0
182       20   5    0.3514710000000000   30.5833575852409965 -31.2235976464061658 -13.0301705959298868 0 0 0
183       20   6   -0.0729230000000000   31.7790499775611543 -30.4194781176496782 -13.5157961061949017 0 0 0
184       20   1   -0.1873450000000000   32.1517628575842238 -29.0978231468492510 -12.3890312256526443 0 0 0
185       20   4    0.4025730000000000   29.5419543724872753 -32.7641297075904419 -13.6052001718036255 0 0 0
186       20   3   -0.0094320000000000   30.7839009864261151 -31.6697169213846053 -12.0505093336898099 0 0 0
187       20   3   -0.0094320000000000   29.6917286275784527 -30.5923981381572929 -12.9558433859460749 0 0 0
188       20   2    0.0846130000000000   31.5828784650879903 -29.9889959852265129 -14.5030136877636195 0 0 0
189       20   2    0.0846130000000000   32.6643456437666231 -31.0567068866104030 -13.6083675737571497 0 0 0
190       21   7   -0.6441380000000000  -22.1260649290824354  11.8334245409867478 -22.7887801012103104 0 0 0
191       21   5    0.3514710000000000  -22.1430995086951619  12.8674254598951752 -21.8085621744236455 0 0 0
192       21   6   -0.0729230000000000  -22.1653955132425082  14.2226357613556811 -22.4977853435035620 0 0 0
193       21   1   -0.1873450000000000  -22.1851387952125094  15.5384082330169981 -21.3046219622203061 0 0 0
194       21   4    0.4025730000000000  -22.1112724499118016  10.9866910232228854 -22.3088058283005743 0 0 0
195       21   3   -0.0094320000000000  -21.2505631853644879  12.7613411934990388 -21.1831812569353026 0 0 0
196       21   3   -0.0094320000000000  -23.0316386113082956  12.7320786714400782 -21.1831670501363405 0 0 0
197       21   2    0.0846130000000000  -23.0494835884305225  14.3195923105855556 -23.1360520470623356 0 0 0
198       21   2    0.0846130000000000  -21.2861982570812813  14.3477157089951941 -23.1378990745366337 0 0 0
199       22   7   -0.6441380000000000   22.5622588132312814  12.0264642591011608  31.8837596023807670 0 0 0
200       22   5    0.3514710000000000   21.8122835653538587  13.1408380501240423  31.4083824440606705 0 0 0
201       22   6   -0.0729230000000000   22.5428113369405381  13.7862043994564534  30.2413554092881398 0 0 0
202       22   1   -0.1873450000000000   21.6364229574760749  15.1830164945423594  29.6227586703754007 0 0 0
203       22   4    0.4025730000000000   22.0634075809991153  11.6441267288130081  32.6270746306383757 0 0 0
204       22   3   -0.0094320000000000   21.6912292572507681  13.8496504771981321  32.2341590783359564 0 0 0
205       22   3   -0.0094320000000000   20.8240627083312013  12.7829077376226934  31.1013889903224978 0 0 0
206       22   2    0.0846130000000000   22.6781859941069754  13.0706816857386201  29.4239830153629853 0 0 0
207       22   2    0.0846130000000000   23.5381926246391551  14.1254230704008652  30.5455349328957659 0 0 0
208       23   7   -0.6441380000000000  -11.9967456049454295  13.8908848451903282  13.9946897539066253 0 0 0
209       23   5    0.3514710000000000  -13.3337002301740828  13.4332135173126623  13.8120301061504627 0 0 0
210       23   6   -0.0729230000000000  -13.5157510138410952  12.9492612724280267  12.3820761255492133 0 0 0
211       23   1   -0.1873450000000000  -15.1744616814328914  12.3718425544172668  12.1164591191133368 0 0 0
212       23   4    0.4025730000000000  -11.9224877004059664  14.1911595073359944  14.9176592339473881 0 0 0
213       23   3   -0.0094320000000000  -14.0130779574305713  14.2628640620614835  14.0336201088712276 0 0 0
214       23   3   -0.0094320000000000  -13.5191914812929159  12.6235924241711164  14.5255048658992969 0 0 0
215       23   2    0.0846130000000000  -12.8234310369342683  12.1315872060409387  12.1573566276552079 0 0 0
216       23   2    0.0846130000000000  -13.3104661965401743  13.7549075140395018  11.6699169619045637 0 0 0
217       24   7   -0.6441380000000000  -13.9153514485831167  21.2852123484299831 -29.8302619778022589 0 0 0
218       24   5    0.3514710000000000  -13.4592303635801116  21.6480562641211591 -31.1304823859875697 0 0 0
219       24   6   -0.0729230000000000  -12.9064019118948323  23.0642336225996232 -31.0997733947923933 0 0 0
220       24   1   -0.1873450000000000  -12.3289863759213283  23.5524357174802219 -32.7071115241760637 0 0 0
221       24   4    0.4025730000000000  -14.2604220264781691  20.3771695367876049 -29.8930020662288989 0 0 0
222       24   3   -0.0094320000000000  -14.3039120665128934  21.5728840432784992 -31.8231859372590726 0 0 0
223       24   3   -0.0094320000000000  -12.6873676186869542  20.9334442489327834 -31.4346157815468281 0 0 0
224       24   2    0.0846130000000000  -12.0734295349727887  23.1410886717296194 -30.3936239752584925 0 0 0
225       24   2    0.0846130000000000  -13.6742115563671867  23.7743303849694811 -30.7763397306089956 0 0 0
226       25   7   -0.6441380000000000  -30.0020026230824612  29.7812973593464818 -30.9378010634909408 0 0 0
227       25   5    0.3514710000000000  -31.2239244822545601  30.5106192564160601 -31.0104082376008563 0 0 0
228       25   6   -0.0729230000000000  -30.9271629035020332  32.0018685311037245 -31.0255349001482230 0 0 0
229       25   1   -0.1873450000000000  -32.4300560963706914  32.9446341489292180 -31.1138009155512663 0 0 0
230       25   4    0.4025730000000000  -30.2349128567365391  28.8361859893895840 -30.9294889255350789 0 0 0
231       25   3   -0.0094320000000000  -31.8351346128546666  30.2422669301872169 -30.1424304399243468 0 0 0
232       25   3   -0.0094320000000000  -31.7503324688846114  30.2073757470986735 -31.9213843938030735 0 0 0
233       25   2    0.0846130000000000  -30.3014538250502774  32.2649620483135280 -31.8844101136369034 0 0 0
234       25   2    0.0846130000000000  -30.3834169049247329  32.2991867628761113 -30.1231377839699093 0 0 0
235       26   7   -0.6441380000000000  -20.6802394961830913 -31.4126806435329406  4.8860907097298005  0 0 0
236       26   5    0.3514710000000000  -21.7965581428495838 -31.1477614443351847  4.0411494347283323  0 0 0
237       26   6   -0.0729230000000000  -22.9859401221368138 -30.7210890596807928  4.8869873821627836  0 0 0
238       26   1   -0.1873450000000000  -24.3994740976348901 -30.3836516345876184  3.8655454929399791  0 0 0
239       26   4    0.4025730000000000  -19.9441918008945152 -31.6820792238947249  4.3088472902268746  0 0 0
240       26   3   -0.0094320000000000  -22.0238619851889403 -32.0589478473361140  3.4780787870792276  0 0 0
241       26   3   -0.0094320000000000  -21.5137905292562905 -30.3580324511029112  3.3373666944944649  0 0 0
242       26   2    0.0846130000000000  -22.7504414461643769 -29.8200332001081065  5.4623441354428302  0 0 0
243       26   2    0.0846130000000000  -23.2543572180204983 -31.5041212690821695  5.6033610408615004  0 0 0
244       27   7   -0.6441380000000000   23.5689503867222818 -12.5718812929159132  22.1780317581911213 0 0 0
245       27   5    0.3514710000000000   22.2134235118874344 -12.8755261276976398  22.4952414161633349 0 0 0
246       27   6   -0.0729230000000000   21.7416498457894782 -14.0463302760607700  21.6474396091635022 0 0 0
247       27   1   -0.1873450000000000   20.0519683609569697 -14.4526780600044802  22.0150587151661732 0 0 0
248       27   4    0.4025730000000000   23.8308368170637124 -11.8204853572009512  22.7387200990669207 0 0 0
249       27   3   -0.0094320000000000   21.6082906290600789 -11.9836876334235374  22.3018130153222423 0 0 0
250       27   3   -0.0094320000000000   22.1569499660497549 -13.1171300995194091  23.5617205818859787 0 0 0
251       27   2    0.0846130000000000   22.3590845700481680 -14.9317757793115078  21.8295310808271807 0 0 0
252       27   2    0.0846130000000000   21.8177007507510901 -13.8098182768632185  20.5812985625425071 0 0 0
253       28   7   -0.6441380000000000   22.8189955969139291  11.8486772877777113  13.2175177812466416 0 0 0
254       28   5    0.3514710000000000   22.1650557026663577  13.0455538007974567  12.8050562818395210 0 0 0
255       28   6   -0.0729230000000000   21.9789850206191879  13.9633705948535223  14.0030173344748530 0 0 0
256       28   1   -0.1873450000000000   21.1635511712715214  15.4677008245734022  13.5262112459137533 0 0 0
257       28   4    0.4025730000000000   22.9177155033295818  11.2911228117685916  12.4257228857342525 0 0 0
258       28   3   -0.0094320000000000   21.1991442873525564  12.7744363305187871  12.3663232114240742 0 0 0
259       28   3   -0.0094320000000000   22.7806337745264891  13.5250745725847530  12.0369006866835129 0 0 0
260       28   2    0.0846130000000000   22.9447843137586993  14.2189155386839641  14.4505943547226732 0 0 0
261       28   2    0.0846130000000000   21.3799894678906561  13.4744611414391642  14.7779691209580690 0 0 0
262       29   7   -0.6441380000000000  -12.2009159864570833 -5.5862330737263752  -22.2352402136377592 0 0 0
263       29   5    0.3514710000000000  -12.8087425939809112 -4.3043985280939729  -22.3683652451286363 0 0 0
264       29   6   -0.0729230000000000  -14.2247454938399169 -4.3520724068693299  -21.8162931133619580 0 0 0
265       29   1   -0.1873450000000000  -15.0158409378837074 -2.7688518236014934  -21.9675096201664921 0 0 0
266       29   4    0.4025730000000000  -11.3009992061657787 -5.5134811067130656  -22.5991202900995276 0 0 0
267       29   3   -0.0094320000000000  -12.8116322424990940 -4.0352036265894355  -23.4297332335922910 0 0 0
268       29   3   -0.0094320000000000  -12.1996801993211523 -3.5778301502575109  -21.8205688018767532 0 0 0
269       29   2    0.0846130000000000  -14.2205478937710623 -4.6384737038987334  -20.7597168694431673 0 0 0
270       29   2    0.0846130000000000  -14.8262083490787067 -5.0932265479158936  -22.3523074510223871 0 0 0
271       30   7   -0.6441380000000000  -29.7227105875920969  5.3301549805034218  -31.2611758656755399 0 0 0