
                                 *****************
                                 * O   R   C   A *
                                 *****************

           --- An Ab Initio, DFT and Semiempirical electronic structure package ---

                  #######################################################
                  #                        -***-                        #
                  #          Department of theory and spectroscopy      #
                  #               Directorship: Frank Neese             #
                  #        Max Planck Institute fuer Kohlenforschung    #
                  #                Kaiser Wilhelm Platz 1               #
                  #                 D-45470 Muelheim/Ruhr               #
                  #                      Germany                        #
                  #                                                     #
                  #                  All rights reserved                #
                  #                        -***-                        #
                  #######################################################


                         Program Version 4.1.2  - RELEASE  -


 With contributions from (in alphabetic order):
   Daniel Aravena         : Magnetic Properties
   Michael Atanasov       : Ab Initio Ligand Field Theory
   Alexander A. Auer      : GIAO ZORA
   Ute Becker             : Parallelization
   Giovanni Bistoni       : ED, Open-shell LED
   Martin Brehm           : Molecular dynamics
   Dmytro Bykov           : SCF Hessian
   Vijay G. Chilkuri      : MRCI spin determinant printing
   Dipayan Datta          : RHF DLPNO-CCSD density
   Achintya Kumar Dutta   : EOM-CC, STEOM-CC
   Dmitry Ganyushin       : Spin-Orbit,Spin-Spin,Magnetic field MRCI
   Miquel Garcia          : C-PCM Hessian
   Yang Guo               : DLPNO-NEVPT2, CIM, IAO-localization
   Andreas Hansen         : Spin unrestricted coupled pair/coupled cluster methods
   Benjamin Helmich-Paris : CASSCF linear response (MC-RPA)
   Lee Huntington         : MR-EOM, pCC
   Robert Izsak           : Overlap fitted RIJCOSX, COSX-SCS-MP3, EOM
   Christian Kollmar      : KDIIS, OOCD, Brueckner-CCSD(T), CCSD density
   Simone Kossmann        : Meta GGA functionals, TD-DFT gradient, OOMP2, MP2 Hessian
   Martin Krupicka        : AUTO-CI
   Lucas Lang             : DCDCAS
   Dagmar Lenk            : GEPOL surface, SMD
   Dimitrios Liakos       : Extrapolation schemes; parallel MDCI
   Dimitrios Manganas     : ROCIS; embedding schemes
   Dimitrios Pantazis     : SARC Basis sets
   Taras Petrenko         : DFT Hessian,TD-DFT gradient, ASA, ECA, R-Raman, ABS, FL, XAS/XES, NRVS
   Peter Pinski           : DLPNO-MP2, DLPNO-MP2 Gradient
   Christoph Reimann      : Effective Core Potentials
   Marius Retegan         : Local ZFS, SOC
   Christoph Riplinger    : Optimizer, TS searches, QM/MM, DLPNO-CCSD(T), (RO)-DLPNO pert. Triples
   Tobias Risthaus        : Range-separated hybrids, TD-DFT gradient, RPA, STAB
   Michael Roemelt        : Restricted open shell CIS
   Masaaki Saitow         : Open-shell DLPNO
   Barbara Sandhoefer     : DKH picture change effects
   Avijit Sen             : IP-ROCIS
   Kantharuban Sivalingam : CASSCF convergence, NEVPT2, FIC-MRCI
   Bernardo de Souza      : ESD, SOC TD-DFT
   Georgi Stoychev        : AutoAux, RI-MP2 NMR
   Willem Van den Heuvel  : Paramagnetic NMR
   Boris Wezisla          : Elementary symmetry handling
   Frank Wennmohs         : Technical directorship


 We gratefully acknowledge several colleagues who have allowed us to
 interface, adapt or use parts of their codes:
   Stefan Grimme, W. Hujo, H. Kruse,             : VdW corrections, initial TS optimization,
                  C. Bannwarth                     DFT functionals, gCP, sTDA/sTD-DF
   Ed Valeev                                     : LibInt (2-el integral package), F12 methods
   Garnet Chan, S. Sharma, J. Yang, R. Olivares  : DMRG
   Ulf Ekstrom                                   : XCFun DFT Library
   Mihaly Kallay                                 : mrcc  (arbitrary order and MRCC methods)
   Andreas Klamt, Michael Diedenhofen            : otool_cosmo (COSMO solvation model)
   Jiri Pittner, Ondrej Demel                    : Mk-CCSD
   Frank Weinhold                                : gennbo (NPA and NBO analysis)
   Christopher J. Cramer and Donald G. Truhlar   : smd solvation model
   Lars Goerigk                                  : TD-DFT with DH, B97 family of functionals
   V. Asgeirsson, H. Jonsson                     : NEB implementation
   FAccTs GmbH                                   : IRC, NEB, NEB-TS, Multilevel


 Your calculation uses the libint2 library for the computation of 2-el integrals
 For citations please refer to: http://libint.valeyev.net

 This ORCA versions uses:
   CBLAS   interface :  Fast vector & matrix operations
   LAPACKE interface :  Fast linear algebra routines
   SCALAPACK package :  Parallel linear algebra routines


Your calculation utilizes the atom-pairwise dispersion correction
with the zero-damping scheme (D30)
Cite in your paper:
S.Grimme, J.Antony, S.Ehrlich and H.Krieg, J.Chem.Phys., 132, (2010), 154104 
   

XCFun DFT library Copyright 2009-2010 Ulf Ekstrom and contributors.
See http://admol.org/xcfun for more information. This is free soft-
ware; see the source code for copying conditions. There is ABSOLUTELY
NO WARRANTY; not even for MERCHANTABILITY or FITNESS FOR A PARTICULAR
PURPOSE. For details see the documentation. Scientific users of this 
library should cite U. Ekstrom, L. Visscher, R. Bast, A. J. Thorvald-
sen and K. Ruud; J.Chem.Theor.Comp. 2010, DOI: 10.1021/ct100117s
XCFun Version 0.99 
----- Orbital basis set information -----
Your calculation utilizes the basis: def2-TZVP
   F. Weigend and R. Ahlrichs, Phys. Chem. Chem. Phys. 7, 3297 (2005).

================================================================================
                                        WARNINGS
                       Please study these warnings very carefully!
================================================================================


INFO   : the flag for use of LIBINT has been found!

================================================================================
                                       INPUT FILE
================================================================================
NAME = 113.in
|  1> #Run DFT-D3 single point of the dimer
|  2> ! wB97X-D3 def2-TZVP TIGHTSCF  CHELPG PAL8
|  3> 
|  4> %base "113_charges"
|  5> 
|  6> %scf
|  7> MaxIter 1000
|  8> end
|  9> %output
| 10>   Print[ P_Mayer ] 1
| 11>   Print[ P_NatPop ] 1
| 12>   Print[ P_Hirshfeld ] 1
| 13>   Print[ P_Mulliken ] 1
| 14>   Print [ P_Loewdin ] 1
| 15> end
| 16> 
| 17> * xyz 0 1
| 18>   C                      -9.539967            -5.959951            -7.228330           
| 19>   O                      -9.494442            -4.904067            -6.278131           
| 20>   H                      -8.722890            -4.409395            -6.479660           
| 21>   H                      -9.621733            -5.591693            -8.237245           
| 22>   H                      -8.654288            -6.653716            -7.136660           
| 23>   H                      -10.399769           -6.511958            -7.066308           
| 24> *
| 25> 
| 26>                          ****END OF INPUT****
================================================================================

                       ****************************
                       * Single Point Calculation *
                       ****************************

---------------------------------
CARTESIAN COORDINATES (ANGSTROEM)
---------------------------------
  C     -9.539967   -5.959951   -7.228330
  O     -9.494442   -4.904067   -6.278131
  H     -8.722890   -4.409395   -6.479660
  H     -9.621733   -5.591693   -8.237245
  H     -8.654288   -6.653716   -7.136660
  H    -10.399769   -6.511958   -7.066308

----------------------------
CARTESIAN COORDINATES (A.U.)
----------------------------
  NO LB      ZA    FRAG     MASS         X           Y           Z
   0 C     6.0000    0    12.011  -18.027925  -11.262675  -13.659564
   1 O     8.0000    0    15.999  -17.941895   -9.267344  -11.863948
   2 H     1.0000    0     1.008  -16.483873   -8.332549  -12.244783
   3 H     1.0000    0     1.008  -18.182440  -10.566768  -15.566137
   4 H     1.0000    0     1.008  -16.354234  -12.573701  -13.486333
   5 H     1.0000    0     1.008  -19.652715  -12.305817  -13.353387

--------------------------------
INTERNAL COORDINATES (ANGSTROEM)
--------------------------------
 C      0   0   0     0.000000000000     0.00000000     0.00000000
 O      1   0   0     1.421211344833     0.00000000     0.00000000
 H      2   1   0     0.938406529245   105.92574096     0.00000000
 H      1   2   3     1.077130034186   112.00387109   298.23341895
 H      1   2   3     1.128778346340   112.16010299    62.79230521
 H      1   2   3     1.034515507732   108.56258480   182.23253552

---------------------------
INTERNAL COORDINATES (A.U.)
---------------------------
 C      0   0   0     0.000000000000     0.00000000     0.00000000
 O      1   0   0     2.685700220156     0.00000000     0.00000000
 H      2   1   0     1.773331342556   105.92574096     0.00000000
 H      1   2   3     2.035480775232   112.00387109   298.23341895
 H      1   2   3     2.133081940483   112.16010299    62.79230521
 H      1   2   3     1.954950990907   108.56258480   182.23253552

---------------------
BASIS SET INFORMATION
---------------------
There are 3 groups of distinct atoms

 Group   1 Type C   : 11s6p2d1f contracted to 5s3p2d1f pattern {62111/411/11/1}
 Group   2 Type O   : 11s6p2d1f contracted to 5s3p2d1f pattern {62111/411/11/1}
 Group   3 Type H   : 5s1p contracted to 3s1p pattern {311/1}

Atom   0C    basis set group =>   1
Atom   1O    basis set group =>   2
Atom   2H    basis set group =>   3
Atom   3H    basis set group =>   3
Atom   4H    basis set group =>   3
Atom   5H    basis set group =>   3


           ************************************************************
           *        Program running with 8 parallel MPI-processes     *
           *              working on a common directory               *
           ************************************************************
------------------------------------------------------------------------------
                           ORCA GTO INTEGRAL CALCULATION
------------------------------------------------------------------------------

                         BASIS SET STATISTICS AND STARTUP INFO

 # of primitive gaussian shells          ...   64
 # of primitive gaussian functions       ...  124
 # of contracted shells                  ...   38
 # of contracted basis functions         ...   86
 Highest angular momentum                ...    3
 Maximum contraction depth               ...    6
 Integral package used                   ... LIBINT
 Integral threshhold            Thresh   ...  2.500e-11
 Primitive cut-off              TCut     ...  2.500e-12


------------------------------ INTEGRAL EVALUATION ----------------------------


 * One electron integrals 
 Pre-screening matrix                    ... done
 Shell pair data                         ... done (   0.000 sec)



           ************************************************************
           *        Program running with 8 parallel MPI-processes     *
           *              working on a common directory               *
           ************************************************************
-------------------------------------------------------------------------------
                                 ORCA SCF
-------------------------------------------------------------------------------

------------
SCF SETTINGS
------------
Hamiltonian:
 Density Functional     Method          .... DFT(GTOs)
 Exchange Functional    Exchange        .... WB97X-D3
 Correlation Functional Correlation     .... WB97X-D3
 Gradients option       PostSCFGGA      .... off
 Hybrid DFT is turned on
   Fraction HF Exchange ScalHFX         ....  0.195728
   Scaling of DF-GGA-X  ScalDFX         ....  0.000000
   Scaling of DF-GGA-C  ScalDFC         ....  1.000000
   Scaling of DF-LDA-C  ScalLDAC        ....  1.000000
   Perturbative correction              ....  0.000000
   Density functional embedding theory  .... OFF
 Long-range corrected/Screened/Range-Separated Hybrid DFT is turned on
   Amount of maximum screened exact exchange              ....  0.804272
   Range separation parameter mu (erf(mu*r12)/r12)        ....  0.250000


General Settings:
 Integral files         IntName         .... 113_charges
 Hartree-Fock type      HFTyp           .... RHF
 Total Charge           Charge          ....    0
 Multiplicity           Mult            ....    1
 Number of Electrons    NEL             ....   18
 Basis Dimension        Dim             ....   86
 Nuclear Repulsion      ENuc            ....     40.5766668861 Eh

Convergence Acceleration:
 DIIS                   CNVDIIS         .... on
   Start iteration      DIISMaxIt       ....    12
   Startup error        DIISStart       ....  0.200000
   # of expansion vecs  DIISMaxEq       ....     5
   Bias factor          DIISBfac        ....   1.050
   Max. coefficient     DIISMaxC        ....  10.000
 Newton-Raphson         CNVNR           .... off
 SOSCF                  CNVSOSCF        .... on
   Start iteration      SOSCFMaxIt      ....   150
   Startup grad/error   SOSCFStart      ....  0.003300
 Level Shifting         CNVShift        .... on
   Level shift para.    LevelShift      ....    0.2500
   Turn off err/grad.   ShiftErr        ....    0.0010
 Zerner damping         CNVZerner       .... off
 Static damping         CNVDamp         .... on
   Fraction old density DampFac         ....    0.7000
   Max. Damping (<1)    DampMax         ....    0.9800
   Min. Damping (>=0)   DampMin         ....    0.0000
   Turn off err/grad.   DampErr         ....    0.1000
 Fernandez-Rico         CNVRico         .... off

SCF Procedure:
 Maximum # iterations   MaxIter         ....  1000
 SCF integral mode      SCFMode         .... Direct
   Integral package                     .... LIBINT
 Reset frequency        DirectResetFreq ....    20
 Integral Threshold     Thresh          ....  2.500e-11 Eh
 Primitive CutOff       TCut            ....  2.500e-12 Eh

Convergence Tolerance:
 Convergence Check Mode ConvCheckMode   .... Total+1el-Energy
 Convergence forced     ConvForced      .... 0
 Energy Change          TolE            ....  1.000e-08 Eh
 1-El. energy change                    ....  1.000e-05 Eh
 Orbital Gradient       TolG            ....  1.000e-05
 Orbital Rotation angle TolX            ....  1.000e-05
 DIIS Error             TolErr          ....  5.000e-07


Diagonalization of the overlap matrix:
Smallest eigenvalue                        ... 1.556e-03
Time for diagonalization                   ...    0.130 sec
Threshold for overlap eigenvalues          ... 1.000e-08
Number of eigenvalues below threshold      ... 0
Time for construction of square roots      ...    0.646 sec
Total time needed                          ...    0.776 sec

-------------------
DFT GRID GENERATION
-------------------

General Integration Accuracy     IntAcc      ...  4.340
Radial Grid Type                 RadialGrid  ... Gauss-Chebyshev
Angular Grid (max. acc.)         AngularGrid ... Lebedev-110
Angular grid pruning method      GridPruning ... 3 (G Style)
Weight generation scheme         WeightScheme... Becke
Basis function cutoff            BFCut       ...    1.0000e-11
Integration weight cutoff        WCut        ...    1.0000e-14
Grids for H and He will be reduced by one unit

# of grid points (after initial pruning)     ...   6548 (   0.0 sec)
# of grid points (after weights+screening)   ...   6371 (   2.3 sec)
nearest neighbour list constructed           ...    0.0 sec
Grid point re-assignment to atoms done       ...    0.0 sec
Grid point division into batches done        ...    0.0 sec
Reduced shell lists constructed in    0.0 sec

Total number of grid points                  ...     6371
Total number of batches                      ...      101
Average number of points per batch           ...       63
Average number of grid points per atom       ...     1062
Average number of shells per batch           ...    31.86 (83.83%)
Average number of basis functions per batch  ...    72.86 (84.72%)
Average number of large shells per batch     ...    30.57 (95.96%)
Average number of large basis fcns per batch ...    70.29 (96.47%)
Maximum spatial batch extension              ...  18.30, 13.22, 15.44 au
Average spatial batch extension              ...   0.48,  0.40,  0.43 au

Time for grid setup =    6.321 sec

------------------------------
INITIAL GUESS: MODEL POTENTIAL
------------------------------
Loading Hartree-Fock densities                     ... done
Calculating cut-offs                               ... done
Setting up the integral package                    ... done
Initializing the effective Hamiltonian             ... done
Starting the Coulomb interaction                   ... done (   0.0 sec)
Reading the grid                                   ... done
Mapping shells                                     ... done
Starting the XC term evaluation                    ... done (   0.1 sec)
  promolecular density results
     # of electrons  =     17.998432979
     EX              =    -14.439603628
     EC              =     -0.576050356
     EX+EC           =    -15.015653984
Transforming the Hamiltonian                       ... done (   0.0 sec)
Diagonalizing the Hamiltonian                      ... done (   0.2 sec)
Back transforming the eigenvectors                 ... done (   0.0 sec)
Now organizing SCF variables                       ... done
                      ------------------
                      INITIAL GUESS DONE (   6.9 sec)
                      ------------------
--------------
SCF ITERATIONS
--------------
ITER       Energy         Delta-E        Max-DP      RMS-DP      [F,P]     Damp
               ***  Starting incremental Fock matrix formation  ***
  0   -115.6459633395   0.000000000000 0.03661588  0.00147702  0.2521189 0.7000
  1   -115.6833093596  -0.037346020179 0.02190590  0.00104459  0.1268564 0.7000
                               ***Turning on DIIS***
  2   -115.7006703938  -0.017361034141 0.03168181  0.00189729  0.0500307 0.0000
  3   -115.7289556625  -0.028285268745 0.01713780  0.00068579  0.0603027 0.0000
  4   -115.7334655585  -0.004509895990 0.00413460  0.00013390  0.0063160 0.0000
                      *** Initiating the SOSCF procedure ***
                           *** Shutting down DIIS ***
                      *** Re-Reading the Fockian *** 
                      *** Removing any level shift *** 
ITER      Energy       Delta-E        Grad      Rot      Max-DP    RMS-DP
  5   -115.73356098  -0.0000954251  0.000488  0.000488  0.000702  0.000045
               *** Restarting incremental Fock matrix formation ***
  6   -115.73356928  -0.0000082919  0.000165  0.000222  0.000513  0.000028
  7   -115.73357006  -0.0000007816  0.000063  0.000124  0.000245  0.000013
  8   -115.73357012  -0.0000000674  0.000020  0.000018  0.000027  0.000001
  9   -115.73357013  -0.0000000058  0.000011  0.000008  0.000014  0.000001
 10   -115.73357013  -0.0000000015  0.000003  0.000002  0.000003  0.000000
                  ***Gradient check signals convergence***
              ***Rediagonalizing the Fockian in SOSCF/NRSCF***

               *****************************************************
               *                     SUCCESS                       *
               *           SCF CONVERGED AFTER  11 CYCLES          *
               *****************************************************

Setting up the final grid:

General Integration Accuracy     IntAcc      ...  4.670
Radial Grid Type                 RadialGrid  ... Gauss-Chebyshev
Angular Grid (max. acc.)         AngularGrid ... Lebedev-302
Angular grid pruning method      GridPruning ... 3 (G Style)
Weight generation scheme         WeightScheme... Becke
Basis function cutoff            BFCut       ...    1.0000e-11
Integration weight cutoff        WCut        ...    1.0000e-14
Grids for H and He will be reduced by one unit

# of grid points (after initial pruning)     ...  26000 (   0.0 sec)
# of grid points (after weights+screening)   ...  25200 (   0.0 sec)
nearest neighbour list constructed           ...    0.0 sec
Grid point re-assignment to atoms done       ...    0.0 sec
Grid point division into batches done        ...    0.1 sec
Reduced shell lists constructed in    0.1 sec

Total number of grid points                  ...    25200
Total number of batches                      ...      398
Average number of points per batch           ...       63
Average number of grid points per atom       ...     4200
Average number of shells per batch           ...    31.14 (81.94%)
Average number of basis functions per batch  ...    71.33 (82.95%)
Average number of large shells per batch     ...    29.71 (95.40%)
Average number of large basis fcns per batch ...    68.41 (95.90%)
Maximum spatial batch extension              ...  15.22, 16.58, 14.29 au
Average spatial batch extension              ...   0.30,  0.31,  0.30 au

Final grid set up in    0.1 sec
Final integration                            ... done (   0.1 sec)
Change in XC energy                          ...    -0.000042694
Integrated number of electrons               ...    17.999990500
Previous integrated no of electrons          ...    18.001115247

----------------
TOTAL SCF ENERGY
----------------

Total Energy       :         -115.73361283 Eh           -3149.27171 eV

Components:
Nuclear Repulsion  :           40.57666689 Eh            1104.14724 eV
Electronic Energy  :         -156.31027971 Eh           -4253.41895 eV
One Electron Energy:         -237.52850536 Eh           -6463.47923 eV
Two Electron Energy:           81.21822564 Eh            2210.06028 eV

Virial components:
Potential Energy   :         -231.07839144 Eh           -6287.96270 eV
Kinetic Energy     :          115.34477861 Eh            3138.69099 eV
Virial Ratio       :            2.00337106


DFT components:
N(Alpha)           :        8.999995250137 electrons
N(Beta)            :        8.999995250137 electrons
N(Total)           :       17.999990500274 electrons
E(XC)              :      -10.672334738083 Eh       
DFET-embed. en.    :        0.000000000000 Eh       

---------------
SCF CONVERGENCE
---------------

  Last Energy change         ...   -2.1626e-10  Tolerance :   1.0000e-08
  Last MAX-Density change    ...    1.9974e-06  Tolerance :   1.0000e-07
  Last RMS-Density change    ...    9.5559e-08  Tolerance :   5.0000e-09
  Last Orbital Gradient      ...    1.3883e-06  Tolerance :   1.0000e-05
  Last Orbital Rotation      ...    8.5622e-07  Tolerance :   1.0000e-05

             **** THE GBW FILE WAS UPDATED (113_charges.gbw) ****
             **** DENSITY FILE WAS UPDATED (113_charges.scfp.tmp) ****
             **** ENERGY FILE WAS UPDATED (113_charges.en.tmp) ****
----------------
ORBITAL ENERGIES
----------------

  NO   OCC          E(Eh)            E(eV) 
   0   2.0000     -19.228285      -523.2282 
   1   2.0000     -10.308430      -280.5066 
   2   2.0000      -1.139201       -30.9992 
   3   2.0000      -0.801581       -21.8121 
   4   2.0000      -0.609980       -16.5984 
   5   2.0000      -0.541830       -14.7439 
   6   2.0000      -0.531252       -14.4561 
   7   2.0000      -0.438949       -11.9444 
   8   2.0000      -0.375378       -10.2146 
   9   0.0000       0.118819         3.2332 
  10   0.0000       0.157117         4.2754 
  11   0.0000       0.202679         5.5152 
  12   0.0000       0.210150         5.7185 
  13   0.0000       0.225247         6.1293 
  14   0.0000       0.303411         8.2562 
  15   0.0000       0.316439         8.6108 
  16   0.0000       0.398980        10.8568 
  17   0.0000       0.450492        12.2585 
  18   0.0000       0.493020        13.4157 
  19   0.0000       0.532161        14.4808 
  20   0.0000       0.548155        14.9161 
  21   0.0000       0.570072        15.5124 
  22   0.0000       0.598324        16.2812 
  23   0.0000       0.627037        17.0625 
  24   0.0000       0.674975        18.3670 
  25   0.0000       0.773868        21.0580 
  26   0.0000       0.818609        22.2755 
  27   0.0000       0.862814        23.4784 
  28   0.0000       0.989537        26.9267 
  29   0.0000       1.018960        27.7273 
  30   0.0000       1.106000        30.0958 
  31   0.0000       1.381219        37.5849 
  32   0.0000       1.510274        41.0966 
  33   0.0000       1.541384        41.9432 
  34   0.0000       1.605534        43.6888 
  35   0.0000       1.625179        44.2234 
  36   0.0000       1.639030        44.6003 
  37   0.0000       1.648088        44.8468 
  38   0.0000       1.686229        45.8846 
  39   0.0000       1.792326        48.7717 
  40   0.0000       1.954762        53.1918 
  41   0.0000       2.035239        55.3817 
  42   0.0000       2.064225        56.1704 
  43   0.0000       2.090645        56.8893 
  44   0.0000       2.118753        57.6542 
  45   0.0000       2.270609        61.7864 
  46   0.0000       2.323173        63.2168 
  47   0.0000       2.361021        64.2466 
  48   0.0000       2.380892        64.7874 
  49   0.0000       2.427427        66.0537 
  50   0.0000       2.525648        68.7264 
  51   0.0000       2.601113        70.7799 
  52   0.0000       2.663569        72.4794 
  53   0.0000       2.741660        74.6044 
  54   0.0000       2.856820        77.7380 
  55   0.0000       2.863992        77.9332 
  56   0.0000       2.899931        78.9111 
  57   0.0000       2.978297        81.0436 
  58   0.0000       3.099349        84.3376 
  59   0.0000       3.194793        86.9347 
  60   0.0000       3.306309        89.9693 
  61   0.0000       3.414752        92.9201 
  62   0.0000       3.436440        93.5103 
  63   0.0000       3.481898        94.7473 
  64   0.0000       3.603567        98.0580 
  65   0.0000       3.640207        99.0551 
  66   0.0000       3.691788       100.4587 
  67   0.0000       4.037380       109.8627 
  68   0.0000       4.198993       114.2604 
  69   0.0000       4.370990       118.9407 
  70   0.0000       4.476010       121.7984 
  71   0.0000       4.561074       124.1131 
  72   0.0000       5.349013       145.5540 
  73   0.0000       5.451043       148.3304 
  74   0.0000       5.557792       151.2352 
  75   0.0000       5.801287       157.8610 
  76   0.0000       5.807368       158.0265 
  77   0.0000       6.001584       163.3114 
  78   0.0000       6.425788       174.8546 
  79   0.0000       6.532000       177.7448 
  80   0.0000       6.764589       184.0738 
  81   0.0000       6.797574       184.9714 
  82   0.0000       7.038980       191.5404 
  83   0.0000       7.229308       196.7195 
  84   0.0000      22.449684       610.8870 
  85   0.0000      43.648071      1187.7244 

                    ********************************
                    * MULLIKEN POPULATION ANALYSIS *
                    ********************************

-----------------------
MULLIKEN ATOMIC CHARGES
-----------------------
   0 C :   -0.168664
   1 O :   -0.466907
   2 H :    0.309682
   3 H :    0.103391
   4 H :    0.097808
   5 H :    0.124689
Sum of atomic charges:    0.0000000

--------------------------------
MULLIKEN REDUCED ORBITAL CHARGES
--------------------------------
  0 C s       :     3.224335  s :     3.224335
      pz      :     0.894585  p :     2.843194
      px      :     1.083967
      py      :     0.864642
      dz2     :     0.032885  d :     0.093768
      dxz     :     0.010154
      dyz     :     0.011839
      dx2y2   :     0.011566
      dxy     :     0.027323
      f0      :     0.001034  f :     0.007366
      f+1     :     0.000165
      f-1     :     0.002450
      f+2     :     0.000738
      f-2     :     0.001390
      f+3     :     0.000597
      f-3     :     0.000992
  1 O s       :     3.793121  s :     3.793121
      pz      :     1.639516  p :     4.641590
      px      :     1.547582
      py      :     1.454492
      dz2     :     0.006357  d :     0.030532
      dxz     :     0.004359
      dyz     :     0.008106
      dx2y2   :     0.004602
      dxy     :     0.007108
      f0      :     0.000203  f :     0.001664
      f+1     :     0.000101
      f-1     :     0.000289
      f+2     :     0.000263
      f-2     :     0.000240
      f+3     :     0.000137
      f-3     :     0.000432
  2 H s       :     0.640317  s :     0.640317
      pz      :     0.014799  p :     0.050001
      px      :     0.018882
      py      :     0.016319
  3 H s       :     0.876698  s :     0.876698
      pz      :     0.011281  p :     0.019910
      px      :     0.004564
      py      :     0.004066
  4 H s       :     0.883855  s :     0.883855
      pz      :     0.003024  p :     0.018337
      px      :     0.008621
      py      :     0.006693
  5 H s       :     0.853728  s :     0.853728
      pz      :     0.004547  p :     0.021583
      px      :     0.010247
      py      :     0.006789


                     *******************************
                     * LOEWDIN POPULATION ANALYSIS *
                     *******************************

----------------------
LOEWDIN ATOMIC CHARGES
----------------------
   0 C :   -0.373462
   1 O :   -0.069856
   2 H :    0.154300
   3 H :    0.092312
   4 H :    0.101625
   5 H :    0.095080

-------------------------------
LOEWDIN REDUCED ORBITAL CHARGES
-------------------------------
  0 C s       :     2.855040  s :     2.855040
      pz      :     0.990212  p :     3.056931
      px      :     1.113531
      py      :     0.953188
      dz2     :     0.139588  d :     0.405902
      dxz     :     0.026826
      dyz     :     0.085398
      dx2y2   :     0.042406
      dxy     :     0.111684
      f0      :     0.005079  f :     0.055589
      f+1     :     0.004162
      f-1     :     0.015253
      f+2     :     0.010982
      f-2     :     0.009347
      f+3     :     0.003584
      f-3     :     0.007183
  1 O s       :     3.364741  s :     3.364741
      pz      :     1.637231  p :     4.630167
      px      :     1.532971
      py      :     1.459965
      dz2     :     0.015712  d :     0.070241
      dxz     :     0.007170
      dyz     :     0.017645
      dx2y2   :     0.010285
      dxy     :     0.019429
      f0      :     0.000598  f :     0.004707
      f+1     :     0.000313
      f-1     :     0.000847
      f+2     :     0.000771
      f-2     :     0.000912
      f+3     :     0.000304
      f-3     :     0.000962
  2 H s       :     0.677787  s :     0.677787
      pz      :     0.045727  p :     0.167913
      px      :     0.074346
      py      :     0.047841
  3 H s       :     0.844740  s :     0.844740
      pz      :     0.034284  p :     0.062948
      px      :     0.015048
      py      :     0.013616
  4 H s       :     0.843777  s :     0.843777
      pz      :     0.009431  p :     0.054598
      px      :     0.025727
      py      :     0.019440
  5 H s       :     0.835650  s :     0.835650
      pz      :     0.014985  p :     0.069270
      px      :     0.033616
      py      :     0.020669


                      *****************************
                      * MAYER POPULATION ANALYSIS *
                      *****************************

  NA   - Mulliken gross atomic population
  ZA   - Total nuclear charge
  QA   - Mulliken gross atomic charge
  VA   - Mayer's total valence
  BVA  - Mayer's bonded valence
  FA   - Mayer's free valence

  ATOM       NA         ZA         QA         VA         BVA        FA
  0 C      6.1687     6.0000    -0.1687     3.9388     3.9388     0.0000
  1 O      8.4669     8.0000    -0.4669     1.8979     1.8979    -0.0000
  2 H      0.6903     1.0000     0.3097     0.9167     0.9167    -0.0000
  3 H      0.8966     1.0000     0.1034     0.9578     0.9578     0.0000
  4 H      0.9022     1.0000     0.0978     0.9625     0.9625     0.0000
  5 H      0.8753     1.0000     0.1247     0.9566     0.9566     0.0000

  Mayer bond orders larger than 0.1
B(  0-C ,  1-O ) :   1.0016 B(  0-C ,  3-H ) :   0.9761 B(  0-C ,  4-H ) :   0.9764 
B(  0-C ,  5-H ) :   0.9764 B(  1-O ,  2-H ) :   0.9072 


------------------
HIRSHFELD ANALYSIS
------------------

Total integrated alpha density =      9.000557623
Total integrated beta density  =      9.000557623

  ATOM     CHARGE      SPIN    
   0 C    0.005978    0.000000
   1 O   -0.250867    0.000000
   2 H    0.155615    0.000000
   3 H    0.026088    0.000000
   4 H    0.025120    0.000000
   5 H    0.036951    0.000000

  TOTAL  -0.001115    0.000000

-------
TIMINGS
-------

Total SCF time: 0 days 0 hours 0 min 31 sec 

Total time                  ....      31.327 sec
Sum of individual times     ....      27.802 sec  ( 88.7%)

Fock matrix formation       ....      16.699 sec  ( 53.3%)
  XC integration            ....       3.740 sec  ( 22.4% of F)
    Basis function eval.    ....       0.041 sec  (  1.1% of XC)
    Density eval.           ....       0.054 sec  (  1.4% of XC)
    XC-Functional eval.     ....       0.074 sec  (  2.0% of XC)
    XC-Potential eval.      ....       0.040 sec  (  1.1% of XC)
Diagonalization             ....       1.319 sec  (  4.2%)
Density matrix formation    ....       0.903 sec  (  2.9%)
Population analysis         ....       0.028 sec  (  0.1%)
Initial guess               ....       0.613 sec  (  2.0%)
Orbital Transformation      ....       0.000 sec  (  0.0%)
Orbital Orthonormalization  ....       0.000 sec  (  0.0%)
DIIS solution               ....       0.219 sec  (  0.7%)
SOSCF solution              ....       1.571 sec  (  5.0%)
Grid generation             ....       6.450 sec  ( 20.6%)


-------------------------------------------------------------------------------
                          DFT DISPERSION CORRECTION                            
                                                                               
                              DFTD3 V3.1  Rev 1                                
                              USING zero damping                               
-------------------------------------------------------------------------------
The omegaB97X-D3 functional is recognized. Fit by Chai et al.
Active option DFTDOPT                   ...         3   

molecular C6(AA) [au] = 208.682643 


            DFT-D V3
 parameters
 s6 scaling factor         :     1.0000 
 rs6 scaling factor        :     1.2810 
 s8 scaling factor         :     1.0000 
 rs8 scaling factor        :     1.0940 
 Damping factor alpha6     :    14.0000 
 Damping factor alpha8     :    16.0000 
 ad hoc parameters k1-k3   :    16.0000     1.3333    -4.0000 

 Edisp/kcal,au: -0.146501782550  -0.000233465426 
 E6   /kcal   :  -0.027070105 
 E8   /kcal   :  -0.119431677 
 % E8         :  81.522337316 

-------------------------   ----------------
Dispersion correction           -0.000233465
-------------------------   ----------------


-------------------------   --------------------
FINAL SINGLE POINT ENERGY      -115.733846291705
-------------------------   --------------------


                            ***************************************
                            *     ORCA property calculations      *
                            ***************************************

                                    ---------------------
                                    Active property flags
                                    ---------------------
   (+) Dipole Moment


------------------------------------------------------------------------------
                       ORCA ELECTRIC PROPERTIES CALCULATION
------------------------------------------------------------------------------

Dipole Moment Calculation                       ... on
Quadrupole Moment Calculation                   ... off
Polarizability Calculation                      ... off
GBWName                                         ... 113_charges.gbw
Electron density file                           ... 113_charges.scfp.tmp
The origin for moment calculation is the CENTER OF MASS  = (-17.939718, -10.226368 -12.763379)

-------------
DIPOLE MOMENT
-------------
                                X             Y             Z
Electronic contribution:     -0.10222       1.31268       1.26764
Nuclear contribution   :      0.53895      -1.41901      -1.77880
                        -----------------------------------------
Total Dipole Moment    :      0.43673      -0.10633      -0.51116
                        -----------------------------------------
Magnitude (a.u.)       :      0.68067
Magnitude (Debye)      :      1.73014



--------------------
Rotational spectrum 
--------------------
 
Rotational constants in cm-1:     4.398364     0.825995     0.804552 
Rotational constants in MHz : 131859.639641 24762.700875 24119.876322 

 Dipole components along the rotational axes: 
x,y,z [a.u.] :     0.379355     0.557375    -0.093491 
x,y,z [Debye]:     0.964244     1.416736    -0.237635 

 
------------------------------------------------------------------------------
                      ORCA CHELPG CHARGES GENERATION
------------------------------------------------------------------------------

GBW file                           ... 113_charges.gbw

Reading the GBW file               ... done

Grid spacing                       ...     0.300000
Point Cut-Off                      ...     2.800000
Van-der-Waals Radii                ...        COSMO
Total charge                       ...            0


Number of points X direction       ...           24
Number of points Y direction       ...           26
Number of points Z direction       ...           25
Maximum number of possible points  ...        15600
Final number of points             ...         5905


CHELPG Charges            
--------------------------------
  0   C   :       0.093657
  1   O   :      -0.603234
  2   H   :       0.401081
  3   H   :       0.014722
  4   H   :       0.005628
  5   H   :       0.088146
--------------------------------
Total charge:    -0.000000
--------------------------------

CHELPG charges calculated...

Timings for individual parts in CHELPG calculation:
Grid generation                 ...        0.002 sec (=   0.000 min)
Potential calculation           ...        0.695 sec (=   0.012 min)
Fit to the potential            ...        0.001 sec (=   0.000 min)
------------------------------------------------------------------------------


Timings for individual modules:

Sum of individual times         ...       40.970 sec (=   0.683 min)
GTO integral calculation        ...        5.128 sec (=   0.085 min)  12.5 %
SCF iterations                  ...       35.041 sec (=   0.584 min)  85.5 %
CHELPG charge generation        ...        0.801 sec (=   0.013 min)   2.0 %
                             ****ORCA TERMINATED NORMALLY****
TOTAL RUN TIME: 0 days 0 hours 0 minutes 42 seconds 683 msec
