LAMMPS data file via vdw_self_gen.py, on 2020-11-04 19:11:36.732131

1002 atoms
4 atom types
835 bonds
3 bond types
1169 angles
3 angle types
501 dihedrals
1 dihedral types

-22.3237117204148277  22.3237117204148277 xlo xhi
-22.3237117204148277  22.3237117204148277 ylo yhi
-22.3237117204148277  22.3237117204148277 zlo zhi

Masses

1  1.007940
2  1.007940
3  12.011000
4  15.999400

Atoms

1         0    3    0.0994540000000000   3.3320068700907868   3.4732508415117276  -9.7280053536958011  0 0 0
2         0    4   -0.5978230000000000   2.3515433048005687   2.5008935085892201  -9.5081136381851401  0 0 0
3         0    2    0.4025730000000000   2.6907678371829142   1.9336726972051752  -8.7679183127724443  0 0 0
4         0    1    0.0319320000000000   3.0000420696990733   4.1381613137577160  -10.5517197532898024 0 0 0
5         0    1    0.0319320000000000   3.4718288119240559   4.0934827831250908  -8.8161856142820891  0 0 0
6         0    1    0.0319320000000000   4.2884211523724547   2.9951489018809241  -10.0318874659842781 0 0 0
7         1    3    0.0994540000000000  -9.7035342236135165   16.2002698379063581 -16.1541358883807646 0 0 0
8         1    4   -0.5978230000000000  -8.8926280792988521   15.6978933712783757 -15.1317910037204513 0 0 0
9         1    2    0.4025730000000000  -9.0587366968732912   14.7198809935372150 -15.1072641173996747 0 0 0
10        1    1    0.0319320000000000  -9.5549410670182677   17.2974686768049217 -16.2240412432021515 0 0 0
11        1    1    0.0319320000000000  -9.4193810619870462   15.7486746924013215 -17.1293137589735913 0 0 0
12        1    1    0.0319320000000000  -10.7746090094185849  16.0088626584210658 -15.9265042186726316 0 0 0
13        2    3    0.0994540000000000   3.2670974326803948  -9.8185306091859310  -15.7051136817003467 0 0 0
14        2    4   -0.5978230000000000   2.9436851652448830  -9.3388709444246736  -16.9780909256341666 0 0 0
15        2    2    0.4025730000000000   2.8598183734103646  -8.3544261250070164  -16.8856971447334843 0 0 0
16        2    1    0.0319320000000000   3.3728734588629972  -10.9218476736218548 -15.7532267205724938 0 0 0
17        2    1    0.0319320000000000   4.2358279604211821  -9.3913957683217841  -15.3663363708558780 0 0 0
18        2    1    0.0319320000000000   2.4553076554500319  -9.5787590176482951  -14.9845853868528867 0 0 0
19        3    3    0.0994540000000000  -9.3727899887292718   9.2728547123267457   3.1396026198070497  0 0 0
20        3    4   -0.5978230000000000  -10.0263218563433885  10.2475108591074004  3.8999192945258763  0 0 0
21        3    2    0.4025730000000000  -10.4300133914213013  10.8771702170650624  3.2477965381043687  0 0 0
22        3    1    0.0319320000000000  -8.9010656377501896   8.5391443107166616   3.8251368349725183  0 0 0
23        3    1    0.0319320000000000  -10.1013820074644514  8.7305188505805091   2.4987605508857316  0 0 0
24        3    1    0.0319320000000000  -8.5722572565009543   9.7366311884131758   2.5233942077743032  0 0 0
25        4    3    0.0994540000000000  -16.1347030131135263 -16.1440006067233668  9.7948867902359638  0 0 0
26        4    4   -0.5978230000000000  -15.4679324640650986 -14.9906934725564653  9.3701049150324760  0 0 0
27        4    2    0.4025730000000000  -15.1148556262497991 -15.1968748627308585  8.4659324575089645  0 0 0
28        4    1    0.0319320000000000  -16.5511275813117464 -15.9656737425012860  10.8076069319323977 0 0 0
29        4    1    0.0319320000000000  -16.9778242125807211 -16.3771245262561678  9.1089910582543023  0 0 0
30        4    1    0.0319320000000000  -15.4266073330283735 -16.9986830195811223  9.8563079852454507  0 0 0
31        5    3    0.0994540000000000  -3.5218005532002703   9.6668376549792931  -15.8655586898375827 0 0 0
32        5    4   -0.5978230000000000  -2.5268392297566322   8.7627219153465568  -16.2499629646572537 0 0 0
33        5    2    0.4025730000000000  -1.6802886063763360   9.2801212196794438  -16.2687207345214802 0 0 0
34        5    1    0.0319320000000000  -4.4950709475359112   9.1356037721317271  -15.8288534024195044 0 0 0
35        5    1    0.0319320000000000  -3.3072585212306258   10.0687439554104294 -14.8516079434045576 0 0 0
36        5    1    0.0319320000000000  -3.6033521879700769   10.4898016206621136 -16.6083464955088793 0 0 0
37        6    3    0.0994540000000000   3.1913261069964349   15.7922595644053416  16.2672180162830422 0 0 0
38        6    4   -0.5978230000000000   3.7526100398055462   16.4791235953087032  15.1863303708168154 0 0 0
39        6    2    0.4025730000000000   3.0252306213255729   16.5786322381566009  14.5187084242255509 0 0 0
40        6    1    0.0319320000000000   3.9680550103817369   15.6538087292553172  17.0471767035172626 0 0 0
41        6    1    0.0319320000000000   2.3579208240126963   16.3811777632385436  16.7079719877658270 0 0 0
42        6    1    0.0319320000000000   2.8394674435478584   14.7880483399847567  15.9456447277407651 0 0 0
43        7    3    0.0994540000000000  -15.9824367881747733 -2.8348175218426208  -9.5776138440835865  0 0 0
44        7    4   -0.5978230000000000  -15.4329098331325731 -4.0395593014030169  -9.1284397992371638  0 0 0
45        7    2    0.4025730000000000  -15.8969118820561679 -4.7564780980775714  -9.6338420049796980  0 0 0
46        7    1    0.0319320000000000  -15.4950911617475686 -1.9953760271704335  -9.0403576721089873  0 0 0
47        7    1    0.0319320000000000  -15.7940809727183158 -2.7065880271592726  -10.6656084936462499 0 0 0
48        7    1    0.0319320000000000  -17.0716195925198662 -2.8017910704169364  -9.3579683241538802  0 0 0
49        8    3    0.0994540000000000  -3.4723720609552000   15.9321313430900027 -3.4048936659058708  0 0 0
50        8    4   -0.5978230000000000  -2.8211657410251005   15.9553704574690496 -2.1677476661362509  0 0 0
51        8    2    0.4025730000000000  -1.8514017056430134   16.0107341597758861 -2.3707117716976391  0 0 0
52        8    1    0.0319320000000000  -4.5667336347102108   15.8701407898692572 -3.2335989079596832  0 0 0
53        8    1    0.0319320000000000  -3.2617701880483900   16.8662054180450056 -3.9695223470982994  0 0 0
54        8    1    0.0319320000000000  -3.1611667156879339   15.0384680621000655 -3.9881356872721172  0 0 0
55        9    3    0.0994540000000000  -3.4322621170890484   3.4485282325350535   3.2127258237979861  0 0 0
56        9    4   -0.5978230000000000  -2.9181707784281414   2.2305307320648100   2.7573884360709595  0 0 0
57        9    2    0.4025730000000000  -2.0286631641589787   2.1322992613761835   3.1861408521848933  0 0 0
58        9    1    0.0319320000000000  -4.4325193666851419   3.6078656474109612   2.7600570710094576  0 0 0
59        9    1    0.0319320000000000  -3.5505660799602508   3.4285453864471709   4.3178312179714098  0 0 0
60        9    1    0.0319320000000000  -2.7724285397482893   4.2868407862356772   2.9004666450351548  0 0 0
61        10   3    0.0994540000000000   9.2388022938111707  -3.3227690498572660  -3.2238324973041510  0 0 0
62        10   4   -0.5978230000000000   10.2000493698696229 -2.4323762819593697  -2.7356268746980672  0 0 0
63        10   2    0.4025730000000000   11.0628124674753927 -2.7157508658372578  -3.1356775397665486  0 0 0
64        10   1    0.0319320000000000   8.2491439292927975  -3.0484820321696655  -2.8041243482685840  0 0 0
65        10   1    0.0319320000000000   9.1769740406093323  -3.2547248025701427  -4.3316232363506275  0 0 0
66        10   1    0.0319320000000000   9.4760480371512426  -4.3605070136761555  -2.9037255496818828  0 0 0
67        11   3    0.0994540000000000   9.8653722254202343  -3.3843548827139651   9.5717059241964204  0 0 0
68        11   4   -0.5978230000000000   8.4972151425200106  -3.1634914958055398   9.3859493277232797  0 0 0
69        11   2    0.4025730000000000   8.3446469905163596  -2.2053084269671954   9.5940599175204540  0 0 0
70        11   1    0.0319320000000000   10.0907439766528242 -4.4479093101965539   9.3506368616197282  0 0 0
71        11   1    0.0319320000000000   10.4565827795162836 -2.7520397531317493   8.8743532647572607  0 0 0
72        11   1    0.0319320000000000   10.1492690235838499 -3.1815061772548399   10.6271248423924156 0 0 0
73        12   3    0.0994540000000000  -16.2356648791915141 -9.3646831311797012  -9.6090280450131456  0 0 0
74        12   4   -0.5978230000000000  -14.8801291558704065 -9.6805707003804713  -9.7427363047608182  0 0 0
75        12   2    0.4025730000000000  -14.7617145288501845 -10.5647576580225948 -9.3081177915296944  0 0 0
76        12   1    0.0319320000000000  -16.4229260529682435 -8.3785261263104100  -10.0815104165816400 0 0 0
77        12   1    0.0319320000000000  -16.8616171398389412 -10.1226736242808570 -10.1279569936743670 0 0 0
78        12   1    0.0319320000000000  -16.5109984736299751 -9.2926188980355313  -8.5344805866498863  0 0 0
79        13   3    0.0994540000000000   3.1015264568296752  -9.5603521859088421   9.9126591597993041  0 0 0
80        13   4   -0.5978230000000000   2.9076538773115956  -9.3116011907214826   8.5504270512347222  0 0 0
81        13   2    0.4025730000000000   3.7096590331118597  -9.6718380513123900   8.0902977364313671  0 0 0
82        13   1    0.0319320000000000   2.2273136249774095  -9.1743708440288003   10.4762035726412037 0 0 0
83        13   1    0.0319320000000000   3.1789225685829883  -10.6536253161659875  10.0981767561162332 0 0 0
84        13   1    0.0319320000000000   4.0095344852563342  -9.0320425500720596   10.2760658619867264 0 0 0
85        14   3    0.0994540000000000   3.4068890406727146   3.1150995355301272  -2.9169260197281859  0 0 0
86        14   4   -0.5978230000000000   2.7431080171384772   3.9538614521107136  -3.8174887062691645  0 0 0
87        14   2    0.4025730000000000   2.2047836748682865   3.3575222913080922  -4.3999733496827016  0 0 0
88        14   1    0.0319320000000000   4.0271679950407639   3.7359506975740597  -2.2382435974887600  0 0 0
89        14   1    0.0319320000000000   2.6726593818290860   2.5534930549732393  -2.2995460370020897  0 0 0
90        14   1    0.0319320000000000   4.0800019365205200   2.4186830145736096  -3.4624323358989537  0 0 0
91        15   3    0.0994540000000000  -3.2001844980258847   9.5847259893431556   15.5897543536177459 0 0 0
92        15   4   -0.5978230000000000  -3.7257766755507262   9.3531310322544066   16.8646098713434860 0 0 0
93        15   2    0.4025730000000000  -2.9875596252577985   9.5369209648973339   17.5017587545065325 0 0 0
94        15   1    0.0319320000000000  -3.9902835750494399   9.3921527297681493   14.8351213533565733 0 0 0
95        15   1    0.0319320000000000  -2.8774814606297690   10.6439423924146066  15.4918950918195062 0 0 0
96        15   1    0.0319320000000000  -2.3533242115562230   8.8929570295319067   15.3899108057054192 0 0 0
97        16   3    0.0994540000000000  -16.2108481874765218  3.1518126213590287   3.4240304915460951  0 0 0
98        16   4   -0.5978230000000000  -15.2395703302783971  3.8609815575086452   2.7107011872153071  0 0 0
99        16   2    0.4025730000000000  -14.7903208136757023  3.1963895762591958   2.1265828582003916  0 0 0
100       16   1    0.0319320000000000  -16.7459083184191044  3.8531969245293070   4.0967731559000429  0 0 0
101       16   1    0.0319320000000000  -16.9527279547983412  2.7055697310690254   2.7267968379520147  0 0 0
102       16   1    0.0319320000000000  -15.7336746257011963  2.3666596353446385   4.0497255152559983  0 0 0
103       17   3    0.0994540000000000   9.5071197198314383  -9.9007706681292511   3.0788037447753194  0 0 0
104       17   4   -0.5978230000000000   10.3002478382791516 -8.7915289564972969   3.3881103324895321  0 0 0
105       17   2    0.4025730000000000   9.6742337595754790  -8.0853470098445346   3.6948924758527157  0 0 0
106       17   1    0.0319320000000000   10.1625377534111117 -10.7243561469648743  2.7281669851370141  0 0 0
107       17   1    0.0319320000000000   8.9635249508751471  -10.2507622227650224  3.9830513396557237  0 0 0
108       17   1    0.0319320000000000   8.7961661162372184  -9.6510651340085776   2.2615851681595505  0 0 0
109       18   3    0.0994540000000000   3.0829954614008517   9.9071505855737723  -3.1738142401412102  0 0 0
110       18   4   -0.5978230000000000   3.8805961654662466   8.8114351798229116  -2.8297491027404265  0 0 0
111       18   2    0.4025730000000000   3.5402689634274629   8.0475831527099633  -3.3639862487981427  0 0 0
112       18   1    0.0319320000000000   3.4238431434085421   10.7936286240867698 -2.6004107854915794  0 0 0
113       18   1    0.0319320000000000   3.1854627640077999   10.1340890620066020 -4.2571666545525160  0 0 0
114       18   1    0.0319320000000000   2.0214435483589424   9.7099435340095379  -2.9094830143459860  0 0 0
115       19   3    0.0994540000000000  -9.4762386171366053   16.2547608567593294 -3.0372561914882175  0 0 0
116       19   4   -0.5978230000000000  -9.3639022818917841   15.2186175944998023 -3.9694190743353941  0 0 0
117       19   2    0.4025730000000000  -10.0844669977957260  14.5731756942963795 -3.7483012422727873  0 0 0
118       19   1    0.0319320000000000  -8.6880956572212007   17.0084277483559987 -3.2412877286259758  0 0 0
119       19   1    0.0319320000000000  -10.4655230163700868  16.7528962523416247 -3.1312273524969014  0 0 0
120       19   1    0.0319320000000000  -9.3256035677941611   15.8651720840961303 -2.0071184568505696  0 0 0
121       20   3    0.0994540000000000  -3.4501887577495145  -15.7106958010156710 -9.5066104436767240  0 0 0
122       20   4   -0.5978230000000000  -2.6820143986411491  -16.8487485734120597 -9.2422546350600854  0 0 0
123       20   2    0.4025730000000000  -2.0016241765322507  -16.8923791427863357 -9.9632729226746797  0 0 0
124       20   1    0.0319320000000000  -4.2311511006022275  -15.6148959084173828 -8.7244773498083248  0 0 0
125       20   1    0.0319320000000000  -2.8139329528567822  -14.7997356813851777 -9.4752530652292286  0 0 0
126       20   1    0.0319320000000000  -3.9556986596879264  -15.8065951233326274 -10.4919617217605197 0 0 0
127       21   3    0.0994540000000000  -3.2211545556753882   16.0588183628111416  16.2818425792709895 0 0 0
128       21   4   -0.5978230000000000  -2.7258279437062476   16.0921469456836022  14.9746774384647896 0 0 0
129       21   2    0.4025730000000000  -3.1519182828953851   15.3308763063309996  14.5017970217531555 0 0 0
130       21   1    0.0319320000000000  -2.7730977714240481   16.8949491456984546  16.8571185207934846 0 0 0
131       21   1    0.0319320000000000  -4.3248575815357695   16.1910632775404224  16.2798457731001243 0 0 0
132       21   1    0.0319320000000000  -2.9377539108330208   15.1051961922846338  16.7777688969667196 0 0 0
133       22   3    0.0994540000000000  -3.5230150750891593  -15.8222838454096202  9.5847634698460595  0 0 0
134       22   4   -0.5978230000000000  -2.5204489274814845  -16.7166778098923992  9.1973870272635363  0 0 0
135       22   2    0.4025730000000000  -1.6758628105550506  -16.3619593019723553  9.5788983943734944  0 0 0
136       22   1    0.0319320000000000  -4.4944124678497044  -16.1749062369409415  9.1812086021654142  0 0 0
137       22   1    0.0319320000000000  -3.6003333991152164  -15.7855774587604820  10.6930628842413604 0 0 0
138       22   1    0.0319320000000000  -3.3205373659792343  -14.8116455773734543  9.1685097603196972  0 0 0
139       23   3    0.0994540000000000  -3.2373469584511287   9.9093813370176917  -9.4798783199019407  0 0 0
140       23   4   -0.5978230000000000  -2.9871973153146802   8.5581031290813385  -9.2217847068561483  0 0 0
141       23   2    0.4025730000000000  -2.9989517466171285   8.1048564748416112  -10.1044687702476033 0 0 0
142       23   1    0.0319320000000000  -3.2350294064875720   10.4648666064235503 -8.5195436275545298  0 0 0
143       23   1    0.0319320000000000  -2.4393833803910563   10.3327499597872858 -10.1276948150174526 0 0 0
144       23   1    0.0319320000000000  -4.2367012388082887   10.0338726310580828 -9.9504598986318911  0 0 0
145       24   3    0.0994540000000000   2.9898358864052108  -3.4534919750337316   9.4354787923155570  0 0 0
146       24   4   -0.5978230000000000   3.3594620479282264  -2.1185167441397814   9.6261554451008742  0 0 0
147       24   2    0.4025730000000000   4.1540689628903529  -2.1374532640854360   10.2202455989552536 0 0 0
148       24   1    0.0319320000000000   2.0999659269646633  -3.4887814970686359   8.7738912457128233  0 0 0
149       24   1    0.0319320000000000   3.8122285312740267  -4.0148755223976007   8.9413412361484177  0 0 0
150       24   1    0.0319320000000000   2.7190486906073765  -3.9214910433446741   10.4067178199766346 0 0 0
151       25   3    0.0994540000000000  -9.2999034180035469  -15.7129390839370799  3.1517499882820745  0 0 0
152       25   4   -0.5978230000000000  -10.3412878943215691 -16.3482329608319716  3.8351678800318476  0 0 0
153       25   2    0.4025730000000000  -10.7145304409517941 -17.0165444909950274  3.2037001041033375  0 0 0
154       25   1    0.0319320000000000  -8.8455203337030621  -14.9508473755604019  3.8177561576417078  0 0 0
155       25   1    0.0319320000000000  -8.5126383308289686  -16.4484213673343689  2.8780118518730005  0 0 0
156       25   1    0.0319320000000000  -9.6899497204006160  -15.1960649516904134  2.2482240641378750  0 0 0
157       26   3    0.0994540000000000   3.1903448762951245   2.9516901814276086   3.4548486930053559  0 0 0
158       26   4   -0.5978230000000000   2.8764610777783783   3.4209276616509507   2.1756172438600672  0 0 0
159       26   2    0.4025730000000000   3.2674634838206242   4.3309587842999235   2.1151000869586989  0 0 0
160       26   1    0.0319320000000000   2.7732555828694609   1.9307341956185471   3.5752537313149113  0 0 0
161       26   1    0.0319320000000000   4.2927819358207540   2.8938552781354185   3.5850052439187281  0 0 0
162       26   1    0.0319320000000000   2.7343030894855129   3.6064439449374106   4.2287850470120967  0 0 0
163       27   3    0.0994540000000000  -9.2157879214591958   15.8877244033158096  15.9363442710095740 0 0 0
164       27   4   -0.5978230000000000  -10.3917608523211111  16.5945058814603392  15.6667379648298386 0 0 0
165       27   2    0.4025730000000000  -11.1276806261953567  16.0629905902800978  16.0675065185643611 0 0 0
166       27   1    0.0319320000000000  -8.3566553905329979   16.4427593933645717  15.5066473650096430 0 0 0
167       27   1    0.0319320000000000  -9.0598995663338382   15.8020936896423905  17.0336223923680947 0 0 0
168       27   1    0.0319320000000000  -9.2520457813670589   14.8829762722860437  15.4621917185677500 0 0 0
169       28   3    0.0994540000000000  -3.0727411410913579  -9.5080036946539366  -16.2770665403776889 0 0 0
170       28   4   -0.5978230000000000  -2.9326085386624969  -9.6868778137116962  -14.8973901813833649 0 0 0
171       28   2    0.4025730000000000  -3.8489671571665598  -9.8358464007862416  -14.5469660178924070 0 0 0
172       28   1    0.0319320000000000  -2.0704164551265132  -9.3364816328962839  -16.7206174203631512 0 0 0
173       28   1    0.0319320000000000  -3.5068503047080237  -10.4194613529010205 -16.7423054524290968 0 0 0
174       28   1    0.0319320000000000  -3.7030264493149088  -8.6171592432603727  -16.4887046179035579 0 0 0
175       29   3    0.0994540000000000   3.2895971171289080  -15.9550794297490661  9.9090597615173373  0 0 0
176       29   4   -0.5978230000000000   2.5987671983851492  -16.4004484418233680  8.7778920379889200  0 0 0
177       29   2    0.4025730000000000   2.8390419843342198  -15.7737741873881454  8.0469684728569817  0 0 0
178       29   1    0.0319320000000000   3.0542029072605485  -16.6257966664593262  10.7608460793460541 0 0 0
179       29   1    0.0319320000000000   4.3862146861048599  -15.9919782687118115  9.7309545760328291  0 0 0
180       29   1    0.0319320000000000   2.9667861528561681  -14.9259732362175370  10.1781092104674364 0 0 0
181       30   3    0.0994540000000000   2.8542519040746726   3.1552432689045364   16.0626257495053686 0 0 0
182       30   4   -0.5978230000000000   4.0017378257386049   2.7556883609409937   15.3706923080492341 0 0 0
183       30   2    0.4025730000000000   4.6681159359662221   3.4782446001339276   15.5069073858226965 0 0 0
184       30   1    0.0319320000000000   2.0727869584091039   2.3770933367345251   15.9417655051745033 0 0 0
185       30   1    0.0319320000000000   3.0745178092239986   3.2604900834314687   17.1470883413270876 0 0 0
186       30   1    0.0319320000000000   2.4631996126572480   4.1078503959244079   15.6439709404703731 0 0 0
187       31   3    0.0994540000000000  -3.0145667347779623   2.9153556702977457   15.7985800879067657 0 0 0
188       31   4   -0.5978230000000000  -3.7454174713751338   4.1073249121790161   15.7842106924994781 0 0 0
189       31   2    0.4025730000000000  -3.9240503346474402   4.3294874262627294   16.7347031803683421 0 0 0
190       31   1    0.0319320000000000  -2.7873810072219096   2.6207516399481241   14.7533972869592063 0 0 0
191       31   1    0.0319320000000000  -2.0520382030157820   3.0592409825828906   16.3356917303539824 0 0 0
192       31   1    0.0319320000000000  -3.6111562950316247   2.1024494147993416   16.2664672522614921 0 0 0
193       32   3    0.0994540000000000  -15.8342642467031602 -9.3325158382882645  -15.7016108034275028 0 0 0
194       32   4   -0.5978230000000000  -16.3132296652647000 -9.7284439479955704  -16.9541973322013746 0 0 0
195       32   2    0.4025730000000000  -16.4104185798322568 -10.7150018658286186 -16.9099294923387653 0 0 0
196       32   1    0.0319320000000000  -15.7070999991181850 -8.2304152042630410  -15.6976835248087685 0 0 0
197       32   1    0.0319320000000000  -16.5639355944451587 -9.6005755480653452  -14.9070185870809020 0 0 0
198       32   1    0.0319320000000000  -14.8441021449857971 -9.7968777337687225  -15.5026104904919464 0 0 0
199       33   3    0.0994540000000000  -16.0234020876688774  2.8425102989642985  -3.2172837249337389  0 0 0
200       33   4   -0.5978230000000000  -15.5790085099733489  3.9923702910816061  -2.5573774445188899  0 0 0
201       33   2    0.4025730000000000  -15.6495272673213410  4.7302266669961028  -3.2171478025863167  0 0 0
202       33   1    0.0319320000000000  -15.9644053713247054  1.9823161136813552  -2.5191452515876414  0 0 0
203       33   1    0.0319320000000000  -17.0829659308522039  2.9627923462627028  -3.5311463785201176  0 0 0
204       33   1    0.0319320000000000  -15.3737410632087794  2.6243943290837874  -4.0925094439231540  0 0 0
205       34   3    0.0994540000000000   2.9922356360120066  -9.3165573526175383  -3.0298640871409606  0 0 0
206       34   4   -0.5978230000000000   3.2358692358196186  -10.3467374692095824 -3.9433801235208334  0 0 0
207       34   2    0.4025730000000000   4.1753386169764877  -10.6285791287087417 -3.7928330782509616  0 0 0
208       34   1    0.0319320000000000   1.9483677445834822  -8.9630788522400380  -3.1571619736726748  0 0 0
209       34   1    0.0319320000000000   3.1082559863676846  -9.6884518071474890  -1.9887652123969641  0 0 0
210       34   1    0.0319320000000000   3.6745428263105788  -8.4604255282861640  -3.2226055710874606  0 0 0
211       35   3    0.0994540000000000  -15.7955335852480658 -2.9389167538714109  -15.7408078357312160 0 0 0
212       35   4   -0.5978230000000000  -16.5713706042616842 -4.0750448028885948  -15.9906676533579688 0 0 0
213       35   2    0.4025730000000000  -16.5370078936193288 -4.2186789900684571  -16.9719373799828617 0 0 0
214       35   1    0.0319320000000000  -15.8008013667430447 -2.7330562803300649  -14.6506676186896403 0 0 0
215       35   1    0.0319320000000000  -14.7438676113479392 -3.1127101222857911  -16.0561610003512669 0 0 0
216       35   1    0.0319320000000000  -16.2244691691292040 -2.0562030966255289  -16.2628087422363130 0 0 0
217       36   3    0.0994540000000000  -9.2767902154201725   16.1026639651643180  9.7010604208866802  0 0 0
218       36   4   -0.5978230000000000  -10.3854084648241294  15.2511112346633197  9.7321003397784658  0 0 0
219       36   2    0.4025730000000000  -10.8198630436120808  15.3360980618238472  8.8439965675877534  0 0 0
220       36   1    0.0319320000000000  -8.7522236984381756   16.0450351721035709  10.6769297094554609 0 0 0
221       36   1    0.0319320000000000  -8.5676590980514113   15.7842521614265081  8.9064535648756316  0 0 0
222       36   1    0.0319320000000000  -9.6018856178635925   17.1538896351677046  9.5432895356255614  0 0 0
223       37   3    0.0994540000000000  -9.6056931086252177  -9.9149275741211547  -3.1207484936710976  0 0 0
224       37   4   -0.5978230000000000  -8.8879016995696922  -8.7247658553987435  -3.2738188326457256  0 0 0
225       37   2    0.4025730000000000  -9.5564842260589593  -8.0315805030891880  -3.5129700915107138  0 0 0
226       37   1    0.0319320000000000  -8.9002490060108883  -10.7276688265244751 -2.8512818878948978  0 0 0
227       37   1    0.0319320000000000  -10.3491786451398795 -9.8144823147807507  -2.3005088452331908  0 0 0
228       37   1    0.0319320000000000  -10.1043234528049251 -10.1904050642952431 -4.0752818951142356  0 0 0
229       38   3    0.0994540000000000  -9.7844647932361895   3.2198085160395671   9.2864385698467622  0 0 0
230       38   4   -0.5978230000000000  -8.9431632064436410   2.5361826196413997   10.1696187474629447 0 0 0
231       38   2    0.4025730000000000  -8.6344398041205928   3.2100776920804748   10.8293589570912641 0 0 0
232       38   1    0.0319320000000000  -10.1594338214498858  2.5071171290849730   8.5233650532435377  0 0 0
233       38   1    0.0319320000000000  -10.6590048762361214  3.6368961629181125   9.8312969111133572  0 0 0
234       38   1    0.0319320000000000  -9.2233236367231193   4.0245279263053328   8.7637518994516910  0 0 0
235       39   3    0.0994540000000000   3.1457558164325947   16.2570622643128218 -9.3998459263505101  0 0 0
236       39   4   -0.5978230000000000   2.9461040306370712   14.8879704547139227 -9.6020011479449039  0 0 0
237       39   2    0.4025730000000000   3.4748520302138273   14.6510121058800813 -10.4075929464765942 0 0 0
238       39   1    0.0319320000000000   2.5723144645425444   16.5753606349975122 -8.5050481055764653  0 0 0
239       39   1    0.0319320000000000   4.2216389230097500   16.4671265928262152 -9.2154507179851581  0 0 0
240       39   1    0.0319320000000000   2.7739447812340630   16.8345181776187083 -10.2738912938759359 0 0 0
241       40   3    0.0994540000000000   2.8849374248682751   3.2886235218029229  -16.1022462154833441 0 0 0
242       40   4   -0.5978230000000000   3.9098477171108765   2.3950168540843766  -15.7764150190577297 0 0 0
243       40   2    0.4025730000000000   4.5372796639574826   2.8991287258858085  -15.1959822281291501 0 0 0
244       40   1    0.0319320000000000   2.1515610431653354   2.7715735733841655  -16.7546497796217260 0 0 0
245       40   1    0.0319320000000000   2.3568687473571943   3.6221762903991062  -15.1827142169136859 0 0 0
246       40   1    0.0319320000000000   3.2941154496106968   4.1580910805134792  -16.6610427711436273 0 0 0
247       41   3    0.0994540000000000  -3.3489899347323409  -3.3478284680706327   9.2912094062803394  0 0 0
248       41   4   -0.5978230000000000  -2.2829268497930428  -2.7375191418472222   9.9591704661891036  0 0 0
249       41   2    0.4025730000000000  -2.6231771169771361  -2.5060068372201432   10.8621287489948024 0 0 0
250       41   1    0.0319320000000000  -3.0194808258092940  -3.6281227946235561   8.2696073239904777  0 0 0
251       41   1    0.0319320000000000  -3.6579626729570132  -4.2740003149429144   9.8226175649447747  0 0 0
252       41   1    0.0319320000000000  -4.2020726458010307  -2.6411324893653760   9.1990966278100608  0 0 0
253       42   3    0.0994540000000000  -16.0160503323830952  9.6373221327277783   16.2877198218313488 0 0 0
254       42   4   -0.5978230000000000  -16.3427679592191382  9.3371734256458456   14.9617083972004465 0 0 0
255       42   2    0.4025730000000000  -15.4800103024277131  9.2743270353320764   14.4754971171253057 0 0 0
256       42   1    0.0319320000000000  -16.9515706197147900  9.7191861562492345   16.8784075993785940 0 0 0
257       42   1    0.0319320000000000  -15.3984467889414365  8.8239582077978120   16.7266481334618646 0 0 0
258       42   1    0.0319320000000000  -15.4842042276630849  10.6118631804568171  16.3430691613516998 0 0 0
259       43   3    0.0994540000000000  -9.9034914107813226  -9.6823127640881346   15.9183206421563970 0 0 0
260       43   4   -0.5978230000000000  -8.7636184138936564  -9.2479793633631857   16.6018292377724563 0 0 0
261       43   2    0.4025730000000000  -8.0790988683051683  -9.0701940672055255   15.9057493341856109 0 0 0
262       43   1    0.0319320000000000  -10.7045316271071744 -9.8962775341433584   16.6554540262218929 0 0 0
263       43   1    0.0319320000000000  -10.2674034067783033 -8.8881059011378358   15.2309658633033447 0 0 0
264       43   1    0.0319320000000000  -9.6856864113439318  -10.6189605082715239  15.3607311267095543 0 0 0
265       44   3    0.0994540000000000  -9.8933869157695487  -9.6644254617534333   3.2950519459866818  0 0 0
266       44   4   -0.5978230000000000  -8.5821866510745135  -9.8865717061039700   2.8631435479615588  0 0 0
267       44   2    0.4025730000000000  -8.1794820783577755  -8.9880656277863533   2.7397834801140837  0 0 0
268       44   1    0.0319320000000000  -10.3916251822451926 -10.6436692645102511  3.4488446034242735  0 0 0
269       44   1    0.0319320000000000  -9.8935168186973765  -9.1189827811630693   4.2636309769984102  0 0 0
270       44   1    0.0319320000000000  -10.4636324920651553 -9.1021152968924746   2.5241554915848399  0 0 0
271       45   3    0.0994540000000000  -16.2821825560047060  9.5696694790029451   3.0723449039429687  0 0 0