LAMMPS data file via vdw_self_gen.py, on 2021-08-05 13:22:14.301381

3000 atoms
5 atom types
2500 bonds
4 bond types
3000 angles
5 angle types
2000 dihedrals
2 dihedral types

-28.0109303292052907  28.0109303292052907 xlo xhi
-28.0109303292052907  28.0109303292052907 ylo yhi
-28.0109303292052907  28.0109303292052907 zlo zhi

Masses

1  1.007940
2  1.007940
3  12.011000
4  14.006740
5  15.999400

Atoms

1         0    4   -0.6450170000000000   9.2169142324073192   21.8042546058935400 -2.4303609442458436  0 0 0
2         0    3    0.2290810000000000   9.4691373749086125   21.7676409571410225 -3.7648572361896613  0 0 0
3         0    5   -0.3860370000000000   8.5931219913756429   21.8308752315080774 -4.6130108506716461  0 0 0
4         0    2    0.3512850000000000   9.9467852140668818   21.7514432087787242 -1.7345183091148175  0 0 0
5         0    2    0.3512850000000000   8.2543147022081165   21.8880976442322073 -2.1307062865439925  0 0 0
6         0    1    0.0994030000000000   10.5415871434440032  21.6753632220711232 -4.0004999260375635  0 0 0
7         1    4   -0.6450170000000000   9.5709926735756454  -2.4687447548279238  -15.4574445725574634 0 0 0
8         1    3    0.2290810000000000   9.1279581433027470  -3.7369570098040170  -15.6604113368671047 0 0 0
9         1    5   -0.3860370000000000   7.9529637568777565  -4.0135678115861655  -15.8438254464857362 0 0 0
10        1    2    0.3512850000000000   10.5446119016607565 -2.2475139390437304  -15.3063810387367152 0 0 0
11        1    2    0.3512850000000000   8.8894345472729892  -1.7211519735684684  -15.4594391601250667 0 0 0
12        1    1    0.0994030000000000   9.9358996357206806  -4.4860180639732201  -15.6422662092455589 0 0 0
13        2    4   -0.6450170000000000  -3.7700913164597791  -9.5309150794555411   15.4639238197808417 0 0 0
14        2    3    0.2290810000000000  -2.4850623651067663  -9.1342870148506456   15.6568595568861078 0 0 0
15        2    5   -0.3860370000000000  -1.5415464057769073  -9.9090305099535669   15.6746424330753502 0 0 0
16        2    2    0.3512850000000000  -4.5455379474336173  -8.8842319722286280   15.4504647061893809 0 0 0
17        2    2    0.3512850000000000  -3.9477865851163148  -10.5176405017447152  15.3289506483528424 0 0 0
18        2    1    0.0994030000000000  -2.3839289329101407  -8.0457555801774845   15.7949265997331203 0 0 0
19        3    4   -0.6450170000000000   21.4333351078001400  3.3249740720593977   21.2294802195876287 0 0 0
20        3    3    0.2290810000000000   22.1365139062511531  2.8996461720588766   22.3113643081064232 0 0 0
21        3    5   -0.3860370000000000   21.8322131970539210  3.1814140690389414   23.4597431698125618 0 0 0
22        3    2    0.3512850000000000   21.6910868232403544  3.0878554353148178   20.2823601259901949 0 0 0
23        3    2    0.3512850000000000   20.6187194802747236  3.9031252095498821   21.3893647595213885 0 0 0
24        3    1    0.0994030000000000   23.0058063550044025  2.2769385947816061   22.0453622866064975 0 0 0
25        4    4   -0.6450170000000000   9.6410045247369460  -3.6169088346472433   9.7013622759116807  0 0 0
26        4    3    0.2290810000000000   9.0578864711762996  -2.6272546788906923   8.9758311506624349  0 0 0
27        4    5   -0.3860370000000000   7.9787457983761918  -2.1339562436281256   9.2637167902418138  0 0 0
28        4    2    0.3512850000000000   10.5339904999164293 -4.0201586975260053   9.4571016310648286  0 0 0
29        4    2    0.3512850000000000   9.1525301557392442  -3.9577515257651745   10.5190660580013695 0 0 0
30        4    1    0.0994030000000000   9.6577032084654650  -2.3179235723462810   8.1047827525284468  0 0 0
31        5    4   -0.6450170000000000  -2.6774113331907263  -15.8655289513409681 -2.6670080785854746  0 0 0
32        5    3    0.2290810000000000  -3.5184316794257970  -15.2702673450821020 -3.5525507503030842  0 0 0
33        5    5   -0.3860370000000000  -4.6548660408591864  -14.9262647766289973 -3.2680419552700539  0 0 0
34        5    2    0.3512850000000000  -1.7385695994874069  -16.1473860500319120 -2.9095579525793842  0 0 0
35        5    2    0.3512850000000000  -3.0147670622852099  -16.0291987698268983 -1.7274210804507035  0 0 0
36        5    1    0.0994030000000000  -3.0699078375551974  -15.1311218711067639 -4.5493737356148252  0 0 0
37        6    4   -0.6450170000000000   3.1064269705841236  -2.7187654383876754   14.9916371499689820 0 0 0
38        6    3    0.2290810000000000   3.1348929246639616  -3.4885386752570553   16.1107780165974717 0 0 0
39        6    5   -0.3860370000000000   2.1380646591373766  -3.9996347197077213   16.5964531361930057 0 0 0
40        6    2    0.3512850000000000   3.9351846575981320  -2.2992159022122265   14.5956112047202513 0 0 0
41        6    2    0.3512850000000000   2.2127777210483659  -2.5650239850014089   14.5431117785407267 0 0 0
42        6    1    0.0994030000000000   4.1466066197715667  -3.6027748322374400   16.5321764779972078 0 0 0
43        7    4   -0.6450170000000000  -3.1582527283595936  -8.6502684926247362  -3.1906604106135124  0 0 0
44        7    3    0.2290810000000000  -3.0796278606728444  -9.9992422514656241  -3.0495032137019304  0 0 0
45        7    5   -0.3860370000000000  -2.3552894688710664  -10.5450289726806563 -2.2320579075759781  0 0 0
46        7    2    0.3512850000000000  -3.7597832839499516  -8.2058521268208526  -3.8691534105013652  0 0 0
47        7    2    0.3512850000000000  -2.5863649045116031  -8.0749858555567720  -2.5861650599924033  0 0 0
48        7    1    0.0994030000000000  -3.7346353064384679  -10.5464829592619438 -3.7464135504183349  0 0 0
49        8    4   -0.6450170000000000   9.6893365772742861   9.7373806695106353   2.6703604286329408  0 0 0
50        8    3    0.2290810000000000   9.0021974330923058   8.9383527808073460   3.5278169323153326  0 0 0
51        8    5   -0.3860370000000000   8.4229758286961509   9.3602181742710151   4.5164007690224075  0 0 0
52        8    2    0.3512850000000000   10.1660780989638173  9.3812528270549755   1.8545245703103119  0 0 0
53        8    2    0.3512850000000000   9.7190538491850340   10.7295514823778149  2.8656407050170674  0 0 0
54        8    1    0.0994030000000000   9.0222188711989801   7.8751047243887866   3.2392101475054624  0 0 0
55        9    4   -0.6450170000000000   21.6017438812527622  15.6825480342018579 -9.9935885223444423  0 0 0
56        9    3    0.2290810000000000   21.9800133451131678  15.4480639207124195 -8.7099348154079319  0 0 0
57        9    5   -0.3860370000000000   21.1911019735771369  15.1706332890125424 -7.8203185094334167  0 0 0
58        9    2    0.3512850000000000   22.2600775526129553  15.9115421024770605 -10.7242431331204084 0 0 0
59        9    2    0.3512850000000000   20.6169553890602764  15.6229514996481420 -10.2173301215486028 0 0 0
60        9    1    0.0994030000000000   23.0677827280083960  15.5340289179656228 -8.5564455565557864  0 0 0
61        10   4   -0.6450170000000000   15.3874089674766132 -22.3469092948472507  3.4799605878280833  0 0 0
62        10   3    0.2290810000000000   15.7125698054967131 -21.2436256119112343  2.7568610300317764  0 0 0
63        10   5   -0.3860370000000000   16.8642910794609584 -20.9155680486815747  2.5187803258451580  0 0 0
64        10   2    0.3512850000000000   14.4323268105325830 -22.6120323081342498  3.6728997692111265  0 0 0
65        10   2    0.3512850000000000   16.1405817015282906 -22.9208549744136398  3.8359628547986668  0 0 0
66        10   1    0.0994030000000000   14.8325893995224849 -20.6786846316367487  2.4094889850887147  0 0 0
67        11   4   -0.6450170000000000   21.2906582095702923 -2.9011858298264093  -3.5477492959381891  0 0 0
68        11   3    0.2290810000000000   22.2532375106995488 -3.3101103710943010  -2.6805358074093459  0 0 0
69        11   5   -0.3860370000000000   23.3012408969424136 -3.8242283456243014  -3.0384990598371049  0 0 0
70        11   2    0.3512850000000000   20.4261527129503584 -2.4766530327971159  -3.2442697793964621  0 0 0
71        11   2    0.3512850000000000   21.4558694178642568 -3.0316093931796124  -4.5372518857661790  0 0 0
72        11   1    0.0994030000000000   21.9905161215978211 -3.1301665802817822  -1.6256477244562457  0 0 0
73        12   4   -0.6450170000000000   22.3255453269307544 -22.1008287802671965  15.2615206056974220 0 0 0
74        12   3    0.2290810000000000   21.2679685444766839 -21.4721053586015316  15.8377806462720923 0 0 0
75        12   5   -0.3860370000000000   20.7350211977613164 -21.8640289122503368  16.8640014476225346 0 0 0
76        12   2    0.3512850000000000   22.7612856235536540 -21.7707554389039579  14.4124742879854342 0 0 0
77        12   2    0.3512850000000000   22.6847146458580404 -22.9339603310665439  15.7090802597146073 0 0 0
78        12   1    0.0994030000000000   20.9431395310442490 -20.5759960485351243  15.2849105167255495 0 0 0
79        13   4   -0.6450170000000000  -9.6284943061022119   9.5495259025339809   14.9703122146473202 0 0 0
80        13   3    0.2290810000000000  -9.0682962440937889   9.1201366978208913   16.1311913936740936 0 0 0
81        13   5   -0.3860370000000000  -8.0973454565891885   9.6548842684501643   16.6431149068577433 0 0 0
82        13   2    0.3512850000000000  -10.4317099168107710  9.1021025342092088   14.5527542203627149 0 0 0
83        13   2    0.3512850000000000  -9.2167194792379821   10.3520012737421983  14.5121690109815145 0 0 0
84        13   1    0.0994030000000000  -9.5792952555766497   8.2432099816541289   16.5602260174942550 0 0 0
85        14   4   -0.6450170000000000  -9.7618015007164409   15.1239101478063862 -15.2333887452347163 0 0 0
86        14   3    0.2290810000000000  -8.9155877715976324   15.9768798794276599 -15.8675830275242848 0 0 0
87        14   5   -0.3860370000000000  -9.2713852419982228   16.7335237371395245 -16.7573382253418934 0 0 0
88        14   2    0.3512850000000000  -9.4602659900222346   14.5008314623765724 -14.4981697615615310 0 0 0
89        14   2    0.3512850000000000  -10.7330272636675481  15.1199234858894815 -15.5164524278342348 0 0 0
90        14   1    0.0994030000000000  -7.8797928904085062   15.9146990513780153 -15.4968355765209758 0 0 0
91        15   4   -0.6450170000000000   9.9581112280956692   3.0750266393638519  -15.2573013373234350 0 0 0
92        15   3    0.2290810000000000   8.7434987455383766   3.1341195833402464  -15.8631577289611112 0 0 0
93        15   5   -0.3860370000000000   7.9207257522972405   4.0051524859140599  -15.6283975031415299 0 0 0
94        15   2    0.3512850000000000   10.6336786450159320  2.3514295378391750  -15.4565839664228157 0 0 0
95        15   2    0.3512850000000000   10.1864245638152617  3.7903925395914211  -14.5794037978499595 0 0 0
96        15   1    0.0994030000000000   8.5794217236481032   2.3178327667547651  -16.5849234303187956 0 0 0
97        16   4   -0.6450170000000000  -3.4379454537985783  -3.1316115024228246  -8.7259009447818787  0 0 0
98        16   3    0.2290810000000000  -2.7888612895670386  -3.1062328688508170  -9.9191666732773687  0 0 0
99        16   5   -0.3860370000000000  -3.0897457463371709  -2.3486203988187371  -10.8281540045015365 0 0 0
100       16   2    0.3512850000000000  -3.1834042682964050  -3.7611646400299339  -7.9785260066068133  0 0 0
101       16   2    0.3512850000000000  -4.2073741683673553  -2.4890969196347585  -8.5896112217587639  0 0 0
102       16   1    0.0994030000000000  -1.9666226264369744  -3.8372272230464581  -9.9805018074842149  0 0 0
103       17   4   -0.6450170000000000  -3.3826420458628061   16.1945338642333212  9.2584080503477129  0 0 0
104       17   3    0.2290810000000000  -2.8623719173441891   14.9507473253677148  9.4261920341124057  0 0 0
105       17   5   -0.3860370000000000  -2.0100032538744879   14.4776205054687885  8.6910833664807399  0 0 0
106       17   2    0.3512850000000000  -4.0875662372062944   16.5792758559839122  9.8705789012075904  0 0 0
107       17   2    0.3512850000000000  -3.0433854782528642   16.7512731740551359  8.4848663599827727  0 0 0
108       17   1    0.0994030000000000  -3.2879846202628888   14.4163170389087760  10.2907319462793598 0 0 0
109       18   4   -0.6450170000000000  -22.3693195811579102  2.9527839730216314  -21.4480126314617578 0 0 0
110       18   3    0.2290810000000000  -21.2215199736645168  3.2764323005362677  -22.0988929946891375 0 0 0
111       18   5   -0.3860370000000000  -20.9048905137952303  2.7955559327318897  -23.1755869082180226 0 0 0
112       18   2    0.3512850000000000  -22.6246386335706759  3.3547048613109096  -20.5575243118124789 0 0 0
113       18   2    0.3512850000000000  -22.9879855819618086  2.2798960663439050  -21.8814808182946301 0 0 0
114       18   1    0.0994030000000000  -20.6093205854745563  4.0145804188589267  -21.5561772051486606 0 0 0
115       19   4   -0.6450170000000000   15.5926260734770263 -14.8808732484158064  15.4374263045504563 0 0 0
116       19   3    0.2290810000000000   15.5210016000435225 -16.2131376996833509  15.6939000708388967 0 0 0
117       19   5   -0.3860370000000000   16.1333363329987023 -17.0517065938501027  15.0515493380202496 0 0 0
118       19   2    0.3512850000000000   15.0831631163794313 -14.1929821631734701  15.9731043950016964 0 0 0
119       19   2    0.3512850000000000   16.1838147627947642 -14.5745808556113126  14.6757824716253324 0 0 0
120       19   1    0.0994030000000000   14.8558258783241968 -16.4564872032835972  16.5380051839810207 0 0 0
121       20   4   -0.6450170000000000   9.9009139633235641  -15.9483034227103495  3.2230994559214547  0 0 0
122       20   3    0.2290810000000000   8.7855764442650361  -15.2009430213616952  3.0149839226800328  0 0 0
123       20   5   -0.3860370000000000   8.7844898064961381  -14.1681999920562109  2.3636723735429985  0 0 0
124       20   2    0.3512850000000000   9.8941767023875293  -16.8015985716284746  3.7630435868719330  0 0 0
125       20   2    0.3512850000000000   10.7701073740968205 -15.6285259045439879  2.8160790902839143  0 0 0
126       20   1    0.0994030000000000   7.8865963678414825  -15.6221968517169341  3.4930751235031932  0 0 0
127       21   4   -0.6450170000000000   3.4901599327278823  -21.5961285927990545  8.7884351724868850  0 0 0
128       21   3    0.2290810000000000   2.7618262190154632  -21.9792290009212969  9.8694539072303975  0 0 0
129       21   5   -0.3860370000000000   1.6374493465017763  -21.5628130439443737  10.0999760942999401 0 0 0
130       21   2    0.3512850000000000   4.4197516694973826  -21.9448773154798040  8.6042309440924143  0 0 0
131       21   2    0.3512850000000000   3.0754325948205752  -20.9332106355079084  8.1465929476424499  0 0 0
132       21   1    0.0994030000000000   3.2893337902404505  -22.7014162809722606  10.5131715926584874 0 0 0
133       22   4   -0.6450170000000000  -15.2111062624508655 -9.8070839183696208   21.4175682462854304 0 0 0
134       22   3    0.2290810000000000  -15.9130294089047553 -8.8898427240629676   22.1329771601516150 0 0 0
135       22   5   -0.3860370000000000  -15.3990487905241320 -8.1457750087172425   22.9533144312232515 0 0 0
136       22   2    0.3512850000000000  -15.6431349939900510 -10.4192690314456939  20.7406057444785219 0 0 0
137       22   2    0.3512850000000000  -14.2141644513896885 -9.8722068705915760   21.5765853867199198 0 0 0
138       22   1    0.0994030000000000  -16.9892838567581563 -8.8876831052234841   21.8966239007659524 0 0 0
139       23   4   -0.6450170000000000   2.6844680274417465   9.7516390958257801   15.2083476501204746 0 0 0
140       23   3    0.2290810000000000   3.5196380065759132   8.9466139352562895   15.9156403921326621 0 0 0
141       23   5   -0.3860370000000000   4.1753080220858436   8.0511084736628469   15.4067859154720779 0 0 0
142       23   2    0.3512850000000000   2.1451967555584650   10.4904674418844905  15.6361523214151319 0 0 0
143       23   2    0.3512850000000000   2.6060952382650497   9.5968241409318331   14.2116980325728353 0 0 0
144       23   1    0.0994030000000000   3.5432475028765071   9.1852075708493359   16.9911434523044669 0 0 0
145       24   4   -0.6450170000000000   22.2356604398556428  3.0648900888760688  -3.6373210563471252  0 0 0
146       24   3    0.2290810000000000   21.3641239524259312  3.1698384199759797  -2.6003796766259568  0 0 0
147       24   5   -0.3860370000000000   20.3406606720642991  2.5092169821120680  -2.5175044150214037  0 0 0
148       24   2    0.3512850000000000   23.0803916186009381  3.6147171744869162  -3.6991035618341535  0 0 0
149       24   2    0.3512850000000000   22.0208728070689865  2.4054904140426077  -4.3738526348496602  0 0 0
150       24   1    0.0994030000000000   21.6759653796089005  3.9098004733098861  -1.8457922081252214  0 0 0
151       25   4   -0.6450170000000000   3.0395563830417625   9.6901427840057988   2.5208931565022219  0 0 0
152       25   3    0.2290810000000000   3.1732815680680591   9.0094538372924937   3.6890616198721382  0 0 0
153       25   5   -0.3860370000000000   3.7785935777845356   7.9531809546414980   3.7820726281945651  0 0 0
154       25   2    0.3512850000000000   2.5373374167739788   10.5634526598356224  2.4515848806687592  0 0 0
155       25   2    0.3512850000000000   3.4643997547715135   9.2977807059043283   1.6908446436638467  0 0 0
156       25   1    0.0994030000000000   2.6807848523636753   9.5078497167308367   4.5394966239019974  0 0 0
157       26   4   -0.6450170000000000  -3.0766656682382809  -21.4103111346083494  16.1423088865428888 0 0 0
158       26   3    0.2290810000000000  -3.1604916495741655  -22.1555893188840933  15.0094492045894068 0 0 0
159       26   5   -0.3860370000000000  -2.3712919065875102  -22.0555534510298337  14.0832080533698996 0 0 0
160       26   2    0.3512850000000000  -3.7332221831640622  -21.4985661092942166  16.9044389729137805 0 0 0
161       26   2    0.3512850000000000  -2.3213396711717107  -20.7414200602576564  16.2163885282089595 0 0 0
162       26   1    0.0994030000000000  -4.0109424740677966  -22.8562347955505487  15.0139741183927136 0 0 0
163       27   4   -0.6450170000000000  -8.7259184446980917  -2.7939179309021593   9.4079569789977064  0 0 0
164       27   3    0.2290810000000000  -9.9208804480890951  -3.4280589914828012   9.2823848808331864  0 0 0
165       27   5   -0.3860370000000000  -10.7271450192777245 -3.1674653913529598   8.4032975721900804  0 0 0
166       27   2    0.3512850000000000  -8.0639382095672349  -3.0148670120437058   10.1377934937315164 0 0 0
167       27   2    0.3512850000000000  -8.4985038228412293  -2.0713699779218508   8.7374143107731772  0 0 0
168       27   1    0.0994030000000000  -10.0854747139372058 -4.1982742491000513   10.0530134218849074 0 0 0
169       28   4   -0.6450170000000000   15.8122973122673152 -3.1833398725800035   8.6951545574201923  0 0 0
170       28   3    0.2290810000000000   15.3216553533285946 -3.0609606485997665   9.9561586096606245  0 0 0
171       28   5   -0.3860370000000000   15.0169209952717608 -1.9885749170437919   10.4540460398844068 0 0 0
172       28   2    0.3512850000000000   16.0622314100155208 -4.0738675147691872   8.2899495084884762  0 0 0
173       28   2    0.3512850000000000   15.9286758129237782 -2.3413208725198764   8.1466288309289894  0 0 0
174       28   1    0.0994030000000000   15.2279868802106702 -4.0258897272909024   10.4799231120278833 0 0 0
175       29   4   -0.6450170000000000   3.1733951391299717   3.7955452912516194   15.4652160018505107 0 0 0
176       29   3    0.2290810000000000   3.0366325836263339   2.4571883678784898   15.6547791184405956 0 0 0
177       29   5   -0.3860370000000000   3.9848182663086495   1.6908600915669696   15.7214946599708902 0 0 0
178       29   2    0.3512850000000000   2.3843271876049936   4.4233482887632185   15.4110603872605516 0 0 0
179       29   2    0.3512850000000000   4.1090088499393627   4.1697444344915846   15.3756480955226191 0 0 0
180       29   1    0.0994030000000000   1.9857715261942106   2.1372670788516435   15.7415695009724814 0 0 0
181       30   4   -0.6450170000000000  -16.2360748644770467 -15.6698484762166945 -21.9012730864969818 0 0 0
182       30   3    0.2290810000000000  -14.9171300835258247 -15.4437170466003106 -21.6665675956340671 0 0 0
183       30   5   -0.3860370000000000  -14.0284444093364904 -16.1611567480940970 -22.0981740443939856 0 0 0
184       30   2    0.3512850000000000  -16.9657142565505552 -15.0719643408377344 -21.5409141201915126 0 0 0
185       30   2    0.3512850000000000  -16.4881632242693570 -16.4734640782723289 -22.4616960049166217 0 0 0
186       30   1    0.0994030000000000  -14.7342409258583711 -14.5496170739964779 -21.0490500179915294 0 0 0
187       31   4   -0.6450170000000000   3.0065950067176379  -15.5332696244220259 -2.4283440421569384  0 0 0
188       31   3    0.2290810000000000   3.2305160253855583  -15.5855147119571278 -3.7673613140123798  0 0 0
189       31   5   -0.3860370000000000   2.3518490411431827  -15.8132677595241162 -4.5839633955223107  0 0 0
190       31   2    0.3512850000000000   3.7384761990504813  -15.3443197068629278 -1.7587579645210176  0 0 0
191       31   2    0.3512850000000000   2.0637581146663586  -15.6916166283404674 -2.0975794040271341  0 0 0
192       31   1    0.0994030000000000   4.2827591658403046  -15.4017793329109764 -4.0379474325637430  0 0 0
193       32   4   -0.6450170000000000  -16.2455648994763031  3.0412119234122637  -3.0287371808989230  0 0 0
194       32   3    0.2290810000000000  -14.9067991469126930  3.1949584472377746  -3.2016698044098830  0 0 0
195       32   5   -0.3860370000000000  -14.0805348509301105  2.4176286234989690  -2.7502146707469679  0 0 0
196       32   2    0.3512850000000000  -16.9231838877391461  3.6883811452362205  -3.4051706696713819  0 0 0
197       32   2    0.3512850000000000  -16.5676862630352275  2.2417134086261439  -2.4991520824551214  0 0 0
198       32   1    0.0994030000000000  -14.6459987159241702  4.0900600047921500  -3.7890091446212502  0 0 0
199       33   4   -0.6450170000000000   3.2424728900690649  -22.1097983919027214  14.9631207424012551 0 0 0
200       33   3    0.2290810000000000   2.9736208421014081  -21.4677642982319909  16.1298890248669800 0 0 0
201       33   5   -0.3860370000000000   3.6529797772925301  -21.5968062256956976  17.1361621972870921 0 0 0
202       33   2    0.3512850000000000   2.6759484471774204  -21.9981408935191034  14.1347003629675925 0 0 0
203       33   2    0.3512850000000000   4.0461247042408877  -22.7235000500823325  14.9325517904084570 0 0 0
204       33   1    0.0994030000000000   2.0828068919222176  -20.8216650101928522  16.0733436460862649 0 0 0
205       34   4   -0.6450170000000000  -8.8260365529297928  -3.5286335220358387   21.5731085367962017 0 0 0
206       34   3    0.2290810000000000  -9.8331985573290464  -2.7240976737016931   22.0022753944864853 0 0 0
207       34   5   -0.3860370000000000  -10.0336440902719790 -1.6063715883753447   21.5536373823828953 0 0 0
208       34   2    0.3512850000000000  -8.6663257108412264  -4.4521748740473246   21.9489562246221972 0 0 0
209       34   2    0.3512850000000000  -8.2155190300537608  -3.1791689544166002   20.8460849507001136 0 0 0
210       34   1    0.0994030000000000  -10.4471367169847742 -3.1835069402267244   22.7936123806367981 0 0 0
211       35   4   -0.6450170000000000   2.4716417690949255  -21.5817137752108188  2.9465210052225155  0 0 0
212       35   3    0.2290810000000000   3.7346528074941379  -21.9706695023385912  3.2617256773266354  0 0 0
213       35   5   -0.3860370000000000   3.9799294402391538  -22.8984905555172809  4.0165458851295641  0 0 0
214       35   2    0.3512850000000000   2.2764202201704054  -20.8131740947236992  2.3212746755633527  0 0 0
215       35   2    0.3512850000000000   1.7007138131412933  -22.0893784057313631  3.3604861416139711  0 0 0
216       35   1    0.0994030000000000   4.5105955026636027  -21.3642485361029415  2.7674001679474864  0 0 0
217       36   4   -0.6450170000000000  -3.0957510246262587   15.6205356762742351  21.0963015529894946 0 0 0
218       36   3    0.2290810000000000  -3.1312783136588460   15.5217528576644401  22.4508557942738811 0 0 0
219       36   5   -0.3860370000000000  -2.9681020074186617   14.4700315157268236  23.0492050162126674 0 0 0
220       36   2    0.3512850000000000  -3.2316266997825154   16.4940487195973589  20.6082334937547316 0 0 0
221       36   2    0.3512850000000000  -2.9253848023566400   14.7781726388011894  20.5626159827247896 0 0 0
222       36   1    0.0994030000000000  -3.3218107049606020   16.4852263559535963  22.9504630296691232 0 0 0
223       37   4   -0.6450170000000000   21.8123755193773903 -22.1853530234417562 -22.3518522448747952 0 0 0
224       37   3    0.2290810000000000   21.7454142958678318 -21.4083256741775507 -21.2393855626134496 0 0 0
225       37   5   -0.3860370000000000   22.6560376265110186 -20.6806052021830382 -20.8761306332203418 0 0 0
226       37   2    0.3512850000000000   21.0550076585254651 -22.7849108681005958 -22.6461683685523916 0 0 0
227       37   2    0.3512850000000000   22.6606961684007970 -22.1553776848757948 -22.9021921216948954 0 0 0
228       37   1    0.0994030000000000   20.7881436009421918 -21.5031024168459588 -20.7019459386688283 0 0 0
229       38   4   -0.6450170000000000   15.0408054365466022 -3.1475366973164358   21.3309572927558442 0 0 0
230       38   3    0.2290810000000000   16.0728841511240468 -3.0850028318221470   22.2122861012504558 0 0 0
231       38   5   -0.3860370000000000   15.9544050478946708 -2.6635194989408242   23.3520582633956870 0 0 0
232       38   2    0.3512850000000000   15.1463553996133999 -3.4974445829129732   20.3896171080755444 0 0 0
233       38   2    0.3512850000000000   14.1320420343141269 -2.8278550229574404   21.6397826970571856 0 0 0
234       38   1    0.0994030000000000   17.0232756945247914 -3.4525949188537082   21.7929734070899741 0 0 0
235       39   4   -0.6450170000000000  -10.0014850574380034 -3.0048979089724295  -2.9489182790756141  0 0 0
236       39   3    0.2290810000000000  -8.6990794272212053  -3.2031087040194155  -3.2810168807083895  0 0 0
237       39   5   -0.3860370000000000  -7.9954541356573259  -4.0494066720642676  -2.7523796915561309  0 0 0
238       39   2    0.3512850000000000  -10.5774156300231912 -2.3028134472890711  -3.3905958205291840  0 0 0
239       39   2    0.3512850000000000  -10.4024519551608137 -3.5901056670553668  -2.2276847168295895  0 0 0
240       39   1    0.0994030000000000  -8.3459744529100526  -2.5236211534029764  -4.0733581641046177  0 0 0
241       40   4   -0.6450170000000000  -8.8185795185960636   9.1955216387009759   2.6752116027058763  0 0 0
242       40   3    0.2290810000000000  -9.8309894946069942   9.4593952880502776   3.5419492583737533  0 0 0
243       40   5   -0.3860370000000000  -10.5951824442651201  10.4025232088218154  3.4104770554030641  0 0 0
244       40   2    0.3512850000000000  -8.1903182962433743   8.4134024113207229   2.7904288629145890  0 0 0
245       40   2    0.3512850000000000  -8.6968034529628806   9.8141540732331265   1.8840827097410646  0 0 0
246       40   1    0.0994030000000000  -9.8899874517361486   8.7368640382836524   4.3718040636651700  0 0 0
247       41   4   -0.6450170000000000  -8.8652311194685627   2.8469608753610069  -3.5445888393488696  0 0 0
248       41   3    0.2290810000000000  -9.7780530990600241   3.3754876110484489  -2.6882869361988639  0 0 0
249       41   5   -0.3860370000000000  -10.9764624102761079  3.1564443408309506  -2.7695350005635619  0 0 0
250       41   2    0.3512850000000000  -7.8753676633273031   3.0326503147065358  -3.4711896791928711  0 0 0
251       41   2    0.3512850000000000  -9.2007489314510220   2.2431356235089668  -4.2836715732618762  0 0 0
252       41   1    0.0994030000000000  -9.3259974348275598   4.0192747873476105  -1.9166815242374848  0 0 0
253       42   4   -0.6450170000000000   2.9054134451159412  -9.6322508841356100   16.1530791229429695 0 0 0
254       42   3    0.2290810000000000   3.3227355958099944  -9.0655642576139464   14.9909492180004946 0 0 0
255       42   5   -0.3860370000000000   2.8427703199334284  -8.0385002874129530   14.5375851099507933 0 0 0
256       42   2    0.3512850000000000   3.3072187606893033  -10.4820636243720990  16.5219537104503296 0 0 0
257       42   2    0.3512850000000000   2.1602414685728957  -9.1764853111710405   16.6633897071710528 0 0 0
258       42   1    0.0994030000000000   4.1355739626819616  -9.6269962937049378   14.5028108955020159 0 0 0
259       43   4   -0.6450170000000000   15.5579370574240876 -15.8759278179516201 -14.9443631150953120 0 0 0
260       43   3    0.2290810000000000   15.5586907495424036 -15.2454279995417146 -16.1478193199624798 0 0 0
261       43   5   -0.3860370000000000   15.9469152337896585 -15.7722806411021033 -17.1785831742529744 0 0 0
262       43   2    0.3512850000000000   15.2352506762729352 -15.4336890978565915 -14.0958372873986715 0 0 0
263       43   2    0.3512850000000000   15.8967418853791269 -16.8284005049567256 -14.9065809292978795 0 0 0
264       43   1    0.0994030000000000   15.1742321616094280 -14.2140417026088972 -16.0965839380103191 0 0 0
265       44   4   -0.6450170000000000   3.5831383793516278  -22.0752644003887326 -3.5302212180504551  0 0 0
266       44   3    0.2290810000000000   2.6567078484960955  -21.4965006563211993 -2.7223868128957287  0 0 0
267       44   5   -0.3860370000000000   2.3754262027176667  -21.9241159525642892 -1.6138779615250614  0 0 0
268       44   2    0.3512850000000000   3.8105927608561969  -21.7158663654942323 -4.4460788616001121  0 0 0
269       44   2    0.3512850000000000   4.0600019498547990  -22.9006215904458834 -3.1913893003568461  0 0 0
270       44   1    0.0994030000000000   2.1880864115271503  -20.6053059044103613 -3.1699993983753254  0 0 0
271       45   4   -0.6450170000000000  -9.4084076633981812   21.4878928767752484 -8.7159476498776840  0 0 0