
                                 *****************
                                 * O   R   C   A *
                                 *****************

           --- An Ab Initio, DFT and Semiempirical electronic structure package ---

                  #######################################################
                  #                        -***-                        #
                  #          Department of theory and spectroscopy      #
                  #               Directorship: Frank Neese             #
                  #        Max Planck Institute fuer Kohlenforschung    #
                  #                Kaiser Wilhelm Platz 1               #
                  #                 D-45470 Muelheim/Ruhr               #
                  #                      Germany                        #
                  #                                                     #
                  #                  All rights reserved                #
                  #                        -***-                        #
                  #######################################################


                         Program Version 4.1.2  - RELEASE  -


 With contributions from (in alphabetic order):
   Daniel Aravena         : Magnetic Properties
   Michael Atanasov       : Ab Initio Ligand Field Theory
   Alexander A. Auer      : GIAO ZORA
   Ute Becker             : Parallelization
   Giovanni Bistoni       : ED, Open-shell LED
   Martin Brehm           : Molecular dynamics
   Dmytro Bykov           : SCF Hessian
   Vijay G. Chilkuri      : MRCI spin determinant printing
   Dipayan Datta          : RHF DLPNO-CCSD density
   Achintya Kumar Dutta   : EOM-CC, STEOM-CC
   Dmitry Ganyushin       : Spin-Orbit,Spin-Spin,Magnetic field MRCI
   Miquel Garcia          : C-PCM Hessian
   Yang Guo               : DLPNO-NEVPT2, CIM, IAO-localization
   Andreas Hansen         : Spin unrestricted coupled pair/coupled cluster methods
   Benjamin Helmich-Paris : CASSCF linear response (MC-RPA)
   Lee Huntington         : MR-EOM, pCC
   Robert Izsak           : Overlap fitted RIJCOSX, COSX-SCS-MP3, EOM
   Christian Kollmar      : KDIIS, OOCD, Brueckner-CCSD(T), CCSD density
   Simone Kossmann        : Meta GGA functionals, TD-DFT gradient, OOMP2, MP2 Hessian
   Martin Krupicka        : AUTO-CI
   Lucas Lang             : DCDCAS
   Dagmar Lenk            : GEPOL surface, SMD
   Dimitrios Liakos       : Extrapolation schemes; parallel MDCI
   Dimitrios Manganas     : ROCIS; embedding schemes
   Dimitrios Pantazis     : SARC Basis sets
   Taras Petrenko         : DFT Hessian,TD-DFT gradient, ASA, ECA, R-Raman, ABS, FL, XAS/XES, NRVS
   Peter Pinski           : DLPNO-MP2, DLPNO-MP2 Gradient
   Christoph Reimann      : Effective Core Potentials
   Marius Retegan         : Local ZFS, SOC
   Christoph Riplinger    : Optimizer, TS searches, QM/MM, DLPNO-CCSD(T), (RO)-DLPNO pert. Triples
   Tobias Risthaus        : Range-separated hybrids, TD-DFT gradient, RPA, STAB
   Michael Roemelt        : Restricted open shell CIS
   Masaaki Saitow         : Open-shell DLPNO
   Barbara Sandhoefer     : DKH picture change effects
   Avijit Sen             : IP-ROCIS
   Kantharuban Sivalingam : CASSCF convergence, NEVPT2, FIC-MRCI
   Bernardo de Souza      : ESD, SOC TD-DFT
   Georgi Stoychev        : AutoAux, RI-MP2 NMR
   Willem Van den Heuvel  : Paramagnetic NMR
   Boris Wezisla          : Elementary symmetry handling
   Frank Wennmohs         : Technical directorship


 We gratefully acknowledge several colleagues who have allowed us to
 interface, adapt or use parts of their codes:
   Stefan Grimme, W. Hujo, H. Kruse,             : VdW corrections, initial TS optimization,
                  C. Bannwarth                     DFT functionals, gCP, sTDA/sTD-DF
   Ed Valeev                                     : LibInt (2-el integral package), F12 methods
   Garnet Chan, S. Sharma, J. Yang, R. Olivares  : DMRG
   Ulf Ekstrom                                   : XCFun DFT Library
   Mihaly Kallay                                 : mrcc  (arbitrary order and MRCC methods)
   Andreas Klamt, Michael Diedenhofen            : otool_cosmo (COSMO solvation model)
   Jiri Pittner, Ondrej Demel                    : Mk-CCSD
   Frank Weinhold                                : gennbo (NPA and NBO analysis)
   Christopher J. Cramer and Donald G. Truhlar   : smd solvation model
   Lars Goerigk                                  : TD-DFT with DH, B97 family of functionals
   V. Asgeirsson, H. Jonsson                     : NEB implementation
   FAccTs GmbH                                   : IRC, NEB, NEB-TS, Multilevel


 Your calculation uses the libint2 library for the computation of 2-el integrals
 For citations please refer to: http://libint.valeyev.net

 This ORCA versions uses:
   CBLAS   interface :  Fast vector & matrix operations
   LAPACKE interface :  Fast linear algebra routines
   SCALAPACK package :  Parallel linear algebra routines


Your calculation utilizes the atom-pairwise dispersion correction
with the zero-damping scheme (D30)
Cite in your paper:
S.Grimme, J.Antony, S.Ehrlich and H.Krieg, J.Chem.Phys., 132, (2010), 154104 
   

XCFun DFT library Copyright 2009-2010 Ulf Ekstrom and contributors.
See http://admol.org/xcfun for more information. This is free soft-
ware; see the source code for copying conditions. There is ABSOLUTELY
NO WARRANTY; not even for MERCHANTABILITY or FITNESS FOR A PARTICULAR
PURPOSE. For details see the documentation. Scientific users of this 
library should cite U. Ekstrom, L. Visscher, R. Bast, A. J. Thorvald-
sen and K. Ruud; J.Chem.Theor.Comp. 2010, DOI: 10.1021/ct100117s
XCFun Version 0.99 
----- Orbital basis set information -----
Your calculation utilizes the basis: def2-TZVP
   F. Weigend and R. Ahlrichs, Phys. Chem. Chem. Phys. 7, 3297 (2005).

================================================================================
                                        WARNINGS
                       Please study these warnings very carefully!
================================================================================


INFO   : the flag for use of LIBINT has been found!

Your calculation utilizes the atom-pairwise dispersion correction
with the zero-damping scheme (D30)
Cite in your paper:
S.Grimme, J.Antony, S.Ehrlich and H.Krieg, J.Chem.Phys., 132, (2010), 154104 
   

XCFun DFT library Copyright 2009-2010 Ulf Ekstrom and contributors.
See http://admol.org/xcfun for more information. This is free soft-
ware; see the source code for copying conditions. There is ABSOLUTELY
NO WARRANTY; not even for MERCHANTABILITY or FITNESS FOR A PARTICULAR
PURPOSE. For details see the documentation. Scientific users of this 
library should cite U. Ekstrom, L. Visscher, R. Bast, A. J. Thorvald-
sen and K. Ruud; J.Chem.Theor.Comp. 2010, DOI: 10.1021/ct100117s
XCFun Version 0.99 
----- Orbital basis set information -----
Your calculation utilizes the basis: def2-TZVP
   F. Weigend and R. Ahlrichs, Phys. Chem. Chem. Phys. 7, 3297 (2005).

================================================================================
                                        WARNINGS
                       Please study these warnings very carefully!
================================================================================


WARNING: MOInp is set but Guess=PModel. MOInp will be ignored!
         To read the initial guess from a file you must also specify
         'MORead' in the simple input or 'Guess MORead' in the %scf block


INFO   : the flag for use of LIBINT has been found!

Your calculation utilizes the atom-pairwise dispersion correction
with the zero-damping scheme (D30)
Cite in your paper:
S.Grimme, J.Antony, S.Ehrlich and H.Krieg, J.Chem.Phys., 132, (2010), 154104 
   

XCFun DFT library Copyright 2009-2010 Ulf Ekstrom and contributors.
See http://admol.org/xcfun for more information. This is free soft-
ware; see the source code for copying conditions. There is ABSOLUTELY
NO WARRANTY; not even for MERCHANTABILITY or FITNESS FOR A PARTICULAR
PURPOSE. For details see the documentation. Scientific users of this 
library should cite U. Ekstrom, L. Visscher, R. Bast, A. J. Thorvald-
sen and K. Ruud; J.Chem.Theor.Comp. 2010, DOI: 10.1021/ct100117s
XCFun Version 0.99 
----- Orbital basis set information -----
Your calculation utilizes the basis: def2-TZVP
   F. Weigend and R. Ahlrichs, Phys. Chem. Chem. Phys. 7, 3297 (2005).

================================================================================
                                        WARNINGS
                       Please study these warnings very carefully!
================================================================================


WARNING: MOInp is set but Guess=PModel. MOInp will be ignored!
         To read the initial guess from a file you must also specify
         'MORead' in the simple input or 'Guess MORead' in the %scf block


INFO   : the flag for use of LIBINT has been found!

================================================================================
                                       INPUT FILE
================================================================================
NAME = 14-80.in
|  1> #Run DFT-D3 single point of the dimer
|  2> ! wB97X-D3 def2-TZVP TIGHTSCF CHELPG PMODEL PAL8
|  3> 
|  4> %base "14-80_DFT_AB"
|  5> 
|  6> %scf
|  7> MaxIter 1000
|  8> end
|  9> 
| 10> * xyz 0 1
| 11>   C                      -4.858137            8.794378             -2.162719           
| 12>   O                      -5.057893            9.023676             -0.762485           
| 13>   H                      -4.277961            8.800261             -0.211867           
| 14>   H                      -5.459045            7.976104             -2.597022           
| 15>   H                      -5.076426            9.725379             -2.688449           
| 16>   H                      -3.806476            8.543483             -2.442663           
| 17>   C                      -6.355175            4.803348             -0.633554           
| 18>   O                      -6.165207            4.170899             0.606047            
| 19>   H                      -6.825564            3.483296             0.638373            
| 20>   H                      -7.380405            5.187809             -0.791474           
| 21>   H                      -5.628031            5.602576             -0.976239           
| 22>   H                      -6.191720            4.108695             -1.435763           
| 23> *
| 24> 
| 25> #Run DFT-D3 single point of the molecule with dimer basis set
| 26> $new_job
| 27> %base "14-80_DFT_A"
| 28> ! wB97X-D3 def2-TZVP TIGHTSCF CHELPG PMODEL
| 29> 
| 30> %scf
| 31> MaxIter 1000
| 32> end
| 33> 
| 34> * xyz 0 1
| 35>   C                      -4.858137            8.794378             -2.162719           
| 36>   O                      -5.057893            9.023676             -0.762485           
| 37>   H                      -4.277961            8.800261             -0.211867           
| 38>   H                      -5.459045            7.976104             -2.597022           
| 39>   H                      -5.076426            9.725379             -2.688449           
| 40>   H                      -3.806476            8.543483             -2.442663           
| 41>   C                    : -6.355175            4.803348             -0.633554           
| 42>   O                    : -6.165207            4.170899             0.606047            
| 43>   H                    : -6.825564            3.483296             0.638373            
| 44>   H                    : -7.380405            5.187809             -0.791474           
| 45>   H                    : -5.628031            5.602576             -0.976239           
| 46>   H                    : -6.191720            4.108695             -1.435763           
| 47> *
| 48> 
| 49> #Run DFT-D3 single point of the particle with dimer basis set
| 50> $new_job
| 51> %base "14-80_DFT_B"
| 52> ! wB97X-D3 def2-TZVP TIGHTSCF CHELPG PMODEL
| 53> 
| 54> %scf
| 55> MaxIter 1000
| 56> end
| 57> 
| 58> * xyz 0 1
| 59>   C                    : -4.858137            8.794378             -2.162719           
| 60>   O                    : -5.057893            9.023676             -0.762485           
| 61>   H                    : -4.277961            8.800261             -0.211867           
| 62>   H                    : -5.459045            7.976104             -2.597022           
| 63>   H                    : -5.076426            9.725379             -2.688449           
| 64>   H                    : -3.806476            8.543483             -2.442663           
| 65>   C                      -6.355175            4.803348             -0.633554           
| 66>   O                      -6.165207            4.170899             0.606047            
| 67>   H                      -6.825564            3.483296             0.638373            
| 68>   H                      -7.380405            5.187809             -0.791474           
| 69>   H                      -5.628031            5.602576             -0.976239           
| 70>   H                      -6.191720            4.108695             -1.435763           
| 71> *
| 72> 
| 73>                          ****END OF INPUT****
================================================================================


                 $$$$$$$$$$$$$$$$$$$$$$$$$$$$$$$$$$$$$$$$$$$$$$ 
                 $ THERE ARE  3 JOBS TO BE PROCESSED THIS RUN $
                 $$$$$$$$$$$$$$$$$$$$$$$$$$$$$$$$$$$$$$$$$$$$$$ 




                 $$$$$$$$$$$$$$$$  JOB NUMBER  1 $$$$$$$$$$$$$$


                       ****************************
                       * Single Point Calculation *
                       ****************************

---------------------------------
CARTESIAN COORDINATES (ANGSTROEM)
---------------------------------
  C     -4.858137    8.794378   -2.162719
  O     -5.057893    9.023676   -0.762485
  H     -4.277961    8.800261   -0.211867
  H     -5.459045    7.976104   -2.597022
  H     -5.076426    9.725379   -2.688449
  H     -3.806476    8.543483   -2.442663
  C     -6.355175    4.803348   -0.633554
  O     -6.165207    4.170899    0.606047
  H     -6.825564    3.483296    0.638373
  H     -7.380405    5.187809   -0.791474
  H     -5.628031    5.602576   -0.976239
  H     -6.191720    4.108695   -1.435763

----------------------------
CARTESIAN COORDINATES (A.U.)
----------------------------
  NO LB      ZA    FRAG     MASS         X           Y           Z
   0 C     6.0000    0    12.011   -9.180548   16.618966   -4.086947
   1 O     8.0000    0    15.999   -9.558033   17.052276   -1.440888
   2 H     1.0000    0     1.008   -8.084175   16.630083   -0.400371
   3 H     1.0000    0     1.008  -10.316100   15.072652   -4.907660
   4 H     1.0000    0     1.008   -9.593055   18.378303   -5.080432
   5 H     1.0000    0     1.008   -7.193197   16.144843   -4.615964
   6 C     6.0000    0    12.011  -12.009540    9.077012   -1.197244
   7 O     8.0000    0    15.999  -11.650553    7.881857    1.145263
   8 H     1.0000    0     1.008  -12.898447    6.582475    1.206350
   9 H     1.0000    0     1.008  -13.946944    9.803538   -1.495669
  10 H     1.0000    0     1.008  -10.635437   10.587334   -1.844824
  11 H     1.0000    0     1.008  -11.700655    7.764308   -2.713199

--------------------------------
INTERNAL COORDINATES (ANGSTROEM)
--------------------------------
 C      0   0   0     0.000000000000     0.00000000     0.00000000
 O      1   0   0     1.432876577761     0.00000000     0.00000000
 H      2   1   0     0.980504140110   113.66687949     0.00000000
 H      1   2   3     1.104210966867   115.28216374   112.24062771
 H      1   2   3     1.091240112176   107.84137088   234.91936751
 H      1   2   3     1.116829352713   114.34144333   351.31356605
 C      4   1   2     3.837269367592   122.58523595   325.81787946
 O      7   4   1     1.404524908226   142.40366234   358.03391698
 H      8   7   4     0.953894241168   105.12138710   164.78534098
 H      7   4   1     1.106275526178    81.72278834   117.14876747
 H      7   4   1     1.133550529066    27.44413063   315.02767215
 H      7   4   1     1.073685059557    96.72366748   221.42902002

---------------------------
INTERNAL COORDINATES (A.U.)
---------------------------
 C      0   0   0     0.000000000000     0.00000000     0.00000000
 O      1   0   0     2.707744315679     0.00000000     0.00000000
 H      2   1   0     1.852884297984   113.66687949     0.00000000
 H      1   2   3     2.086656321451   115.28216374   112.24062771
 H      1   2   3     2.062144958362   107.84137088   234.91936751
 H      1   2   3     2.110501614953   114.34144333   351.31356605
 C      4   1   2     7.251388206834   122.58523595   325.81787946
 O      7   4   1     2.654167424817   142.40366234   358.03391698
 H      8   7   4     1.802598876533   105.12138710   164.78534098
 H      7   4   1     2.090557773137    81.72278834   117.14876747
 H      7   4   1     2.142100058896    27.44413063   315.02767215
 H      7   4   1     2.028970716645    96.72366748   221.42902002

---------------------
BASIS SET INFORMATION
---------------------
There are 3 groups of distinct atoms

 Group   1 Type C   : 11s6p2d1f contracted to 5s3p2d1f pattern {62111/411/11/1}
 Group   2 Type O   : 11s6p2d1f contracted to 5s3p2d1f pattern {62111/411/11/1}
 Group   3 Type H   : 5s1p contracted to 3s1p pattern {311/1}

Atom   0C    basis set group =>   1
Atom   1O    basis set group =>   2
Atom   2H    basis set group =>   3
Atom   3H    basis set group =>   3
Atom   4H    basis set group =>   3
Atom   5H    basis set group =>   3
Atom   6C    basis set group =>   1
Atom   7O    basis set group =>   2
Atom   8H    basis set group =>   3
Atom   9H    basis set group =>   3
Atom  10H    basis set group =>   3
Atom  11H    basis set group =>   3


           ************************************************************
           *        Program running with 8 parallel MPI-processes     *
           *              working on a common directory               *
           ************************************************************
------------------------------------------------------------------------------
                           ORCA GTO INTEGRAL CALCULATION
------------------------------------------------------------------------------

                         BASIS SET STATISTICS AND STARTUP INFO

 # of primitive gaussian shells          ...  128
 # of primitive gaussian functions       ...  248
 # of contracted shells                  ...   76
 # of contracted basis functions         ...  172
 Highest angular momentum                ...    3
 Maximum contraction depth               ...    6
 Integral package used                   ... LIBINT
 Integral threshhold            Thresh   ...  2.500e-11
 Primitive cut-off              TCut     ...  2.500e-12


------------------------------ INTEGRAL EVALUATION ----------------------------


 * One electron integrals 
 Pre-screening matrix                    ... done
 Shell pair data                         ... done (   0.001 sec)



           ************************************************************
           *        Program running with 8 parallel MPI-processes     *
           *              working on a common directory               *
           ************************************************************
-------------------------------------------------------------------------------
                                 ORCA SCF
-------------------------------------------------------------------------------

------------
SCF SETTINGS
------------
Hamiltonian:
 Density Functional     Method          .... DFT(GTOs)
 Exchange Functional    Exchange        .... WB97X-D3
 Correlation Functional Correlation     .... WB97X-D3
 Gradients option       PostSCFGGA      .... off
 Hybrid DFT is turned on
   Fraction HF Exchange ScalHFX         ....  0.195728
   Scaling of DF-GGA-X  ScalDFX         ....  0.000000
   Scaling of DF-GGA-C  ScalDFC         ....  1.000000
   Scaling of DF-LDA-C  ScalLDAC        ....  1.000000
   Perturbative correction              ....  0.000000
   Density functional embedding theory  .... OFF
 Long-range corrected/Screened/Range-Separated Hybrid DFT is turned on
   Amount of maximum screened exact exchange              ....  0.804272
   Range separation parameter mu (erf(mu*r12)/r12)        ....  0.250000


General Settings:
 Integral files         IntName         .... 14-80_DFT_AB
 Hartree-Fock type      HFTyp           .... RHF
 Total Charge           Charge          ....    0
 Multiplicity           Mult            ....    1
 Number of Electrons    NEL             ....   36
 Basis Dimension        Dim             ....  172
 Nuclear Repulsion      ENuc            ....    115.2916306676 Eh

Convergence Acceleration:
 DIIS                   CNVDIIS         .... on
   Start iteration      DIISMaxIt       ....    12
   Startup error        DIISStart       ....  0.200000
   # of expansion vecs  DIISMaxEq       ....     5
   Bias factor          DIISBfac        ....   1.050
   Max. coefficient     DIISMaxC        ....  10.000
 Newton-Raphson         CNVNR           .... off
 SOSCF                  CNVSOSCF        .... on
   Start iteration      SOSCFMaxIt      ....   150
   Startup grad/error   SOSCFStart      ....  0.003300
 Level Shifting         CNVShift        .... on
   Level shift para.    LevelShift      ....    0.2500
   Turn off err/grad.   ShiftErr        ....    0.0010
 Zerner damping         CNVZerner       .... off
 Static damping         CNVDamp         .... on
   Fraction old density DampFac         ....    0.7000
   Max. Damping (<1)    DampMax         ....    0.9800
   Min. Damping (>=0)   DampMin         ....    0.0000
   Turn off err/grad.   DampErr         ....    0.1000
 Fernandez-Rico         CNVRico         .... off

SCF Procedure:
 Maximum # iterations   MaxIter         ....  1000
 SCF integral mode      SCFMode         .... Direct
   Integral package                     .... LIBINT
 Reset frequency        DirectResetFreq ....    20
 Integral Threshold     Thresh          ....  2.500e-11 Eh
 Primitive CutOff       TCut            ....  2.500e-12 Eh

Convergence Tolerance:
 Convergence Check Mode ConvCheckMode   .... Total+1el-Energy
 Convergence forced     ConvForced      .... 0
 Energy Change          TolE            ....  1.000e-08 Eh
 1-El. energy change                    ....  1.000e-05 Eh
 Orbital Gradient       TolG            ....  1.000e-05
 Orbital Rotation angle TolX            ....  1.000e-05
 DIIS Error             TolErr          ....  5.000e-07


Diagonalization of the overlap matrix:
Smallest eigenvalue                        ... 1.366e-03
Time for diagonalization                   ...    0.004 sec
Threshold for overlap eigenvalues          ... 1.000e-08
Number of eigenvalues below threshold      ... 0
Time for construction of square roots      ...    0.005 sec
Total time needed                          ...    0.010 sec

-------------------
DFT GRID GENERATION
-------------------

General Integration Accuracy     IntAcc      ...  4.340
Radial Grid Type                 RadialGrid  ... Gauss-Chebyshev
Angular Grid (max. acc.)         AngularGrid ... Lebedev-110
Angular grid pruning method      GridPruning ... 3 (G Style)
Weight generation scheme         WeightScheme... Becke
Basis function cutoff            BFCut       ...    1.0000e-11
Integration weight cutoff        WCut        ...    1.0000e-14
Grids for H and He will be reduced by one unit

# of grid points (after initial pruning)     ...  13096 (   0.0 sec)
# of grid points (after weights+screening)   ...  12551 (   0.0 sec)
nearest neighbour list constructed           ...    0.0 sec
Grid point re-assignment to atoms done       ...    0.0 sec
Grid point division into batches done        ...    0.0 sec
Reduced shell lists constructed in    0.0 sec

Total number of grid points                  ...    12551
Total number of batches                      ...      201
Average number of points per batch           ...       62
Average number of grid points per atom       ...     1046
Average number of shells per batch           ...    48.70 (64.08%)
Average number of basis functions per batch  ...   106.56 (61.95%)
Average number of large shells per batch     ...    39.30 (80.68%)
Average number of large basis fcns per batch ...    87.15 (81.79%)
Maximum spatial batch extension              ...  16.37, 16.83, 12.81 au
Average spatial batch extension              ...   0.36,  0.37,  0.32 au

Time for grid setup =    0.044 sec

------------------------------
INITIAL GUESS: MODEL POTENTIAL
------------------------------
Loading Hartree-Fock densities                     ... done
Calculating cut-offs                               ... done
Setting up the integral package                    ... done
Initializing the effective Hamiltonian             ... done
Starting the Coulomb interaction                   ... done (   0.0 sec)
Reading the grid                                   ... done
Mapping shells                                     ... done
Starting the XC term evaluation                    ... done (   0.0 sec)
  promolecular density results
     # of electrons  =     35.994322726
     EX              =    -28.842407119
     EC              =     -1.148647593
     EX+EC           =    -29.991054713
Transforming the Hamiltonian                       ... done (   0.0 sec)
Diagonalizing the Hamiltonian                      ... done (   0.0 sec)
Back transforming the eigenvectors                 ... done (   0.0 sec)
Now organizing SCF variables                       ... done
                      ------------------
                      INITIAL GUESS DONE (   0.2 sec)
                      ------------------
--------------
SCF ITERATIONS
--------------
ITER       Energy         Delta-E        Max-DP      RMS-DP      [F,P]     Damp
               ***  Starting incremental Fock matrix formation  ***
  0   -231.2928522162   0.000000000000 0.03683539  0.00105280  0.2519312 0.7000
  1   -231.3648770707  -0.072024854501 0.02175722  0.00075027  0.1251042 0.7000
                               ***Turning on DIIS***
  2   -231.3979097454  -0.033032674704 0.03302470  0.00135713  0.0478633 0.0000
  3   -231.4516614633  -0.053751717902 0.01820245  0.00049508  0.0616156 0.0000
  4   -231.4604973822  -0.008835918860 0.00393201  0.00009607  0.0065937 0.0000
                      *** Initiating the SOSCF procedure ***
                           *** Shutting down DIIS ***
                      *** Re-Reading the Fockian *** 
                      *** Removing any level shift *** 
ITER      Energy       Delta-E        Grad      Rot      Max-DP    RMS-DP
  5   -231.46067296  -0.0001755824  0.000417  0.000417  0.000783  0.000033
               *** Restarting incremental Fock matrix formation ***
  6   -231.46068927  -0.0000163096  0.000135  0.000182  0.000480  0.000020
  7   -231.46069084  -0.0000015639  0.000043  0.000094  0.000236  0.000010
  8   -231.46069095  -0.0000001084  0.000045  0.000031  0.000067  0.000002
  9   -231.46069099  -0.0000000451  0.000011  0.000009  0.000020  0.000001
                  ***Gradient check signals convergence***
              ***Rediagonalizing the Fockian in SOSCF/NRSCF***

               *****************************************************
               *                     SUCCESS                       *
               *           SCF CONVERGED AFTER  10 CYCLES          *
               *****************************************************

Setting up the final grid:

General Integration Accuracy     IntAcc      ...  4.670
Radial Grid Type                 RadialGrid  ... Gauss-Chebyshev
Angular Grid (max. acc.)         AngularGrid ... Lebedev-302
Angular grid pruning method      GridPruning ... 3 (G Style)
Weight generation scheme         WeightScheme... Becke
Basis function cutoff            BFCut       ...    1.0000e-11
Integration weight cutoff        WCut        ...    1.0000e-14
Grids for H and He will be reduced by one unit

# of grid points (after initial pruning)     ...  52000 (   0.0 sec)
# of grid points (after weights+screening)   ...  49441 (   0.0 sec)
nearest neighbour list constructed           ...    0.0 sec
Grid point re-assignment to atoms done       ...    0.0 sec
Grid point division into batches done        ...    0.2 sec
Reduced shell lists constructed in    0.2 sec

Total number of grid points                  ...    49441
Total number of batches                      ...      777
Average number of points per batch           ...       63
Average number of grid points per atom       ...     4120
Average number of shells per batch           ...    47.34 (62.29%)
Average number of basis functions per batch  ...   103.06 (59.92%)
Average number of large shells per batch     ...    37.55 (79.30%)
Average number of large basis fcns per batch ...    83.63 (81.14%)
Maximum spatial batch extension              ...  14.51, 13.72, 13.51 au
Average spatial batch extension              ...   0.22,  0.22,  0.22 au

Final grid set up in    0.3 sec
Final integration                            ... done (   0.1 sec)
Change in XC energy                          ...    -0.000370335
Integrated number of electrons               ...    35.999993419
Previous integrated no of electrons          ...    35.998461998

----------------
TOTAL SCF ENERGY
----------------

Total Energy       :         -231.46106133 Eh           -6298.37568 eV

Components:
Nuclear Repulsion  :          115.29163067 Eh            3137.24476 eV
Electronic Energy  :         -346.75269200 Eh           -9435.62045 eV
One Electron Energy:         -543.44935077 Eh          -14788.00864 eV
Two Electron Energy:          196.69665877 Eh            5352.38820 eV

Virial components:
Potential Energy   :         -461.79713066 Eh          -12566.13878 eV
Kinetic Energy     :          230.33606933 Eh            6267.76309 eV
Virial Ratio       :            2.00488413


DFT components:
N(Alpha)           :       17.999996709587 electrons
N(Beta)            :       17.999996709587 electrons
N(Total)           :       35.999993419174 electrons
E(XC)              :      -21.276769356639 Eh       
DFET-embed. en.    :        0.000000000000 Eh       

---------------
SCF CONVERGENCE
---------------

  Last Energy change         ...   -2.5304e-09  Tolerance :   1.0000e-08
  Last MAX-Density change    ...    5.5215e-06  Tolerance :   1.0000e-07
  Last RMS-Density change    ...    1.8608e-07  Tolerance :   5.0000e-09
  Last Orbital Gradient      ...    2.4818e-06  Tolerance :   1.0000e-05
  Last Orbital Rotation      ...    2.9002e-06  Tolerance :   1.0000e-05

             **** THE GBW FILE WAS UPDATED (14-80_DFT_AB.gbw) ****
             **** DENSITY FILE WAS UPDATED (14-80_DFT_AB.scfp.tmp) ****
             **** ENERGY FILE WAS UPDATED (14-80_DFT_AB.en.tmp) ****
----------------
ORBITAL ENERGIES
----------------

  NO   OCC          E(Eh)            E(eV) 
   0   2.0000     -19.232853      -523.3525 
   1   2.0000     -19.231802      -523.3239 
   2   2.0000     -10.319737      -280.8143 
   3   2.0000     -10.313959      -280.6571 
   4   2.0000      -1.142775       -31.0965 
   5   2.0000      -1.123817       -30.5806 
   6   2.0000      -0.796639       -21.6776 
   7   2.0000      -0.793012       -21.5790 
   8   2.0000      -0.614124       -16.7112 
   9   2.0000      -0.608824       -16.5669 
  10   2.0000      -0.541704       -14.7405 
  11   2.0000      -0.539163       -14.6714 
  12   2.0000      -0.524982       -14.2855 
  13   2.0000      -0.521479       -14.1902 
  14   2.0000      -0.429146       -11.6776 
  15   2.0000      -0.426798       -11.6138 
  16   2.0000      -0.375236       -10.2107 
  17   2.0000      -0.372308       -10.1310 
  18   0.0000       0.104272         2.8374 
  19   0.0000       0.119981         3.2648 
  20   0.0000       0.134674         3.6647 
  21   0.0000       0.162887         4.4324 
  22   0.0000       0.192824         5.2470 
  23   0.0000       0.204615         5.5679 
  24   0.0000       0.208261         5.6671 
  25   0.0000       0.211921         5.7667 
  26   0.0000       0.231115         6.2890 
  27   0.0000       0.244418         6.6510 
  28   0.0000       0.298922         8.1341 
  29   0.0000       0.323432         8.8010 
  30   0.0000       0.325937         8.8692 
  31   0.0000       0.357903         9.7390 
  32   0.0000       0.398711        10.8495 
  33   0.0000       0.422816        11.5054 
  34   0.0000       0.437120        11.8946 
  35   0.0000       0.469107        12.7651 
  36   0.0000       0.475759        12.9461 
  37   0.0000       0.502107        13.6630 
  38   0.0000       0.534457        14.5433 
  39   0.0000       0.539134        14.6706 
  40   0.0000       0.547646        14.9022 
  41   0.0000       0.557031        15.1576 
  42   0.0000       0.566466        15.4143 
  43   0.0000       0.585120        15.9219 
  44   0.0000       0.597573        16.2608 
  45   0.0000       0.608451        16.5568 
  46   0.0000       0.630115        17.1463 
  47   0.0000       0.650545        17.7022 
  48   0.0000       0.694457        18.8971 
  49   0.0000       0.697599        18.9826 
  50   0.0000       0.773298        21.0425 
  51   0.0000       0.778381        21.1808 
  52   0.0000       0.791817        21.5464 
  53   0.0000       0.818415        22.2702 
  54   0.0000       0.859395        23.3853 
  55   0.0000       0.891037        24.2463 
  56   0.0000       0.999883        27.2082 
  57   0.0000       1.006911        27.3995 
  58   0.0000       1.020777        27.7768 
  59   0.0000       1.079525        29.3754 
  60   0.0000       1.106104        30.0986 
  61   0.0000       1.113674        30.3046 
  62   0.0000       1.377738        37.4902 
  63   0.0000       1.384634        37.6778 
  64   0.0000       1.451987        39.5106 
  65   0.0000       1.516574        41.2681 
  66   0.0000       1.554618        42.3033 
  67   0.0000       1.570778        42.7430 
  68   0.0000       1.587513        43.1984 
  69   0.0000       1.604814        43.6692 
  70   0.0000       1.620762        44.1032 
  71   0.0000       1.637695        44.5639 
  72   0.0000       1.645780        44.7840 
  73   0.0000       1.665788        45.3284 
  74   0.0000       1.677600        45.6498 
  75   0.0000       1.685404        45.8622 
  76   0.0000       1.704359        46.3780 
  77   0.0000       1.722482        46.8711 
  78   0.0000       1.776042        48.3286 
  79   0.0000       1.829696        49.7886 
  80   0.0000       1.947496        52.9941 
  81   0.0000       1.953859        53.1672 
  82   0.0000       1.983709        53.9795 
  83   0.0000       1.999266        54.4028 
  84   0.0000       2.042945        55.5913 
  85   0.0000       2.057837        55.9966 
  86   0.0000       2.085944        56.7614 
  87   0.0000       2.100818        57.1662 
  88   0.0000       2.125275        57.8317 
  89   0.0000       2.165613        58.9293 
  90   0.0000       2.222754        60.4842 
  91   0.0000       2.250574        61.2412 
  92   0.0000       2.325202        63.2720 
  93   0.0000       2.349472        63.9324 
  94   0.0000       2.380326        64.7720 
  95   0.0000       2.393798        65.1385 
  96   0.0000       2.397836        65.2484 
  97   0.0000       2.428023        66.0699 
  98   0.0000       2.447582        66.6021 
  99   0.0000       2.473804        67.3156 
 100   0.0000       2.481353        67.5211 
 101   0.0000       2.507372        68.2291 
 102   0.0000       2.559559        69.6491 
 103   0.0000       2.604408        70.8696 
 104   0.0000       2.614352        71.1401 
 105   0.0000       2.648436        72.0676 
 106   0.0000       2.677487        72.8581 
 107   0.0000       2.749433        74.8159 
 108   0.0000       2.786050        75.8123 
 109   0.0000       2.832037        77.0636 
 110   0.0000       2.861009        77.8520 
 111   0.0000       2.880709        78.3881 
 112   0.0000       2.899344        78.8952 
 113   0.0000       2.936410        79.9038 
 114   0.0000       2.956417        80.4482 
 115   0.0000       2.994518        81.4850 
 116   0.0000       3.088509        84.0426 
 117   0.0000       3.095387        84.2297 
 118   0.0000       3.131559        85.2140 
 119   0.0000       3.144649        85.5703 
 120   0.0000       3.224634        87.7468 
 121   0.0000       3.240890        88.1891 
 122   0.0000       3.313657        90.1692 
 123   0.0000       3.357638        91.3660 
 124   0.0000       3.473244        94.5118 
 125   0.0000       3.476428        94.5984 
 126   0.0000       3.492726        95.0419 
 127   0.0000       3.534928        96.1903 
 128   0.0000       3.555293        96.7445 
 129   0.0000       3.593879        97.7944 
 130   0.0000       3.638859        99.0184 
 131   0.0000       3.651912        99.3736 
 132   0.0000       3.684392       100.2574 
 133   0.0000       3.703287       100.7716 
 134   0.0000       3.934890       107.0738 
 135   0.0000       4.050744       110.2264 
 136   0.0000       4.174530       113.5947 
 137   0.0000       4.223082       114.9159 
 138   0.0000       4.308372       117.2368 
 139   0.0000       4.319582       117.5418 
 140   0.0000       4.374539       119.0373 
 141   0.0000       4.378711       119.1508 
 142   0.0000       4.562674       124.1567 
 143   0.0000       4.591378       124.9377 
 144   0.0000       5.321258       144.7988 
 145   0.0000       5.366608       146.0328 
 146   0.0000       5.372151       146.1837 
 147   0.0000       5.476488       149.0228 
 148   0.0000       5.548188       150.9739 
 149   0.0000       5.562346       151.3591 
 150   0.0000       5.789610       157.5433 
 151   0.0000       5.798154       157.7758 
 152   0.0000       5.836030       158.8065 
 153   0.0000       5.840260       158.9216 
 154   0.0000       5.899339       160.5292 
 155   0.0000       6.016856       163.7270 
 156   0.0000       6.300156       171.4359 
 157   0.0000       6.355974       172.9548 
 158   0.0000       6.501989       176.9281 
 159   0.0000       6.533064       177.7737 
 160   0.0000       6.736502       183.3095 
 161   0.0000       6.756885       183.8642 
 162   0.0000       6.801246       185.0713 
 163   0.0000       6.806089       185.2031 
 164   0.0000       7.021361       191.0609 
 165   0.0000       7.037746       191.5068 
 166   0.0000       7.184048       195.4879 
 167   0.0000       7.213302       196.2839 
 168   0.0000      22.319913       607.3557 
 169   0.0000      22.390550       609.2778 
 170   0.0000      43.648485      1187.7357 
 171   0.0000      43.663237      1188.1371 

                    ********************************
                    * MULLIKEN POPULATION ANALYSIS *
                    ********************************

-----------------------
MULLIKEN ATOMIC CHARGES
-----------------------
   0 C :   -0.175065
   1 O :   -0.487183
   2 H :    0.325316
   3 H :    0.106009
   4 H :    0.125885
   5 H :    0.105868
   6 C :   -0.175847
   7 O :   -0.464925
   8 H :    0.318633
   9 H :    0.104700
  10 H :    0.116021
  11 H :    0.100587
Sum of atomic charges:    0.0000000

--------------------------------
MULLIKEN REDUCED ORBITAL CHARGES
--------------------------------
  0 C s       :     3.225341  s :     3.225341
      pz      :     0.709709  p :     2.841504
      px      :     1.063383
      py      :     1.068412
      dz2     :     0.013919  d :     0.100823
      dxz     :     0.029788
      dyz     :     0.046404
      dx2y2   :     0.006802
      dxy     :     0.003910
      f0      :     0.002143  f :     0.007397
      f+1     :     0.001891
      f-1     :     0.002308
      f+2     :     0.000313
      f-2     :     0.000224
      f+3     :     0.000342
      f-3     :     0.000176
  1 O s       :     3.791731  s :     3.791731
      pz      :     1.254348  p :     4.665671
      px      :     1.553607
      py      :     1.857716
      dz2     :     0.006693  d :     0.028140
      dxz     :     0.009509
      dyz     :     0.005021
      dx2y2   :     0.004002
      dxy     :     0.002914
      f0      :     0.000508  f :     0.001641
      f+1     :     0.000207
      f-1     :     0.000263
      f+2     :     0.000296
      f-2     :     0.000139
      f+3     :     0.000104
      f-3     :     0.000124
  2 H s       :     0.628931  s :     0.628931
      pz      :     0.013515  p :     0.045753
      px      :     0.015835
      py      :     0.016403
  3 H s       :     0.874237  s :     0.874237
      pz      :     0.004293  p :     0.019754
      px      :     0.006710
      py      :     0.008750
  4 H s       :     0.853983  s :     0.853983
      pz      :     0.005194  p :     0.020132
      px      :     0.004767
      py      :     0.010171
  5 H s       :     0.875200  s :     0.875200
      pz      :     0.003047  p :     0.018932
      px      :     0.011324
      py      :     0.004561
  6 C s       :     3.215471  s :     3.215471
      pz      :     0.762949  p :     2.853022
      px      :     1.059373
      py      :     1.030700
      dz2     :     0.026858  d :     0.099791
      dxz     :     0.025815
      dyz     :     0.023556
      dx2y2   :     0.008954
      dxy     :     0.014608
      f0      :     0.002349  f :     0.007563
      f+1     :     0.001209
      f-1     :     0.001651
      f+2     :     0.000621
      f-2     :     0.001106
      f+3     :     0.000285
      f-3     :     0.000342
  7 O s       :     3.797488  s :     3.797488
      pz      :     1.486930  p :     4.634900
      px      :     1.638634
      py      :     1.509336
      dz2     :     0.010735  d :     0.030871
      dxz     :     0.004939
      dyz     :     0.005137
      dx2y2   :     0.001568
      dxy     :     0.008492
      f0      :     0.000196  f :     0.001665
      f+1     :     0.000199
      f-1     :     0.000450
      f+2     :     0.000137
      f-2     :     0.000128
      f+3     :     0.000294
      f-3     :     0.000262
  8 H s       :     0.633393  s :     0.633393
      pz      :     0.012320  p :     0.047974
      px      :     0.017715
      py      :     0.017939
  9 H s       :     0.875976  s :     0.875976
      pz      :     0.003021  p :     0.019324
      px      :     0.011108
      py      :     0.005195
 10 H s       :     0.864541  s :     0.864541
      pz      :     0.003794  p :     0.019438
      px      :     0.006935
      py      :     0.008709
 11 H s       :     0.878620  s :     0.878620
      pz      :     0.008276  p :     0.020793
      px      :     0.005068
      py      :     0.007449


                     *******************************
                     * LOEWDIN POPULATION ANALYSIS *
                     *******************************

----------------------
LOEWDIN ATOMIC CHARGES
----------------------
   0 C :   -0.381286
   1 O :   -0.100357
   2 H :    0.180272
   3 H :    0.097060
   4 H :    0.103578
   5 H :    0.100215
   6 C :   -0.407912
   7 O :   -0.064972
   8 H :    0.170908
   9 H :    0.097242
  10 H :    0.116872
  11 H :    0.088379

-------------------------------
LOEWDIN REDUCED ORBITAL CHARGES
-------------------------------
  0 C s       :     2.871397  s :     2.871397
      pz      :     0.842528  p :     3.058187
      px      :     1.106365
      py      :     1.109294
      dz2     :     0.095818  d :     0.399271
      dxz     :     0.098301
      dyz     :     0.145971
      dx2y2   :     0.033694
      dxy     :     0.025487
      f0      :     0.013849  f :     0.052431
      f+1     :     0.014060
      f-1     :     0.013838
      f+2     :     0.004182
      f-2     :     0.003855
      f+3     :     0.001668
      f-3     :     0.000979
  1 O s       :     3.381694  s :     3.381694
      pz      :     1.322931  p :     4.648985
      px      :     1.550603
      py      :     1.775452
      dz2     :     0.018411  d :     0.065610
      dxz     :     0.025212
      dyz     :     0.014551
      dx2y2   :     0.004885
      dxy     :     0.002550
      f0      :     0.001270  f :     0.004068
      f+1     :     0.000686
      f-1     :     0.000851
      f+2     :     0.000635
      f-2     :     0.000356
      f+3     :     0.000124
      f-3     :     0.000148
  2 H s       :     0.669028  s :     0.669028
      pz      :     0.037544  p :     0.150700
      px      :     0.067449
      py      :     0.045707
  3 H s       :     0.843982  s :     0.843982
      pz      :     0.012067  p :     0.058958
      px      :     0.020278
      py      :     0.026613
  4 H s       :     0.835850  s :     0.835850
      pz      :     0.014394  p :     0.060572
      px      :     0.014649
      py      :     0.031530
  5 H s       :     0.842374  s :     0.842374
      pz      :     0.010143  p :     0.057411
      px      :     0.033310
      py      :     0.013958
  6 C s       :     2.858459  s :     2.858459
      pz      :     0.892760  p :     3.068791
      px      :     1.095519
      py      :     1.080512
      dz2     :     0.131148  d :     0.423830
      dxz     :     0.081381
      dyz     :     0.116455
      dx2y2   :     0.029232
      dxy     :     0.065614
      f0      :     0.013786  f :     0.056832
      f+1     :     0.010559
      f-1     :     0.011453
      f+2     :     0.008787
      f-2     :     0.008223
      f+3     :     0.001913
      f-3     :     0.002111
  7 O s       :     3.363652  s :     3.363652
      pz      :     1.532597  p :     4.624537
      px      :     1.607030
      py      :     1.484910
      dz2     :     0.025159  d :     0.071982
      dxz     :     0.011901
      dyz     :     0.014405
      dx2y2   :     0.003124
      dxy     :     0.017393
      f0      :     0.000974  f :     0.004802
      f+1     :     0.000909
      f-1     :     0.001083
      f+2     :     0.000427
      f-2     :     0.000429
      f+3     :     0.000496
      f-3     :     0.000482
  8 H s       :     0.669249  s :     0.669249
      pz      :     0.034376  p :     0.159843
      px      :     0.065236
      py      :     0.060231
  9 H s       :     0.843714  s :     0.843714
      pz      :     0.009558  p :     0.059044
      px      :     0.033265
      py      :     0.016220
 10 H s       :     0.828102  s :     0.828102
      pz      :     0.010376  p :     0.055026
      px      :     0.020588
      py      :     0.024062
 11 H s       :     0.846911  s :     0.846911
      pz      :     0.025051  p :     0.064711
      px      :     0.016062
      py      :     0.023598


                      *****************************
                      * MAYER POPULATION ANALYSIS *
                      *****************************

  NA   - Mulliken gross atomic population
  ZA   - Total nuclear charge
  QA   - Mulliken gross atomic charge
  VA   - Mayer's total valence
  BVA  - Mayer's bonded valence
  FA   - Mayer's free valence

  ATOM       NA         ZA         QA         VA         BVA        FA
  0 C      6.1751     6.0000    -0.1751     3.9426     3.9426     0.0000
  1 O      8.4872     8.0000    -0.4872     1.8813     1.8813    -0.0000
  2 H      0.6747     1.0000     0.3253     0.9056     0.9056    -0.0000
  3 H      0.8940     1.0000     0.1060     0.9471     0.9471     0.0000
  4 H      0.8741     1.0000     0.1259     0.9577     0.9577     0.0000
  5 H      0.8941     1.0000     0.1059     0.9592     0.9592     0.0000
  6 C      6.1758     6.0000    -0.1758     3.9431     3.9431    -0.0000
  7 O      8.4649     8.0000    -0.4649     1.8979     1.8979     0.0000
  8 H      0.6814     1.0000     0.3186     0.9091     0.9091     0.0000
  9 H      0.8953     1.0000     0.1047     0.9604     0.9604    -0.0000
 10 H      0.8840     1.0000     0.1160     0.9607     0.9607    -0.0000
 11 H      0.8994     1.0000     0.1006     0.9501     0.9501    -0.0000

  Mayer bond orders larger than 0.1
B(  0-C ,  1-O ) :   1.0036 B(  0-C ,  3-H ) :   0.9691 B(  0-C ,  4-H ) :   0.9786 
B(  0-C ,  5-H ) :   0.9784 B(  1-O ,  2-H ) :   0.8894 B(  6-C ,  7-O ) :   1.0041 
B(  6-C ,  9-H ) :   0.9782 B(  6-C , 10-H ) :   0.9699 B(  6-C , 11-H ) :   0.9789 
B(  7-O ,  8-H ) :   0.8973 

-------
TIMINGS
-------

Total SCF time: 0 days 0 hours 0 min 13 sec 

Total time                  ....      13.707 sec
Sum of individual times     ....      13.365 sec  ( 97.5%)

Fock matrix formation       ....      12.818 sec  ( 93.5%)
  XC integration            ....       5.001 sec  ( 39.0% of F)
    Basis function eval.    ....       0.056 sec  (  1.1% of XC)
    Density eval.           ....       0.089 sec  (  1.8% of XC)
    XC-Functional eval.     ....       0.104 sec  (  2.1% of XC)
    XC-Potential eval.      ....       0.058 sec  (  1.2% of XC)
Diagonalization             ....       0.045 sec  (  0.3%)
Density matrix formation    ....       0.006 sec  (  0.0%)
Population analysis         ....       0.020 sec  (  0.1%)
Initial guess               ....       0.111 sec  (  0.8%)
Orbital Transformation      ....       0.000 sec  (  0.0%)
Orbital Orthonormalization  ....       0.000 sec  (  0.0%)
DIIS solution               ....       0.021 sec  (  0.2%)
SOSCF solution              ....       0.048 sec  (  0.4%)
Grid generation             ....       0.295 sec  (  2.2%)


-------------------------------------------------------------------------------
                          DFT DISPERSION CORRECTION                            
                                                                               
                              DFTD3 V3.1  Rev 1                                
                              USING zero damping                               
-------------------------------------------------------------------------------
The omegaB97X-D3 functional is recognized. Fit by Chai et al.
Active option DFTDOPT                   ...         3   

molecular C6(AA) [au] = 835.138303 


            DFT-D V3
 parameters
 s6 scaling factor         :     1.0000 
 rs6 scaling factor        :     1.2810 
 s8 scaling factor         :     1.0000 
 rs8 scaling factor        :     1.0940 
 Damping factor alpha6     :    14.0000 
 Damping factor alpha8     :    16.0000 
 ad hoc parameters k1-k3   :    16.0000     1.3333    -4.0000 

 Edisp/kcal,au: -0.754491389995  -0.001202358436 
 E6   /kcal   :  -0.367338905 
 E8   /kcal   :  -0.387152485 
 % E8         :  51.313042106 

-------------------------   ----------------
Dispersion correction           -0.001202358
-------------------------   ----------------


-------------------------   --------------------
FINAL SINGLE POINT ENERGY      -231.462263687198
-------------------------   --------------------


                            ***************************************
                            *     ORCA property calculations      *
                            ***************************************

                                    ---------------------
                                    Active property flags
                                    ---------------------
   (+) Dipole Moment


------------------------------------------------------------------------------
                       ORCA ELECTRIC PROPERTIES CALCULATION
------------------------------------------------------------------------------

Dipole Moment Calculation                       ... on
Quadrupole Moment Calculation                   ... off
Polarizability Calculation                      ... off
GBWName                                         ... 14-80_DFT_AB.gbw
Electron density file                           ... 14-80_DFT_AB.scfp.tmp
The origin for moment calculation is the CENTER OF MASS  = (-10.593491, 12.629156 -1.376454)

-------------
DIPOLE MOMENT
-------------
                                X             Y             Z
Electronic contribution:     -0.05345      -0.37557       3.68349
Nuclear contribution   :      0.18844      -0.03715      -4.36956
                        -----------------------------------------
Total Dipole Moment    :      0.13500      -0.41272      -0.68607
                        -----------------------------------------
Magnitude (a.u.)       :      0.81194
Magnitude (Debye)      :      2.06379



--------------------
Rotational spectrum 
--------------------
 
Rotational constants in cm-1:     0.496955     0.042631     0.040250 
Rotational constants in MHz : 14898.323901  1278.039894  1206.660155 

 Dipole components along the rotational axes: 
x,y,z [a.u.] :     0.116179    -0.756508     0.271014 
x,y,z [Debye]:     0.295304    -1.922890     0.688864 

 
------------------------------------------------------------------------------
                      ORCA CHELPG CHARGES GENERATION
------------------------------------------------------------------------------

GBW file                           ... 14-80_DFT_AB.gbw

Reading the GBW file               ... done

Grid spacing                       ...     0.300000
Point Cut-Off                      ...     2.800000
Van-der-Waals Radii                ...        COSMO
Total charge                       ...            0


Number of points X direction       ...           30
Number of points Y direction       ...           39
Number of points Z direction       ...           29
Maximum number of possible points  ...        33930
Final number of points             ...        10677


CHELPG Charges            
--------------------------------
  0   C   :       0.171240
  1   O   :      -0.633507
  2   H   :       0.410117
  3   H   :       0.011184
  4   H   :       0.041680
  5   H   :      -0.005763
  6   C   :       0.112294
  7   O   :      -0.613065
  8   H   :       0.411234
  9   H   :       0.011655
 10   H   :       0.082020
 11   H   :       0.000912
--------------------------------
Total charge:    -0.000000
--------------------------------

CHELPG charges calculated...

Timings for individual parts in CHELPG calculation:
Grid generation                 ...        0.002 sec (=   0.000 min)
Potential calculation           ...        2.098 sec (=   0.035 min)
Fit to the potential            ...        0.004 sec (=   0.000 min)
------------------------------------------------------------------------------


Timings for individual modules:

Sum of individual times         ...       19.986 sec (=   0.333 min)
GTO integral calculation        ...        2.331 sec (=   0.039 min)  11.7 %
SCF iterations                  ...       15.521 sec (=   0.259 min)  77.7 %
CHELPG charge generation        ...        2.134 sec (=   0.036 min)  10.7 %


                 $$$$$$$$$$$$$$$$  JOB NUMBER  2 $$$$$$$$$$$$$$


                       ****************************
                       * Single Point Calculation *
                       ****************************

---------------------------------
CARTESIAN COORDINATES (ANGSTROEM)
---------------------------------
  C     -4.858137    8.794378   -2.162719
  O     -5.057893    9.023676   -0.762485
  H     -4.277961    8.800261   -0.211867
  H     -5.459045    7.976104   -2.597022
  H     -5.076426    9.725379   -2.688449
  H     -3.806476    8.543483   -2.442663
  C     -6.355175    4.803348   -0.633554
  O     -6.165207    4.170899    0.606047
  H     -6.825564    3.483296    0.638373
  H     -7.380405    5.187809   -0.791474
  H     -5.628031    5.602576   -0.976239
  H     -6.191720    4.108695   -1.435763

----------------------------
CARTESIAN COORDINATES (A.U.)
----------------------------
  NO LB      ZA    FRAG     MASS         X           Y           Z
   0 C     6.0000    0    12.011   -9.180548   16.618966   -4.086947
   1 O     8.0000    0    15.999   -9.558033   17.052276   -1.440888
   2 H     1.0000    0     1.008   -8.084175   16.630083   -0.400371
   3 H     1.0000    0     1.008  -10.316100   15.072652   -4.907660
   4 H     1.0000    0     1.008   -9.593055   18.378303   -5.080432
   5 H     1.0000    0     1.008   -7.193197   16.144843   -4.615964
   6 C     0.0000    0     0.000  -12.009540    9.077012   -1.197244
   7 O     0.0000    0     0.000  -11.650553    7.881857    1.145263
   8 H     0.0000    0     0.000  -12.898447    6.582475    1.206350
   9 H     0.0000    0     0.000  -13.946944    9.803538   -1.495669
  10 H     0.0000    0     0.000  -10.635437   10.587334   -1.844824
  11 H     0.0000    0     0.000  -11.700655    7.764308   -2.713199

--------------------------------
INTERNAL COORDINATES (ANGSTROEM)
--------------------------------
 C      0   0   0     0.000000000000     0.00000000     0.00000000
 O      1   0   0     1.432876577761     0.00000000     0.00000000
 H      2   1   0     0.980504140110   113.66687949     0.00000000
 H      1   2   3     1.104210966867   115.28216374   112.24062771
 H      1   2   3     1.091240112176   107.84137088   234.91936751
 H      1   2   3     1.116829352713   114.34144333   351.31356605
 C      4   1   2     3.837269367592   122.58523595   325.81787946
 O      7   4   1     1.404524908226   142.40366234   358.03391698
 H      8   7   4     0.953894241168   105.12138710   164.78534098
 H      7   4   1     1.106275526178    81.72278834   117.14876747
 H      7   4   1     1.133550529066    27.44413063   315.02767215
 H      7   4   1     1.073685059557    96.72366748   221.42902002

---------------------------
INTERNAL COORDINATES (A.U.)
---------------------------
 C      0   0   0     0.000000000000     0.00000000     0.00000000
 O      1   0   0     2.707744315679     0.00000000     0.00000000
 H      2   1   0     1.852884297984   113.66687949     0.00000000
 H      1   2   3     2.086656321451   115.28216374   112.24062771
 H      1   2   3     2.062144958362   107.84137088   234.91936751
 H      1   2   3     2.110501614953   114.34144333   351.31356605
 C      4   1   2     7.251388206834   122.58523595   325.81787946
 O      7   4   1     2.654167424817   142.40366234   358.03391698
 H      8   7   4     1.802598876533   105.12138710   164.78534098
 H      7   4   1     2.090557773137    81.72278834   117.14876747
 H      7   4   1     2.142100058896    27.44413063   315.02767215
 H      7   4   1     2.028970716645    96.72366748   221.42902002

---------------------
BASIS SET INFORMATION
---------------------
There are 3 groups of distinct atoms

 Group   1 Type C   : 11s6p2d1f contracted to 5s3p2d1f pattern {62111/411/11/1}
 Group   2 Type O   : 11s6p2d1f contracted to 5s3p2d1f pattern {62111/411/11/1}
 Group   3 Type H   : 5s1p contracted to 3s1p pattern {311/1}

Atom   0C    basis set group =>   1
Atom   1O    basis set group =>   2
Atom   2H    basis set group =>   3
Atom   3H    basis set group =>   3
Atom   4H    basis set group =>   3
Atom   5H    basis set group =>   3
Atom   6C    basis set group =>   1
Atom   7O    basis set group =>   2
Atom   8H    basis set group =>   3
Atom   9H    basis set group =>   3
Atom  10H    basis set group =>   3
Atom  11H    basis set group =>   3


           ************************************************************
           *        Program running with 8 parallel MPI-processes     *
           *              working on a common directory               *
           ************************************************************
------------------------------------------------------------------------------
                           ORCA GTO INTEGRAL CALCULATION
------------------------------------------------------------------------------

                         BASIS SET STATISTICS AND STARTUP INFO

 # of primitive gaussian shells          ...  128
 # of primitive gaussian functions       ...  248
 # of contracted shells                  ...   76
 # of contracted basis functions         ...  172
 Highest angular momentum                ...    3
 Maximum contraction depth               ...    6
 Integral package used                   ... LIBINT
 Integral threshhold            Thresh   ...  2.500e-11
 Primitive cut-off              TCut     ...  2.500e-12


------------------------------ INTEGRAL EVALUATION ----------------------------


 * One electron integrals 
 Pre-screening matrix                    ... done
 Shell pair data                         ... done (   0.001 sec)



           ************************************************************
           *        Program running with 8 parallel MPI-processes     *
           *              working on a common directory               *
           ************************************************************
-------------------------------------------------------------------------------
                                 ORCA SCF
-------------------------------------------------------------------------------

------------
SCF SETTINGS
------------
Hamiltonian:
 Density Functional     Method          .... DFT(GTOs)
 Exchange Functional    Exchange        .... WB97X-D3
 Correlation Functional Correlation     .... WB97X-D3
 Gradients option       PostSCFGGA      .... off
 Hybrid DFT is turned on
   Fraction HF Exchange ScalHFX         ....  0.195728
   Scaling of DF-GGA-X  ScalDFX         ....  0.000000
   Scaling of DF-GGA-C  ScalDFC         ....  1.000000
   Scaling of DF-LDA-C  ScalLDAC        ....  1.000000
   Perturbative correction              ....  0.000000
   Density functional embedding theory  .... OFF
 Long-range corrected/Screened/Range-Separated Hybrid DFT is turned on
   Amount of maximum screened exact exchange              ....  0.804272
   Range separation parameter mu (erf(mu*r12)/r12)        ....  0.250000


General Settings:
 Integral files         IntName         .... 14-80_DFT_A
 Hartree-Fock type      HFTyp           .... RHF
 Total Charge           Charge          ....    0
 Multiplicity           Mult            ....    1
 Number of Electrons    NEL             ....   18
 Basis Dimension        Dim             ....  172
 Nuclear Repulsion      ENuc            ....     39.7470366068 Eh

Convergence Acceleration:
 DIIS                   CNVDIIS         .... on
   Start iteration      DIISMaxIt       ....    12
   Startup error        DIISStart       ....  0.200000
   # of expansion vecs  DIISMaxEq       ....     5
   Bias factor          DIISBfac        ....   1.050
   Max. coefficient     DIISMaxC        ....  10.000
 Newton-Raphson         CNVNR           .... off
 SOSCF                  CNVSOSCF        .... on
   Start iteration      SOSCFMaxIt      ....   150
   Startup grad/error   SOSCFStart      ....  0.003300
 Level Shifting         CNVShift        .... on
   Level shift para.    LevelShift      ....    0.2500
   Turn off err/grad.   ShiftErr        ....    0.0010
 Zerner damping         CNVZerner       .... off
 Static damping         CNVDamp         .... on
   Fraction old density DampFac         ....    0.7000
   Max. Damping (<1)    DampMax         ....    0.9800
   Min. Damping (>=0)   DampMin         ....    0.0000
   Turn off err/grad.   DampErr         ....    0.1000
 Fernandez-Rico         CNVRico         .... off

SCF Procedure:
 Maximum # iterations   MaxIter         ....  1000
 SCF integral mode      SCFMode         .... Direct
   Integral package                     .... LIBINT
 Reset frequency        DirectResetFreq ....    20
 Integral Threshold     Thresh          ....  2.500e-11 Eh
 Primitive CutOff       TCut            ....  2.500e-12 Eh

Convergence Tolerance:
 Convergence Check Mode ConvCheckMode   .... Total+1el-Energy
 Convergence forced     ConvForced      .... 0
 Energy Change          TolE            ....  1.000e-08 Eh
 1-El. energy change                    ....  1.000e-05 Eh
 Orbital Gradient       TolG            ....  1.000e-05
 Orbital Rotation angle TolX            ....  1.000e-05
 DIIS Error             TolErr          ....  5.000e-07


Diagonalization of the overlap matrix:
Smallest eigenvalue                        ... 1.366e-03
Time for diagonalization                   ...    0.004 sec
Threshold for overlap eigenvalues          ... 1.000e-08
Number of eigenvalues below threshold      ... 0
Time for construction of square roots      ...    0.005 sec
Total time needed                          ...    0.009 sec

-------------------
DFT GRID GENERATION
-------------------

General Integration Accuracy     IntAcc      ...  4.340
Radial Grid Type                 RadialGrid  ... Gauss-Chebyshev
Angular Grid (max. acc.)         AngularGrid ... Lebedev-110
Angular grid pruning method      GridPruning ... 3 (G Style)
Weight generation scheme         WeightScheme... Becke
Basis function cutoff            BFCut       ...    1.0000e-11
Integration weight cutoff        WCut        ...    1.0000e-14
Grids for H and He will be reduced by one unit

# of grid points (after initial pruning)     ...  13096 (   0.0 sec)
# of grid points (after weights+screening)   ...  12551 (   0.0 sec)
nearest neighbour list constructed           ...    0.0 sec
Grid point re-assignment to atoms done       ...    0.0 sec
Grid point division into batches done        ...    0.0 sec
Reduced shell lists constructed in    0.0 sec

Total number of grid points                  ...    12551
Total number of batches                      ...      201
Average number of points per batch           ...       62
Average number of grid points per atom       ...     1046
Average number of shells per batch           ...    48.70 (64.08%)
Average number of basis functions per batch  ...   106.56 (61.95%)
Average number of large shells per batch     ...    39.30 (80.68%)
Average number of large basis fcns per batch ...    87.15 (81.79%)
Maximum spatial batch extension              ...  16.37, 16.83, 12.81 au
Average spatial batch extension              ...   0.36,  0.37,  0.32 au

Time for grid setup =    0.036 sec

------------------------------
INITIAL GUESS: MODEL POTENTIAL
------------------------------
Loading Hartree-Fock densities                     ... done
Calculating cut-offs                               ... done
Setting up the integral package                    ... done
Initializing the effective Hamiltonian             ... done
Starting the Coulomb interaction                   ... done (   0.0 sec)
Reading the grid                                   ... done
Mapping shells                                     ... done
Starting the XC term evaluation                    ... done (   0.0 sec)
  promolecular density results
     # of electrons  =     17.993696756
     EX              =    -14.411813332
     EC              =     -0.572587121
     EX+EC           =    -14.984400453
Transforming the Hamiltonian                       ... done (   0.0 sec)
Diagonalizing the Hamiltonian                      ... done (   0.0 sec)
Back transforming the eigenvectors                 ... done (   0.0 sec)
Now organizing SCF variables                       ... done
                      ------------------
                      INITIAL GUESS DONE (   0.1 sec)
                      ------------------
--------------
SCF ITERATIONS
--------------
ITER       Energy         Delta-E        Max-DP      RMS-DP      [F,P]     Damp
               ***  Starting incremental Fock matrix formation  ***
  0   -115.6483568933   0.000000000000 0.03683565  0.00074825  0.2524699 0.7000
  1   -115.6845878400  -0.036230946666 0.02186859  0.00053236  0.1254824 0.7000
                               ***Turning on DIIS***
  2   -115.7010817669  -0.016493926880 0.03342234  0.00095433  0.0480951 0.0000
  3   -115.7278996034  -0.026817836497 0.01807838  0.00035185  0.0616945 0.0000
  4   -115.7323600083  -0.004460404894 0.00396669  0.00006837  0.0063367 0.0000
                      *** Initiating the SOSCF procedure ***
                           *** Shutting down DIIS ***
                      *** Re-Reading the Fockian *** 
                      *** Removing any level shift *** 
ITER      Energy       Delta-E        Grad      Rot      Max-DP    RMS-DP
  5   -115.73245036  -0.0000903536  0.000423  0.000423  0.000702  0.000023
               *** Restarting incremental Fock matrix formation ***
  6   -115.73245844  -0.0000080815  0.000123  0.000161  0.000501  0.000014
  7   -115.73245920  -0.0000007587  0.000036  0.000080  0.000228  0.000006
  8   -115.73245926  -0.0000000602  0.000023  0.000019  0.000038  0.000001
  9   -115.73245927  -0.0000000092  0.000011  0.000008  0.000020  0.000001
                  ***Gradient check signals convergence***
              ***Rediagonalizing the Fockian in SOSCF/NRSCF***

               *****************************************************
               *                     SUCCESS                       *
               *           SCF CONVERGED AFTER  10 CYCLES          *
               *****************************************************

Setting up the final grid:

General Integration Accuracy     IntAcc      ...  4.670
Radial Grid Type                 RadialGrid  ... Gauss-Chebyshev
Angular Grid (max. acc.)         AngularGrid ... Lebedev-302
Angular grid pruning method      GridPruning ... 3 (G Style)
Weight generation scheme         WeightScheme... Becke
Basis function cutoff            BFCut       ...    1.0000e-11
Integration weight cutoff        WCut        ...    1.0000e-14
Grids for H and He will be reduced by one unit

# of grid points (after initial pruning)     ...  52000 (   0.0 sec)
# of grid points (after weights+screening)   ...  49441 (   0.0 sec)
nearest neighbour list constructed           ...    0.0 sec
Grid point re-assignment to atoms done       ...    0.0 sec
Grid point division into batches done        ...    0.2 sec
Reduced shell lists constructed in    0.2 sec

Total number of grid points                  ...    49441
Total number of batches                      ...      777
Average number of points per batch           ...       63
Average number of grid points per atom       ...     4120
Average number of shells per batch           ...    47.34 (62.29%)
Average number of basis functions per batch  ...   103.06 (59.92%)
Average number of large shells per batch     ...    37.55 (79.30%)
Average number of large basis fcns per batch ...    83.63 (81.14%)
Maximum spatial batch extension              ...  14.51, 13.72, 13.51 au
Average spatial batch extension              ...   0.22,  0.22,  0.22 au

Final grid set up in    0.3 sec
Final integration                            ... done (   0.1 sec)
Change in XC energy                          ...    -0.000179099
Integrated number of electrons               ...    18.000007943
Previous integrated no of electrons          ...    17.998256519

----------------
TOTAL SCF ENERGY
----------------

Total Energy       :         -115.73263837 Eh           -3149.24519 eV

Components:
Nuclear Repulsion  :           39.74703661 Eh            1081.57185 eV
Electronic Energy  :         -155.47967498 Eh           -4230.81705 eV
One Electron Energy:         -235.97465868 Eh           -6421.19691 eV
Two Electron Energy:           80.49498370 Eh            2190.37986 eV

Virial components:
Potential Energy   :         -230.84544634 Eh           -6281.62395 eV
Kinetic Energy     :          115.11280796 Eh            3132.37875 eV
Virial Ratio       :            2.00538455


DFT components:
N(Alpha)           :        9.000003971282 electrons
N(Beta)            :        9.000003971282 electrons
N(Total)           :       18.000007942564 electrons
E(XC)              :      -10.627471966488 Eh       
DFET-embed. en.    :        0.000000000000 Eh       

---------------
SCF CONVERGENCE
---------------

  Last Energy change         ...   -2.3444e-09  Tolerance :   1.0000e-08
  Last MAX-Density change    ...    4.2001e-06  Tolerance :   1.0000e-07
  Last RMS-Density change    ...    1.0379e-07  Tolerance :   5.0000e-09
  Last Orbital Gradient      ...    1.9887e-06  Tolerance :   1.0000e-05
  Last Orbital Rotation      ...    1.8084e-06  Tolerance :   1.0000e-05

             **** THE GBW FILE WAS UPDATED (14-80_DFT_A.gbw) ****
             **** DENSITY FILE WAS UPDATED (14-80_DFT_A.scfp.tmp) ****
             **** ENERGY FILE WAS UPDATED (14-80_DFT_A.en.tmp) ****
----------------
ORBITAL ENERGIES
----------------

  NO   OCC          E(Eh)            E(eV) 
   0   2.0000     -19.231657      -523.3200 
   1   2.0000     -10.318271      -280.7744 
   2   2.0000      -1.123583       -30.5742 
   3   2.0000      -0.795404       -21.6440 
   4   2.0000      -0.608330       -16.5535 
   5   2.0000      -0.537105       -14.6154 
   6   2.0000      -0.520672       -14.1682 
   7   2.0000      -0.426311       -11.6005 
   8   2.0000      -0.374689       -10.1958 
   9   0.0000       0.086234         2.3465 
  10   0.0000       0.114432         3.1139 
  11   0.0000       0.145028         3.9464 
  12   0.0000       0.171035         4.6541 
  13   0.0000       0.195328         5.3152 
  14   0.0000       0.200935         5.4677 
  15   0.0000       0.210043         5.7156 
  16   0.0000       0.223234         6.0745 
  17   0.0000       0.234681         6.3860 
  18   0.0000       0.273433         7.4405 
  19   0.0000       0.310130         8.4391 
  20   0.0000       0.328507         8.9391 
  21   0.0000       0.342042         9.3074 
  22   0.0000       0.361393         9.8340 
  23   0.0000       0.380554        10.3554 
  24   0.0000       0.410049        11.1580 
  25   0.0000       0.460664        12.5353 
  26   0.0000       0.474315        12.9068 
  27   0.0000       0.479536        13.0488 
  28   0.0000       0.514681        14.0052 
  29   0.0000       0.539083        14.6692 
  30   0.0000       0.549788        14.9605 
  31   0.0000       0.562339        15.3020 
  32   0.0000       0.568730        15.4759 
  33   0.0000       0.608948        16.5703 
  34   0.0000       0.630559        17.1584 
  35   0.0000       0.640140        17.4191 
  36   0.0000       0.695342        18.9212 
  37   0.0000       0.713621        19.4186 
  38   0.0000       0.765196        20.8220 
  39   0.0000       0.786895        21.4125 
  40   0.0000       0.793499        21.5922 
  41   0.0000       0.856454        23.3053 
  42   0.0000       0.867427        23.6039 
  43   0.0000       0.918824        25.0025 
  44   0.0000       1.008023        27.4297 
  45   0.0000       1.040983        28.3266 
  46   0.0000       1.076507        29.2932 
  47   0.0000       1.107871        30.1467 
  48   0.0000       1.155020        31.4297 
  49   0.0000       1.157881        31.5075 
  50   0.0000       1.191793        32.4303 
  51   0.0000       1.210422        32.9372 
  52   0.0000       1.232467        33.5371 
  53   0.0000       1.354720        36.8638 
  54   0.0000       1.384702        37.6796 
  55   0.0000       1.391098        37.8537 
  56   0.0000       1.453278        39.5457 
  57   0.0000       1.457919        39.6720 
  58   0.0000       1.537356        41.8336 
  59   0.0000       1.560450        42.4620 
  60   0.0000       1.607161        43.7331 
  61   0.0000       1.641208        44.6595 
  62   0.0000       1.653896        45.0048 
  63   0.0000       1.683553        45.8118 
  64   0.0000       1.718768        46.7701 
  65   0.0000       1.772503        48.2323 
  66   0.0000       1.819400        49.5084 
  67   0.0000       1.913062        52.0571 
  68   0.0000       1.941991        52.8442 
  69   0.0000       1.951383        53.0998 
  70   0.0000       1.992345        54.2145 
  71   0.0000       2.045204        55.6528 
  72   0.0000       2.087476        56.8031 
  73   0.0000       2.105508        57.2938 
  74   0.0000       2.165451        58.9249 
  75   0.0000       2.171319        59.0846 
  76   0.0000       2.220942        60.4349 
  77   0.0000       2.240896        60.9779 
  78   0.0000       2.286894        62.2296 
  79   0.0000       2.339188        63.6526 
  80   0.0000       2.351083        63.9762 
  81   0.0000       2.391460        65.0749 
  82   0.0000       2.427594        66.0582 
  83   0.0000       2.453205        66.7551 
  84   0.0000       2.478532        67.4443 
  85   0.0000       2.518439        68.5302 
  86   0.0000       2.556938        69.5778 
  87   0.0000       2.583127        70.2905 
  88   0.0000       2.603661        70.8492 
  89   0.0000       2.615507        71.1716 
  90   0.0000       2.648095        72.0583 
  91   0.0000       2.652484        72.1778 
  92   0.0000       2.825411        76.8833 
  93   0.0000       2.832071        77.0646 
  94   0.0000       2.856586        77.7316 
  95   0.0000       2.865368        77.9706 
  96   0.0000       2.899764        78.9066 
  97   0.0000       2.954503        80.3961 
  98   0.0000       3.050876        83.0186 
  99   0.0000       3.090223        84.0893 
 100   0.0000       3.124121        85.0116 
 101   0.0000       3.141384        85.4814 
 102   0.0000       3.152841        85.7932 
 103   0.0000       3.231329        87.9289 
 104   0.0000       3.237534        88.0978 
 105   0.0000       3.305475        89.9466 
 106   0.0000       3.357851        91.3718 
 107   0.0000       3.360099        91.4329 
 108   0.0000       3.472791        94.4994 
 109   0.0000       3.489026        94.9412 
 110   0.0000       3.537056        96.2482 
 111   0.0000       3.556388        96.7742 
 112   0.0000       3.620513        98.5192 
 113   0.0000       3.640965        99.0757 
 114   0.0000       3.678296       100.0915 
 115   0.0000       3.686126       100.3046 
 116   0.0000       3.776879       102.7741 
 117   0.0000       3.934786       107.0710 
 118   0.0000       4.048523       110.1659 
 119   0.0000       4.060822       110.5006 
 120   0.0000       4.222834       114.9092 
 121   0.0000       4.261064       115.9494 
 122   0.0000       4.284343       116.5829 
 123   0.0000       4.312627       117.3525 
 124   0.0000       4.378838       119.1542 
 125   0.0000       4.389904       119.4554 
 126   0.0000       4.516118       122.8898 
 127   0.0000       4.545645       123.6933 
 128   0.0000       4.564685       124.2114 
 129   0.0000       4.591482       124.9406 
 130   0.0000       4.617128       125.6384 
 131   0.0000       5.028520       136.8330 
 132   0.0000       5.050048       137.4188 
 133   0.0000       5.138285       139.8199 
 134   0.0000       5.321383       144.8022 
 135   0.0000       5.372361       146.1894 
 136   0.0000       5.376751       146.3088 
 137   0.0000       5.428597       147.7196 
 138   0.0000       5.562310       151.3582 
 139   0.0000       5.635389       153.3467 
 140   0.0000       5.789996       157.5538 
 141   0.0000       5.836984       158.8324 
 142   0.0000       5.871431       159.7698 
 143   0.0000       5.899564       160.5353 
 144   0.0000       6.062065       164.9572 
 145   0.0000       6.300187       171.4368 
 146   0.0000       6.502142       176.9323 
 147   0.0000       6.632151       180.4700 
 148   0.0000       6.736659       183.3138 
 149   0.0000       6.756513       183.8541 
 150   0.0000       6.801662       185.0826 
 151   0.0000       6.842303       186.1885 
 152   0.0000       7.037839       191.5093 
 153   0.0000       7.080993       192.6836 
 154   0.0000       7.184142       195.4905 
 155   0.0000       7.263193       197.6415 
 156   0.0000       7.461081       203.0263 
 157   0.0000       8.135340       221.3738 
 158   0.0000       8.882010       241.6918 
 159   0.0000       9.331968       253.9358 
 160   0.0000       9.536855       259.5110 
 161   0.0000       9.555714       260.0242 
 162   0.0000       9.795547       266.5504 
 163   0.0000       9.879732       268.8412 
 164   0.0000       9.923523       270.0328 
 165   0.0000      10.072373       274.0832 
 166   0.0000      11.176641       304.1319 
[...]
  82   0.0000       2.392057        65.0912 
  83   0.0000       2.426284        66.0225 
  84   0.0000       2.471585        67.2552 
  85   0.0000       2.503514        68.1241 
  86   0.0000       2.600565        70.7650 
  87   0.0000       2.608768        70.9882 
  88   0.0000       2.626280        71.4647 
  89   0.0000       2.672715        72.7283 
  90   0.0000       2.691112        73.2289 
  91   0.0000       2.747605        74.7661 
  92   0.0000       2.784202        75.7620 
  93   0.0000       2.813917        76.5706 
  94   0.0000       2.850708        77.5717 
  95   0.0000       2.877872        78.3109 
  96   0.0000       2.934147        79.8422 
  97   0.0000       2.992089        81.4189 
  98   0.0000       3.085487        83.9604 
  99   0.0000       3.092978        84.1642 
 100   0.0000       3.108344        84.5823 
 101   0.0000       3.130680        85.1901 
 102   0.0000       3.189399        86.7880 
 103   0.0000       3.219983        87.6202 
 104   0.0000       3.233702        87.9935 
 105   0.0000       3.311127        90.1003 
 106   0.0000       3.320049        90.3431 
 107   0.0000       3.365339        91.5755 
 108   0.0000       3.412931        92.8706 
 109   0.0000       3.471701        94.4698 
 110   0.0000       3.490947        94.9935 
 111   0.0000       3.583191        97.5036 
 112   0.0000       3.592059        97.7449 
 113   0.0000       3.643856        99.1544 
 114   0.0000       3.650512        99.3355 
 115   0.0000       3.698348       100.6372 
 116   0.0000       3.701811       100.7314 
 117   0.0000       4.034694       109.7896 
 118   0.0000       4.049061       110.1806 
 119   0.0000       4.114317       111.9563 
 120   0.0000       4.172850       113.5490 
 121   0.0000       4.263133       116.0057 
 122   0.0000       4.275729       116.3485 
 123   0.0000       4.314358       117.3996 
 124   0.0000       4.359040       118.6155 
 125   0.0000       4.373511       119.0093 
 126   0.0000       4.518185       122.9461 
 127   0.0000       4.557007       124.0025 
 128   0.0000       4.560943       124.1096 
 129   0.0000       4.593688       125.0006 
 130   0.0000       4.596676       125.0819 
 131   0.0000       4.919222       133.8588 
 132   0.0000       5.055541       137.5683 
 133   0.0000       5.096620       138.6861 
 134   0.0000       5.324030       144.8742 
 135   0.0000       5.365036       145.9901 
 136   0.0000       5.469175       148.8238 
 137   0.0000       5.474998       148.9823 
 138   0.0000       5.546619       150.9312 
 139   0.0000       5.724137       155.7617 
 140   0.0000       5.796587       157.7331 
 141   0.0000       5.837866       158.8564 
 142   0.0000       5.909599       160.8084 
 143   0.0000       5.959621       162.1695 
 144   0.0000       6.015254       163.6834 
 145   0.0000       6.354395       172.9119 
 146   0.0000       6.531467       177.7302 
 147   0.0000       6.558171       178.4569 
 148   0.0000       6.639808       180.6783 
 149   0.0000       6.755353       183.8225 
 150   0.0000       6.804265       185.1535 
 151   0.0000       6.852048       186.4537 
 152   0.0000       7.019787       191.0181 
 153   0.0000       7.106333       193.3732 
 154   0.0000       7.189639       195.6400 
 155   0.0000       7.211744       196.2415 
 156   0.0000       7.331535       199.5012 
 157   0.0000       7.971402       216.9129 
 158   0.0000       8.874089       241.4762 
 159   0.0000       9.292529       252.8626 
 160   0.0000       9.530540       259.3392 
 161   0.0000       9.565556       260.2920 
 162   0.0000       9.791276       266.4342 
 163   0.0000       9.836518       267.6653 
 164   0.0000       9.912578       269.7350 
 165   0.0000      10.087902       274.5058 
 166   0.0000      11.105367       302.1924 
 167   0.0000      19.100849       519.7605 
 168   0.0000      22.387497       609.1948 
 169   0.0000      43.647415      1187.7065 
 170   0.0000      65.826863      1791.2400 
 171   0.0000     126.416419      3439.9656 

                    ********************************
                    * MULLIKEN POPULATION ANALYSIS *
                    ********************************

-----------------------
MULLIKEN ATOMIC CHARGES
-----------------------
   0 C :   -0.000076
   1 O :    0.000029
   2 H :   -0.000042
   3 H :   -0.000054
   4 H :   -0.000000
   5 H :   -0.000090
   6 C :   -0.182255
   7 O :   -0.463304
   8 H :    0.318779
   9 H :    0.101738
  10 H :    0.121509
  11 H :    0.103767
Sum of atomic charges:    0.0000000

--------------------------------
MULLIKEN REDUCED ORBITAL CHARGES
--------------------------------
  0 C s       :    -0.000026  s :    -0.000026
      pz      :     0.000036  p :     0.000104
      px      :     0.000035
      py      :     0.000033
      dz2     :    -0.000000  d :    -0.000001
      dxz     :    -0.000000
      dyz     :    -0.000000
      dx2y2   :    -0.000001
      dxy     :     0.000000
      f0      :    -0.000000  f :    -0.000000
      f+1     :    -0.000000
      f-1     :    -0.000000
      f+2     :     0.000000
      f-2     :    -0.000000
      f+3     :     0.000000
      f-3     :    -0.000000
  1 O s       :    -0.000027  s :    -0.000027
      pz      :     0.000000  p :    -0.000003
      px      :     0.000005
      py      :    -0.000008
      dz2     :     0.000000  d :     0.000000
      dxz     :    -0.000000
      dyz     :    -0.000000
      dx2y2   :     0.000000
      dxy     :     0.000000
      f0      :    -0.000000  f :    -0.000000
      f+1     :    -0.000000
      f-1     :    -0.000000
      f+2     :    -0.000000
      f-2     :    -0.000000
      f+3     :    -0.000000
      f-3     :     0.000000
  2 H s       :     0.000042  s :     0.000042
      pz      :     0.000000  p :     0.000000
      px      :     0.000000
      py      :     0.000000
  3 H s       :     0.000055  s :     0.000055
      pz      :    -0.000000  p :    -0.000001
      px      :     0.000000
      py      :    -0.000001
  4 H s       :     0.000000  s :     0.000000
      pz      :     0.000000  p :     0.000000
      px      :     0.000000
      py      :    -0.000000
  5 H s       :     0.000090  s :     0.000090
      pz      :    -0.000000  p :    -0.000000
      px      :    -0.000000
      py      :     0.000000
  6 C s       :     3.218519  s :     3.218519
      pz      :     0.764037  p :     2.856296
      px      :     1.055709
      py      :     1.036549
      dz2     :     0.027315  d :     0.099881
      dxz     :     0.025673
      dyz     :     0.023560
      dx2y2   :     0.008897
      dxy     :     0.014436
      f0      :     0.002347  f :     0.007560
      f+1     :     0.001206
      f-1     :     0.001652
      f+2     :     0.000626
      f-2     :     0.001104
      f+3     :     0.000282
      f-3     :     0.000343
  7 O s       :     3.797720  s :     3.797720
      pz      :     1.486127  p :     4.633025
      px      :     1.638636
      py      :     1.508262
      dz2     :     0.010740  d :     0.030895
      dxz     :     0.004943
      dyz     :     0.005148
      dx2y2   :     0.001576
      dxy     :     0.008487
      f0      :     0.000197  f :     0.001665
      f+1     :     0.000198
      f-1     :     0.000450
      f+2     :     0.000137
      f-2     :     0.000128
      f+3     :     0.000294
      f-3     :     0.000262
  8 H s       :     0.633251  s :     0.633251
      pz      :     0.012321  p :     0.047970
      px      :     0.017728
      py      :     0.017921
  9 H s       :     0.879001  s :     0.879001
      pz      :     0.003028  p :     0.019261
      px      :     0.011065
      py      :     0.005168
 10 H s       :     0.858997  s :     0.858997
      pz      :     0.003832  p :     0.019493
      px      :     0.007036
      py      :     0.008625
 11 H s       :     0.875357  s :     0.875357
      pz      :     0.008300  p :     0.020876
      px      :     0.005080
      py      :     0.007495


                     *******************************
                     * LOEWDIN POPULATION ANALYSIS *
                     *******************************

----------------------
LOEWDIN ATOMIC CHARGES
----------------------
   0 C :   -0.001662
   1 O :   -0.000132
   2 H :   -0.000129
   3 H :   -0.000984
   4 H :   -0.000015
   5 H :   -0.000047
   6 C :   -0.408421
   7 O :   -0.064281
   8 H :    0.171059
   9 H :    0.096046
  10 H :    0.118754
  11 H :    0.089812

-------------------------------
LOEWDIN REDUCED ORBITAL CHARGES
-------------------------------
  0 C s       :     0.000186  s :     0.000186
      pz      :     0.000242  p :     0.001449
      px      :     0.000064
      py      :     0.001143
      dz2     :     0.000002  d :     0.000027
      dxz     :     0.000001
      dyz     :     0.000006
      dx2y2   :     0.000013
      dxy     :     0.000004
      f0      :     0.000000  f :     0.000000
      f+1     :     0.000000
      f-1     :     0.000000
      f+2     :     0.000000
      f-2     :     0.000000
      f+3     :     0.000000
      f-3     :     0.000000
  1 O s       :     0.000005  s :     0.000005
      pz      :     0.000001  p :     0.000126
      px      :     0.000007
      py      :     0.000118
      dz2     :     0.000000  d :     0.000001
      dxz     :     0.000000
      dyz     :     0.000000
      dx2y2   :     0.000001
      dxy     :     0.000000
      f0      :     0.000000  f :     0.000000
      f+1     :     0.000000
      f-1     :     0.000000
      f+2     :     0.000000
      f-2     :     0.000000
      f+3     :     0.000000
      f-3     :     0.000000
  2 H s       :     0.000129  s :     0.000129
      pz      :     0.000000  p :     0.000000
      px      :     0.000000
      py      :     0.000000
  3 H s       :     0.000980  s :     0.000980
      pz      :     0.000001  p :     0.000004
      px      :     0.000000
      py      :     0.000003
  4 H s       :     0.000015  s :     0.000015
      pz      :     0.000000  p :     0.000001
      px      :     0.000000
      py      :     0.000001
  5 H s       :     0.000046  s :     0.000046
      pz      :     0.000000  p :     0.000001
      px      :     0.000000
      py      :     0.000000
  6 C s       :     2.858535  s :     2.858535
      pz      :     0.893381  p :     3.069149
      px      :     1.094125
      py      :     1.081643
      dz2     :     0.131348  d :     0.423915
      dxz     :     0.081342
      dyz     :     0.116155
      dx2y2   :     0.029243
      dxy     :     0.065826
      f0      :     0.013779  f :     0.056823
      f+1     :     0.010582
      f-1     :     0.011435
      f+2     :     0.008787
      f-2     :     0.008220
      f+3     :     0.001913
      f-3     :     0.002107
  7 O s       :     3.363724  s :     3.363724
      pz      :     1.532266  p :     4.623760
      px      :     1.606799
      py      :     1.484695
      dz2     :     0.025171  d :     0.071996
      dxz     :     0.011886
      dyz     :     0.014424
      dx2y2   :     0.003132
      dxy     :     0.017384
      f0      :     0.000974  f :     0.004801
      f+1     :     0.000908
      f-1     :     0.001083
      f+2     :     0.000427
      f-2     :     0.000429
      f+3     :     0.000496
      f-3     :     0.000482
  8 H s       :     0.669094  s :     0.669094
      pz      :     0.034361  p :     0.159847
      px      :     0.065253
      py      :     0.060234
  9 H s       :     0.844940  s :     0.844940
      pz      :     0.009602  p :     0.059015
      px      :     0.033187
      py      :     0.016226
 10 H s       :     0.826226  s :     0.826226
      pz      :     0.010430  p :     0.055020
      px      :     0.020664
      py      :     0.023926
 11 H s       :     0.845434  s :     0.845434
      pz      :     0.025136  p :     0.064754
      px      :     0.016005
      py      :     0.023613


                      *****************************
                      * MAYER POPULATION ANALYSIS *
                      *****************************

  NA   - Mulliken gross atomic population
  ZA   - Total nuclear charge
  QA   - Mulliken gross atomic charge
  VA   - Mayer's total valence
  BVA  - Mayer's bonded valence
  FA   - Mayer's free valence

  ATOM       NA         ZA         QA         VA         BVA        FA
  0 C      0.0001     0.0000    -0.0001     0.0002     0.0002     0.0000
  1 O     -0.0000     0.0000     0.0000    -0.0001    -0.0001    -0.0000
  2 H      0.0000     0.0000    -0.0000     0.0001     0.0001    -0.0000
  3 H      0.0001     0.0000    -0.0001     0.0001     0.0001     0.0000
  4 H      0.0000     0.0000    -0.0000     0.0000     0.0000     0.0000
  5 H      0.0001     0.0000    -0.0001     0.0002     0.0002    -0.0000
  6 C      6.1823     6.0000    -0.1823     3.9406     3.9406     0.0000
  7 O      8.4633     8.0000    -0.4633     1.8974     1.8974     0.0000
  8 H      0.6812     1.0000     0.3188     0.9090     0.9090     0.0000
  9 H      0.8983     1.0000     0.1017     0.9593     0.9593    -0.0000
 10 H      0.8785     1.0000     0.1215     0.9591     0.9591    -0.0000
 11 H      0.8962     1.0000     0.1038     0.9520     0.9520     0.0000

  Mayer bond orders larger than 0.1
B(  6-C ,  7-O ) :   1.0037 B(  6-C ,  9-H ) :   0.9769 B(  6-C , 10-H ) :   0.9697 
B(  6-C , 11-H ) :   0.9794 B(  7-O ,  8-H ) :   0.8971 

-------
TIMINGS
-------

Total SCF time: 0 days 0 hours 0 min 18 sec 

Total time                  ....      18.094 sec
Sum of individual times     ....      17.720 sec  ( 97.9%)

Fock matrix formation       ....      17.085 sec  ( 94.4%)
  XC integration            ....       9.142 sec  ( 53.5% of F)
    Basis function eval.    ....       0.055 sec  (  0.6% of XC)
    Density eval.           ....       0.114 sec  (  1.3% of XC)
    XC-Functional eval.     ....       0.159 sec  (  1.7% of XC)
    XC-Potential eval.      ....       0.053 sec  (  0.6% of XC)
Diagonalization             ....       0.084 sec  (  0.5%)
Density matrix formation    ....       0.007 sec  (  0.0%)
Population analysis         ....       0.019 sec  (  0.1%)
Initial guess               ....       0.100 sec  (  0.6%)
Orbital Transformation      ....       0.000 sec  (  0.0%)
Orbital Orthonormalization  ....       0.000 sec  (  0.0%)
DIIS solution               ....       0.058 sec  (  0.3%)
SOSCF solution              ....       0.080 sec  (  0.4%)
Grid generation             ....       0.287 sec  (  1.6%)


-------------------------------------------------------------------------------
                          DFT DISPERSION CORRECTION                            
                                                                               
                              DFTD3 V3.1  Rev 1                                
                              USING zero damping                               
-------------------------------------------------------------------------------
The omegaB97X-D3 functional is recognized. Fit by Chai et al.
Active option DFTDOPT                   ...         3   

molecular C6(AA) [au] = 208.735645 


            DFT-D V3
 parameters
 s6 scaling factor         :     1.0000 
 rs6 scaling factor        :     1.2810 
 s8 scaling factor         :     1.0000 
 rs8 scaling factor        :     1.0940 
 Damping factor alpha6     :    14.0000 
 Damping factor alpha8     :    16.0000 
 ad hoc parameters k1-k3   :    16.0000     1.3333    -4.0000 

 Edisp/kcal,au: -0.152705250749  -0.000243351281 
 E6   /kcal   :  -0.032247125 
 E8   /kcal   :  -0.120458126 
 % E8         :  78.882766027 

-------------------------   ----------------
Dispersion correction           -0.000243351
-------------------------   ----------------


-------------------------   --------------------
FINAL SINGLE POINT ENERGY      -115.728627839697
-------------------------   --------------------


                            ***************************************
                            *     ORCA property calculations      *
                            ***************************************

                                    ---------------------
                                    Active property flags
                                    ---------------------
   (+) Dipole Moment


------------------------------------------------------------------------------
                       ORCA ELECTRIC PROPERTIES CALCULATION
------------------------------------------------------------------------------

Dipole Moment Calculation                       ... on
Quadrupole Moment Calculation                   ... off
Polarizability Calculation                      ... off
GBWName                                         ... 14-80_DFT_B.gbw
Electron density file                           ... 14-80_DFT_B.scfp.tmp
The origin for moment calculation is the CENTER OF MASS  = (-11.866260,  8.430853 -0.029435)

-------------
DIPOLE MOMENT
-------------
                                X             Y             Z
Electronic contribution:      0.37519      -0.71053       1.85471
Nuclear contribution   :     -0.85046       0.49924      -2.33887
                        -----------------------------------------
Total Dipole Moment    :     -0.47526      -0.21129      -0.48416
                        -----------------------------------------
Magnitude (a.u.)       :      0.71058
Magnitude (Debye)      :      1.80616



--------------------
Rotational spectrum 
--------------------
 
Rotational constants in cm-1:     4.445145     0.826954     0.794709 
Rotational constants in MHz : 133262.099640 24791.454814 23824.763936 

 Dipole components along the rotational axes: 
x,y,z [a.u.] :    -0.362172     0.593953     0.144851 
x,y,z [Debye]:    -0.920568     1.509709     0.368182 

 
------------------------------------------------------------------------------
                      ORCA CHELPG CHARGES GENERATION
------------------------------------------------------------------------------

GBW file                           ... 14-80_DFT_B.gbw

Reading the GBW file               ... done

Grid spacing                       ...     0.300000
Point Cut-Off                      ...     2.800000
Van-der-Waals Radii                ...        COSMO
Total charge                       ...            0


Number of points X direction       ...           30
Number of points Y direction       ...           39
Number of points Z direction       ...           29
Maximum number of possible points  ...        33930
Final number of points             ...         5957


CHELPG Charges            
--------------------------------
  0   C   :       0.004421
  1   O   :      -0.027767
  2   H   :       0.022295
  3   H   :      -0.002443
  4   H   :      -0.015018
  5   H   :       0.009508
  6   C   :       0.133766
  7   O   :      -0.607955
  8   H   :       0.409000
  9   H   :       0.001308
 10   H   :       0.071834
 11   H   :       0.001050
--------------------------------
Total charge:    -0.000000
--------------------------------

CHELPG charges calculated...

Timings for individual parts in CHELPG calculation:
Grid generation                 ...        0.001 sec (=   0.000 min)
Potential calculation           ...        1.062 sec (=   0.018 min)
Fit to the potential            ...        0.002 sec (=   0.000 min)
------------------------------------------------------------------------------


Timings for individual modules:

Sum of individual times         ...       20.126 sec (=   0.335 min)
GTO integral calculation        ...        0.546 sec (=   0.009 min)   2.7 %
SCF iterations                  ...       18.489 sec (=   0.308 min)  91.9 %
CHELPG charge generation        ...        1.091 sec (=   0.018 min)   5.4 %



                             ****ORCA TERMINATED NORMALLY****
TOTAL RUN TIME: 0 days 0 hours 0 minutes 55 seconds 57 msec
