
                                 *****************
                                 * O   R   C   A *
                                 *****************

           --- An Ab Initio, DFT and Semiempirical electronic structure package ---

                  #######################################################
                  #                        -***-                        #
                  #          Department of theory and spectroscopy      #
                  #               Directorship: Frank Neese             #
                  #        Max Planck Institute fuer Kohlenforschung    #
                  #                Kaiser Wilhelm Platz 1               #
                  #                 D-45470 Muelheim/Ruhr               #
                  #                      Germany                        #
                  #                                                     #
                  #                  All rights reserved                #
                  #                        -***-                        #
                  #######################################################


                         Program Version 4.1.2  - RELEASE  -


 With contributions from (in alphabetic order):
   Daniel Aravena         : Magnetic Properties
   Michael Atanasov       : Ab Initio Ligand Field Theory
   Alexander A. Auer      : GIAO ZORA
   Ute Becker             : Parallelization
   Giovanni Bistoni       : ED, Open-shell LED
   Martin Brehm           : Molecular dynamics
   Dmytro Bykov           : SCF Hessian
   Vijay G. Chilkuri      : MRCI spin determinant printing
   Dipayan Datta          : RHF DLPNO-CCSD density
   Achintya Kumar Dutta   : EOM-CC, STEOM-CC
   Dmitry Ganyushin       : Spin-Orbit,Spin-Spin,Magnetic field MRCI
   Miquel Garcia          : C-PCM Hessian
   Yang Guo               : DLPNO-NEVPT2, CIM, IAO-localization
   Andreas Hansen         : Spin unrestricted coupled pair/coupled cluster methods
   Benjamin Helmich-Paris : CASSCF linear response (MC-RPA)
   Lee Huntington         : MR-EOM, pCC
   Robert Izsak           : Overlap fitted RIJCOSX, COSX-SCS-MP3, EOM
   Christian Kollmar      : KDIIS, OOCD, Brueckner-CCSD(T), CCSD density
   Simone Kossmann        : Meta GGA functionals, TD-DFT gradient, OOMP2, MP2 Hessian
   Martin Krupicka        : AUTO-CI
   Lucas Lang             : DCDCAS
   Dagmar Lenk            : GEPOL surface, SMD
   Dimitrios Liakos       : Extrapolation schemes; parallel MDCI
   Dimitrios Manganas     : ROCIS; embedding schemes
   Dimitrios Pantazis     : SARC Basis sets
   Taras Petrenko         : DFT Hessian,TD-DFT gradient, ASA, ECA, R-Raman, ABS, FL, XAS/XES, NRVS
   Peter Pinski           : DLPNO-MP2, DLPNO-MP2 Gradient
   Christoph Reimann      : Effective Core Potentials
   Marius Retegan         : Local ZFS, SOC
   Christoph Riplinger    : Optimizer, TS searches, QM/MM, DLPNO-CCSD(T), (RO)-DLPNO pert. Triples
   Tobias Risthaus        : Range-separated hybrids, TD-DFT gradient, RPA, STAB
   Michael Roemelt        : Restricted open shell CIS
   Masaaki Saitow         : Open-shell DLPNO
   Barbara Sandhoefer     : DKH picture change effects
   Avijit Sen             : IP-ROCIS
   Kantharuban Sivalingam : CASSCF convergence, NEVPT2, FIC-MRCI
   Bernardo de Souza      : ESD, SOC TD-DFT
   Georgi Stoychev        : AutoAux, RI-MP2 NMR
   Willem Van den Heuvel  : Paramagnetic NMR
   Boris Wezisla          : Elementary symmetry handling
   Frank Wennmohs         : Technical directorship


 We gratefully acknowledge several colleagues who have allowed us to
 interface, adapt or use parts of their codes:
   Stefan Grimme, W. Hujo, H. Kruse,             : VdW corrections, initial TS optimization,
                  C. Bannwarth                     DFT functionals, gCP, sTDA/sTD-DF
   Ed Valeev                                     : LibInt (2-el integral package), F12 methods
   Garnet Chan, S. Sharma, J. Yang, R. Olivares  : DMRG
   Ulf Ekstrom                                   : XCFun DFT Library
   Mihaly Kallay                                 : mrcc  (arbitrary order and MRCC methods)
   Andreas Klamt, Michael Diedenhofen            : otool_cosmo (COSMO solvation model)
   Jiri Pittner, Ondrej Demel                    : Mk-CCSD
   Frank Weinhold                                : gennbo (NPA and NBO analysis)
   Christopher J. Cramer and Donald G. Truhlar   : smd solvation model
   Lars Goerigk                                  : TD-DFT with DH, B97 family of functionals
   V. Asgeirsson, H. Jonsson                     : NEB implementation
   FAccTs GmbH                                   : IRC, NEB, NEB-TS, Multilevel


 Your calculation uses the libint2 library for the computation of 2-el integrals
 For citations please refer to: http://libint.valeyev.net

 This ORCA versions uses:
   CBLAS   interface :  Fast vector & matrix operations
   LAPACKE interface :  Fast linear algebra routines
   SCALAPACK package :  Parallel linear algebra routines


Your calculation utilizes the atom-pairwise dispersion correction
with the zero-damping scheme (D30)
Cite in your paper:
S.Grimme, J.Antony, S.Ehrlich and H.Krieg, J.Chem.Phys., 132, (2010), 154104 
   

XCFun DFT library Copyright 2009-2010 Ulf Ekstrom and contributors.
See http://admol.org/xcfun for more information. This is free soft-
ware; see the source code for copying conditions. There is ABSOLUTELY
NO WARRANTY; not even for MERCHANTABILITY or FITNESS FOR A PARTICULAR
PURPOSE. For details see the documentation. Scientific users of this 
library should cite U. Ekstrom, L. Visscher, R. Bast, A. J. Thorvald-
sen and K. Ruud; J.Chem.Theor.Comp. 2010, DOI: 10.1021/ct100117s
XCFun Version 0.99 
----- Orbital basis set information -----
Your calculation utilizes the basis: def2-TZVP
   F. Weigend and R. Ahlrichs, Phys. Chem. Chem. Phys. 7, 3297 (2005).

================================================================================
                                        WARNINGS
                       Please study these warnings very carefully!
================================================================================


INFO   : the flag for use of LIBINT has been found!

Your calculation utilizes the atom-pairwise dispersion correction
with the zero-damping scheme (D30)
Cite in your paper:
S.Grimme, J.Antony, S.Ehrlich and H.Krieg, J.Chem.Phys., 132, (2010), 154104 
   

XCFun DFT library Copyright 2009-2010 Ulf Ekstrom and contributors.
See http://admol.org/xcfun for more information. This is free soft-
ware; see the source code for copying conditions. There is ABSOLUTELY
NO WARRANTY; not even for MERCHANTABILITY or FITNESS FOR A PARTICULAR
PURPOSE. For details see the documentation. Scientific users of this 
library should cite U. Ekstrom, L. Visscher, R. Bast, A. J. Thorvald-
sen and K. Ruud; J.Chem.Theor.Comp. 2010, DOI: 10.1021/ct100117s
XCFun Version 0.99 
----- Orbital basis set information -----
Your calculation utilizes the basis: def2-TZVP
   F. Weigend and R. Ahlrichs, Phys. Chem. Chem. Phys. 7, 3297 (2005).

================================================================================
                                        WARNINGS
                       Please study these warnings very carefully!
================================================================================


WARNING: MOInp is set but Guess=PModel. MOInp will be ignored!
         To read the initial guess from a file you must also specify
         'MORead' in the simple input or 'Guess MORead' in the %scf block


INFO   : the flag for use of LIBINT has been found!

Your calculation utilizes the atom-pairwise dispersion correction
with the zero-damping scheme (D30)
Cite in your paper:
S.Grimme, J.Antony, S.Ehrlich and H.Krieg, J.Chem.Phys., 132, (2010), 154104 
   

XCFun DFT library Copyright 2009-2010 Ulf Ekstrom and contributors.
See http://admol.org/xcfun for more information. This is free soft-
ware; see the source code for copying conditions. There is ABSOLUTELY
NO WARRANTY; not even for MERCHANTABILITY or FITNESS FOR A PARTICULAR
PURPOSE. For details see the documentation. Scientific users of this 
library should cite U. Ekstrom, L. Visscher, R. Bast, A. J. Thorvald-
sen and K. Ruud; J.Chem.Theor.Comp. 2010, DOI: 10.1021/ct100117s
XCFun Version 0.99 
----- Orbital basis set information -----
Your calculation utilizes the basis: def2-TZVP
   F. Weigend and R. Ahlrichs, Phys. Chem. Chem. Phys. 7, 3297 (2005).

================================================================================
                                        WARNINGS
                       Please study these warnings very carefully!
================================================================================


WARNING: MOInp is set but Guess=PModel. MOInp will be ignored!
         To read the initial guess from a file you must also specify
         'MORead' in the simple input or 'Guess MORead' in the %scf block


INFO   : the flag for use of LIBINT has been found!

================================================================================
                                       INPUT FILE
================================================================================
NAME = 14-202.in
|  1> #Run DFT-D3 single point of the dimer
|  2> ! wB97X-D3 def2-TZVP TIGHTSCF CHELPG PMODEL PAL8
|  3> 
|  4> %base "14-202_DFT_AB"
|  5> 
|  6> %scf
|  7> MaxIter 1000
|  8> end
|  9> 
| 10> * xyz 0 1
| 11>   C                      4.066986             -8.339112            6.248650            
| 12>   O                      4.629297             -9.524087            5.705682            
| 13>   H                      4.602639             -10.203734           6.382518            
| 14>   H                      4.664604             -7.882240            6.979995            
| 15>   H                      3.936144             -7.518399            5.467593            
| 16>   H                      3.111295             -8.558080            6.600876            
| 17>   C                      7.029929             -10.246656           2.441205            
| 18>   O                      6.272776             -10.696753           3.566318            
| 19>   H                      5.828643             -9.955167            4.014150            
| 20>   H                      7.734906             -11.057839           2.095183            
| 21>   H                      6.360596             -10.006411           1.596224            
| 22>   H                      7.665021             -9.402436            2.631238            
| 23> *
| 24> 
| 25> #Run DFT-D3 single point of the molecule with dimer basis set
| 26> $new_job
| 27> %base "14-202_DFT_A"
| 28> ! wB97X-D3 def2-TZVP TIGHTSCF CHELPG PMODEL
| 29> 
| 30> %scf
| 31> MaxIter 1000
| 32> end
| 33> 
| 34> * xyz 0 1
| 35>   C                      4.066986             -8.339112            6.248650            
| 36>   O                      4.629297             -9.524087            5.705682            
| 37>   H                      4.602639             -10.203734           6.382518            
| 38>   H                      4.664604             -7.882240            6.979995            
| 39>   H                      3.936144             -7.518399            5.467593            
| 40>   H                      3.111295             -8.558080            6.600876            
| 41>   C                    : 7.029929             -10.246656           2.441205            
| 42>   O                    : 6.272776             -10.696753           3.566318            
| 43>   H                    : 5.828643             -9.955167            4.014150            
| 44>   H                    : 7.734906             -11.057839           2.095183            
| 45>   H                    : 6.360596             -10.006411           1.596224            
| 46>   H                    : 7.665021             -9.402436            2.631238            
| 47> *
| 48> 
| 49> #Run DFT-D3 single point of the particle with dimer basis set
| 50> $new_job
| 51> %base "14-202_DFT_B"
| 52> ! wB97X-D3 def2-TZVP TIGHTSCF CHELPG PMODEL
| 53> 
| 54> %scf
| 55> MaxIter 1000
| 56> end
| 57> 
| 58> * xyz 0 1
| 59>   C                    : 4.066986             -8.339112            6.248650            
| 60>   O                    : 4.629297             -9.524087            5.705682            
| 61>   H                    : 4.602639             -10.203734           6.382518            
| 62>   H                    : 4.664604             -7.882240            6.979995            
| 63>   H                    : 3.936144             -7.518399            5.467593            
| 64>   H                    : 3.111295             -8.558080            6.600876            
| 65>   C                      7.029929             -10.246656           2.441205            
| 66>   O                      6.272776             -10.696753           3.566318            
| 67>   H                      5.828643             -9.955167            4.014150            
| 68>   H                      7.734906             -11.057839           2.095183            
| 69>   H                      6.360596             -10.006411           1.596224            
| 70>   H                      7.665021             -9.402436            2.631238            
| 71> *
| 72> 
| 73>                          ****END OF INPUT****
================================================================================


                 $$$$$$$$$$$$$$$$$$$$$$$$$$$$$$$$$$$$$$$$$$$$$$ 
                 $ THERE ARE  3 JOBS TO BE PROCESSED THIS RUN $
                 $$$$$$$$$$$$$$$$$$$$$$$$$$$$$$$$$$$$$$$$$$$$$$ 




                 $$$$$$$$$$$$$$$$  JOB NUMBER  1 $$$$$$$$$$$$$$


                       ****************************
                       * Single Point Calculation *
                       ****************************

---------------------------------
CARTESIAN COORDINATES (ANGSTROEM)
---------------------------------
  C      4.066986   -8.339112    6.248650
  O      4.629297   -9.524087    5.705682
  H      4.602639  -10.203734    6.382518
  H      4.664604   -7.882240    6.979995
  H      3.936144   -7.518399    5.467593
  H      3.111295   -8.558080    6.600876
  C      7.029929  -10.246656    2.441205
  O      6.272776  -10.696753    3.566318
  H      5.828643   -9.955167    4.014150
  H      7.734906  -11.057839    2.095183
  H      6.360596  -10.006411    1.596224
  H      7.665021   -9.402436    2.631238

----------------------------
CARTESIAN COORDINATES (A.U.)
----------------------------
  NO LB      ZA    FRAG     MASS         X           Y           Z
   0 C     6.0000    0    12.011    7.685490  -15.758638   11.808237
   1 O     8.0000    0    15.999    8.748104  -17.997916   10.782176
   2 H     1.0000    0     1.008    8.697727  -19.282263   12.061211
   3 H     1.0000    0     1.008    8.814824  -14.895275   13.190279
   4 H     1.0000    0     1.008    7.438234  -14.207715   10.332253
   5 H     1.0000    0     1.008    5.879495  -16.172427   12.473848
   6 C     6.0000    0    12.011   13.284641  -19.363374    4.613209
   7 O     8.0000    0    15.999   11.853829  -20.213934    6.739364
   8 H     1.0000    0     1.008   11.014539  -18.812539    7.585644
   9 H     1.0000    0     1.008   14.616854  -20.896287    3.959322
  10 H     1.0000    0     1.008   12.019784  -18.909376    3.016426
  11 H     1.0000    0     1.008   14.484791  -17.768029    4.972319

--------------------------------
INTERNAL COORDINATES (ANGSTROEM)
--------------------------------
 C      0   0   0     0.000000000000     0.00000000     0.00000000
 O      1   0   0     1.419568124596     0.00000000     0.00000000
 H      2   1   0     0.959550761799   108.08615618     0.00000000
 H      1   2   3     1.049163861050   113.85919713    70.30359504
 H      1   2   3     1.140499668822   112.59343278   187.41328728
 H      1   2   3     1.041803929528   108.49615373   304.55506989
 C      2   1   3     4.116060014469   132.91557938   197.84359557
 O      7   2   1     1.428897210294    28.56879454   182.50772561
 H      8   7   2     0.973528334107   111.34616121     2.57828483
 H      7   2   1     1.129044575959   137.16927507   159.03764921
 H      7   2   1     1.104408083670   102.42399491   292.65688113
 H      7   2   1     1.073387999725    93.81884507    42.90793781

---------------------------
INTERNAL COORDINATES (A.U.)
---------------------------
 C      0   0   0     0.000000000000     0.00000000     0.00000000
 O      1   0   0     2.682594983931     0.00000000     0.00000000
 H      2   1   0     1.813288151396   108.08615618     0.00000000
 H      1   2   3     1.982632366992   113.85919713    70.30359504
 H      1   2   3     2.155232029901   112.59343278   187.41328728
 H      1   2   3     1.968724112052   108.49615373   304.55506989
 C      2   1   3     7.778226178131   132.91557938   197.84359557
 O      7   2   1     2.700224400980    28.56879454   182.50772561
 H      8   7   2     1.839701935075   111.34616121     2.57828483
 H      7   2   1     2.133585041551   137.16927507   159.03764921
 H      7   2   1     2.087028818225   102.42399491   292.65688113
 H      7   2   1     2.028409354917    93.81884507    42.90793781

---------------------
BASIS SET INFORMATION
---------------------
There are 3 groups of distinct atoms

 Group   1 Type C   : 11s6p2d1f contracted to 5s3p2d1f pattern {62111/411/11/1}
 Group   2 Type O   : 11s6p2d1f contracted to 5s3p2d1f pattern {62111/411/11/1}
 Group   3 Type H   : 5s1p contracted to 3s1p pattern {311/1}

Atom   0C    basis set group =>   1
Atom   1O    basis set group =>   2
Atom   2H    basis set group =>   3
Atom   3H    basis set group =>   3
Atom   4H    basis set group =>   3
Atom   5H    basis set group =>   3
Atom   6C    basis set group =>   1
Atom   7O    basis set group =>   2
Atom   8H    basis set group =>   3
Atom   9H    basis set group =>   3
Atom  10H    basis set group =>   3
Atom  11H    basis set group =>   3


           ************************************************************
           *        Program running with 8 parallel MPI-processes     *
           *              working on a common directory               *
           ************************************************************
------------------------------------------------------------------------------
                           ORCA GTO INTEGRAL CALCULATION
------------------------------------------------------------------------------

                         BASIS SET STATISTICS AND STARTUP INFO

 # of primitive gaussian shells          ...  128
 # of primitive gaussian functions       ...  248
 # of contracted shells                  ...   76
 # of contracted basis functions         ...  172
 Highest angular momentum                ...    3
 Maximum contraction depth               ...    6
 Integral package used                   ... LIBINT
 Integral threshhold            Thresh   ...  2.500e-11
 Primitive cut-off              TCut     ...  2.500e-12


------------------------------ INTEGRAL EVALUATION ----------------------------


 * One electron integrals 
 Pre-screening matrix                    ... done
 Shell pair data                         ... done (   0.001 sec)



           ************************************************************
           *        Program running with 8 parallel MPI-processes     *
           *              working on a common directory               *
           ************************************************************
-------------------------------------------------------------------------------
                                 ORCA SCF
-------------------------------------------------------------------------------

------------
SCF SETTINGS
------------
Hamiltonian:
 Density Functional     Method          .... DFT(GTOs)
 Exchange Functional    Exchange        .... WB97X-D3
 Correlation Functional Correlation     .... WB97X-D3
 Gradients option       PostSCFGGA      .... off
 Hybrid DFT is turned on
   Fraction HF Exchange ScalHFX         ....  0.195728
   Scaling of DF-GGA-X  ScalDFX         ....  0.000000
   Scaling of DF-GGA-C  ScalDFC         ....  1.000000
   Scaling of DF-LDA-C  ScalLDAC        ....  1.000000
   Perturbative correction              ....  0.000000
   Density functional embedding theory  .... OFF
 Long-range corrected/Screened/Range-Separated Hybrid DFT is turned on
   Amount of maximum screened exact exchange              ....  0.804272
   Range separation parameter mu (erf(mu*r12)/r12)        ....  0.250000


General Settings:
 Integral files         IntName         .... 14-202_DFT_AB
 Hartree-Fock type      HFTyp           .... RHF
 Total Charge           Charge          ....    0
 Multiplicity           Mult            ....    1
 Number of Electrons    NEL             ....   36
 Basis Dimension        Dim             ....  172
 Nuclear Repulsion      ENuc            ....    123.3917768368 Eh

Convergence Acceleration:
 DIIS                   CNVDIIS         .... on
   Start iteration      DIISMaxIt       ....    12
   Startup error        DIISStart       ....  0.200000
   # of expansion vecs  DIISMaxEq       ....     5
   Bias factor          DIISBfac        ....   1.050
   Max. coefficient     DIISMaxC        ....  10.000
 Newton-Raphson         CNVNR           .... off
 SOSCF                  CNVSOSCF        .... on
   Start iteration      SOSCFMaxIt      ....   150
   Startup grad/error   SOSCFStart      ....  0.003300
 Level Shifting         CNVShift        .... on
   Level shift para.    LevelShift      ....    0.2500
   Turn off err/grad.   ShiftErr        ....    0.0010
 Zerner damping         CNVZerner       .... off
 Static damping         CNVDamp         .... on
   Fraction old density DampFac         ....    0.7000
   Max. Damping (<1)    DampMax         ....    0.9800
   Min. Damping (>=0)   DampMin         ....    0.0000
   Turn off err/grad.   DampErr         ....    0.1000
 Fernandez-Rico         CNVRico         .... off

SCF Procedure:
 Maximum # iterations   MaxIter         ....  1000
 SCF integral mode      SCFMode         .... Direct
   Integral package                     .... LIBINT
 Reset frequency        DirectResetFreq ....    20
 Integral Threshold     Thresh          ....  2.500e-11 Eh
 Primitive CutOff       TCut            ....  2.500e-12 Eh

Convergence Tolerance:
 Convergence Check Mode ConvCheckMode   .... Total+1el-Energy
 Convergence forced     ConvForced      .... 0
 Energy Change          TolE            ....  1.000e-08 Eh
 1-El. energy change                    ....  1.000e-05 Eh
 Orbital Gradient       TolG            ....  1.000e-05
 Orbital Rotation angle TolX            ....  1.000e-05
 DIIS Error             TolErr          ....  5.000e-07


Diagonalization of the overlap matrix:
Smallest eigenvalue                        ... 1.500e-03
Time for diagonalization                   ...    0.008 sec
Threshold for overlap eigenvalues          ... 1.000e-08
Number of eigenvalues below threshold      ... 0
Time for construction of square roots      ...    0.005 sec
Total time needed                          ...    0.013 sec

-------------------
DFT GRID GENERATION
-------------------

General Integration Accuracy     IntAcc      ...  4.340
Radial Grid Type                 RadialGrid  ... Gauss-Chebyshev
Angular Grid (max. acc.)         AngularGrid ... Lebedev-110
Angular grid pruning method      GridPruning ... 3 (G Style)
Weight generation scheme         WeightScheme... Becke
Basis function cutoff            BFCut       ...    1.0000e-11
Integration weight cutoff        WCut        ...    1.0000e-14
Grids for H and He will be reduced by one unit

# of grid points (after initial pruning)     ...  13096 (   0.0 sec)
# of grid points (after weights+screening)   ...  12549 (   0.0 sec)
nearest neighbour list constructed           ...    0.0 sec
Grid point re-assignment to atoms done       ...    0.0 sec
Grid point division into batches done        ...    0.0 sec
Reduced shell lists constructed in    0.0 sec

Total number of grid points                  ...    12549
Total number of batches                      ...      201
Average number of points per batch           ...       62
Average number of grid points per atom       ...     1046
Average number of shells per batch           ...    54.26 (71.39%)
Average number of basis functions per batch  ...   120.26 (69.92%)
Average number of large shells per batch     ...    45.41 (83.69%)
Average number of large basis fcns per batch ...   100.15 (83.28%)
Maximum spatial batch extension              ...   8.18,  6.45,  6.47 au
Average spatial batch extension              ...   0.24,  0.23,  0.23 au

Time for grid setup =    0.038 sec

------------------------------
INITIAL GUESS: MODEL POTENTIAL
------------------------------
Loading Hartree-Fock densities                     ... done
Calculating cut-offs                               ... done
Setting up the integral package                    ... done
Initializing the effective Hamiltonian             ... done
Starting the Coulomb interaction                   ... done (   0.0 sec)
Reading the grid                                   ... done
Mapping shells                                     ... done
Starting the XC term evaluation                    ... done (   0.0 sec)
  promolecular density results
     # of electrons  =     36.002436432
     EX              =    -28.859475104
     EC              =     -1.152337772
     EX+EC           =    -30.011812876
Transforming the Hamiltonian                       ... done (   0.0 sec)
Diagonalizing the Hamiltonian                      ... done (   0.0 sec)
Back transforming the eigenvectors                 ... done (   0.0 sec)
Now organizing SCF variables                       ... done
                      ------------------
                      INITIAL GUESS DONE (   0.1 sec)
                      ------------------
--------------
SCF ITERATIONS
--------------
ITER       Energy         Delta-E        Max-DP      RMS-DP      [F,P]     Damp
               ***  Starting incremental Fock matrix formation  ***
  0   -231.3067816661   0.000000000000 0.03529781  0.00103081  0.2466152 0.7000
  1   -231.3769107258  -0.070129059688 0.02093068  0.00073340  0.1231017 0.7000
                               ***Turning on DIIS***
  2   -231.4095377151  -0.032626989313 0.03282365  0.00134194  0.0476637 0.0000
  3   -231.4627338975  -0.053196182407 0.01683424  0.00047745  0.0595200 0.0000
  4   -231.4712203394  -0.008486441845 0.00403321  0.00009250  0.0060439 0.0000
                      *** Initiating the SOSCF procedure ***
                           *** Shutting down DIIS ***
                      *** Re-Reading the Fockian *** 
                      *** Removing any level shift *** 
ITER      Energy       Delta-E        Grad      Rot      Max-DP    RMS-DP
  5   -231.47139892  -0.0001785811  0.000436  0.000436  0.000699  0.000032
               *** Restarting incremental Fock matrix formation ***
  6   -231.47141592  -0.0000170018  0.000137  0.000220  0.000468  0.000019
  7   -231.47141756  -0.0000016343  0.000045  0.000102  0.000213  0.000009
  8   -231.47141769  -0.0000001338  0.000021  0.000020  0.000034  0.000001
  9   -231.47141771  -0.0000000164  0.000009  0.000007  0.000015  0.000001
 10   -231.47141771  -0.0000000022  0.000004  0.000003  0.000005  0.000000
                  ***Gradient check signals convergence***
              ***Rediagonalizing the Fockian in SOSCF/NRSCF***

               *****************************************************
               *                     SUCCESS                       *
               *           SCF CONVERGED AFTER  11 CYCLES          *
               *****************************************************

Setting up the final grid:

General Integration Accuracy     IntAcc      ...  4.670
Radial Grid Type                 RadialGrid  ... Gauss-Chebyshev
Angular Grid (max. acc.)         AngularGrid ... Lebedev-302
Angular grid pruning method      GridPruning ... 3 (G Style)
Weight generation scheme         WeightScheme... Becke
Basis function cutoff            BFCut       ...    1.0000e-11
Integration weight cutoff        WCut        ...    1.0000e-14
Grids for H and He will be reduced by one unit

# of grid points (after initial pruning)     ...  52000 (   0.0 sec)
# of grid points (after weights+screening)   ...  49448 (   0.0 sec)
nearest neighbour list constructed           ...    0.0 sec
Grid point re-assignment to atoms done       ...    0.0 sec
Grid point division into batches done        ...    0.2 sec
Reduced shell lists constructed in    0.2 sec

Total number of grid points                  ...    49448
Total number of batches                      ...      779
Average number of points per batch           ...       63
Average number of grid points per atom       ...     4121
Average number of shells per batch           ...    54.28 (71.42%)
Average number of basis functions per batch  ...   120.12 (69.84%)
Average number of large shells per batch     ...    44.99 (82.88%)
Average number of large basis fcns per batch ...   100.20 (83.42%)
Maximum spatial batch extension              ...   6.50,  6.21,  5.05 au
Average spatial batch extension              ...   0.15,  0.15,  0.14 au

Final grid set up in    0.3 sec
Final integration                            ... done (   0.1 sec)
Change in XC energy                          ...    -0.000113469
Integrated number of electrons               ...    36.000000509
Previous integrated no of electrons          ...    36.001873160

----------------
TOTAL SCF ENERGY
----------------

Total Energy       :         -231.47153118 Eh           -6298.66058 eV

Components:
Nuclear Repulsion  :          123.39177684 Eh            3357.66095 eV
Electronic Energy  :         -354.86330802 Eh           -9656.32153 eV
One Electron Energy:         -559.76213417 Eh          -15231.90205 eV
Two Electron Energy:          204.89882616 Eh            5575.58052 eV

Virial components:
Potential Energy   :         -461.93198694 Eh          -12569.80840 eV
Kinetic Energy     :          230.46045576 Eh            6271.14782 eV
Virial Ratio       :            2.00438720


DFT components:
N(Alpha)           :       18.000000254556 electrons
N(Beta)            :       18.000000254556 electrons
N(Total)           :       36.000000509112 electrons
E(XC)              :      -21.304731626319 Eh       
DFET-embed. en.    :        0.000000000000 Eh       

---------------
SCF CONVERGENCE
---------------

  Last Energy change         ...   -1.8076e-10  Tolerance :   1.0000e-08
  Last MAX-Density change    ...    2.4042e-06  Tolerance :   1.0000e-07
  Last RMS-Density change    ...    7.5830e-08  Tolerance :   5.0000e-09
  Last Orbital Gradient      ...    1.2976e-06  Tolerance :   1.0000e-05
  Last Orbital Rotation      ...    7.9389e-07  Tolerance :   1.0000e-05

             **** THE GBW FILE WAS UPDATED (14-202_DFT_AB.gbw) ****
             **** DENSITY FILE WAS UPDATED (14-202_DFT_AB.scfp.tmp) ****
             **** ENERGY FILE WAS UPDATED (14-202_DFT_AB.en.tmp) ****
----------------
ORBITAL ENERGIES
----------------

  NO   OCC          E(Eh)            E(eV) 
   0   2.0000     -19.246107      -523.7132 
   1   2.0000     -19.205395      -522.6054 
   2   2.0000     -10.318819      -280.7894 
   3   2.0000     -10.301036      -280.3054 
   4   2.0000      -1.150028       -31.2939 
   5   2.0000      -1.102786       -30.0083 
   6   2.0000      -0.812479       -22.1087 
   7   2.0000      -0.777155       -21.1475 
   8   2.0000      -0.624729       -16.9997 
   9   2.0000      -0.589698       -16.0465 
  10   2.0000      -0.566938       -15.4272 
  11   2.0000      -0.535597       -14.5743 
  12   2.0000      -0.523259       -14.2386 
  13   2.0000      -0.502184       -13.6651 
  14   2.0000      -0.444642       -12.0993 
  15   2.0000      -0.408142       -11.1061 
  16   2.0000      -0.392177       -10.6717 
  17   2.0000      -0.352876        -9.6022 
  18   0.0000       0.106082         2.8866 
  19   0.0000       0.143430         3.9029 
  20   0.0000       0.145829         3.9682 
  21   0.0000       0.175519         4.7761 
  22   0.0000       0.200723         5.4620 
  23   0.0000       0.205610         5.5949 
  24   0.0000       0.209989         5.7141 
  25   0.0000       0.214568         5.8387 
  26   0.0000       0.219534         5.9738 
  27   0.0000       0.266806         7.2601 
  28   0.0000       0.303355         8.2547 
  29   0.0000       0.309852         8.4315 
  30   0.0000       0.326086         8.8732 
  31   0.0000       0.345584         9.4038 
  32   0.0000       0.377694        10.2776 
  33   0.0000       0.422988        11.5101 
  34   0.0000       0.441923        12.0253 
  35   0.0000       0.468419        12.7463 
  36   0.0000       0.475284        12.9331 
  37   0.0000       0.508766        13.8442 
  38   0.0000       0.520365        14.1599 
  39   0.0000       0.549377        14.9493 
  40   0.0000       0.556557        15.1447 
  41   0.0000       0.573516        15.6062 
  42   0.0000       0.580193        15.7878 
  43   0.0000       0.586409        15.9570 
  44   0.0000       0.600403        16.3378 
  45   0.0000       0.606768        16.5110 
  46   0.0000       0.645028        17.5521 
  47   0.0000       0.658732        17.9250 
  48   0.0000       0.706514        19.2252 
  49   0.0000       0.761908        20.7326 
  50   0.0000       0.801857        21.8196 
  51   0.0000       0.816791        22.2260 
  52   0.0000       0.842336        22.9211 
  53   0.0000       0.865372        23.5480 
  54   0.0000       0.888136        24.1674 
  55   0.0000       0.946458        25.7544 
  56   0.0000       0.984097        26.7786 
  57   0.0000       1.006394        27.3854 
  58   0.0000       1.014541        27.6071 
  59   0.0000       1.045526        28.4502 
  60   0.0000       1.111460        30.2444 
  61   0.0000       1.138267        30.9738 
  62   0.0000       1.366009        37.1710 
  63   0.0000       1.409328        38.3498 
  64   0.0000       1.508775        41.0558 
  65   0.0000       1.533590        41.7311 
  66   0.0000       1.540773        41.9266 
  67   0.0000       1.570391        42.7325 
  68   0.0000       1.580000        42.9940 
  69   0.0000       1.599981        43.5377 
  70   0.0000       1.613865        43.9155 
  71   0.0000       1.644393        44.7462 
  72   0.0000       1.645781        44.7840 
  73   0.0000       1.655083        45.0371 
  74   0.0000       1.681997        45.7695 
  75   0.0000       1.697748        46.1981 
  76   0.0000       1.701111        46.2896 
  77   0.0000       1.769075        48.1390 
  78   0.0000       1.790739        48.7285 
  79   0.0000       1.896976        51.6193 
  80   0.0000       1.972246        53.6675 
  81   0.0000       1.982334        53.9421 
  82   0.0000       2.001017        54.4504 
  83   0.0000       2.033075        55.3228 
  84   0.0000       2.048091        55.7314 
  85   0.0000       2.075530        56.4780 
  86   0.0000       2.089192        56.8498 
  87   0.0000       2.109256        57.3958 
  88   0.0000       2.118604        57.6501 
  89   0.0000       2.173121        59.1336 
  90   0.0000       2.265201        61.6392 
  91   0.0000       2.296710        62.4967 
  92   0.0000       2.303907        62.6925 
  93   0.0000       2.353126        64.0318 
  94   0.0000       2.371138        64.5219 
  95   0.0000       2.393494        65.1303 
  96   0.0000       2.410394        65.5901 
  97   0.0000       2.424987        65.9873 
  98   0.0000       2.436061        66.2886 
  99   0.0000       2.492128        67.8143 
 100   0.0000       2.519186        68.5505 
 101   0.0000       2.551527        69.4306 
 102   0.0000       2.597552        70.6830 
 103   0.0000       2.608701        70.9864 
 104   0.0000       2.661360        72.4193 
 105   0.0000       2.693337        73.2894 
 106   0.0000       2.698993        73.4433 
 107   0.0000       2.722556        74.0845 
 108   0.0000       2.819025        76.7096 
 109   0.0000       2.864054        77.9349 
 110   0.0000       2.876701        78.2790 
 111   0.0000       2.892630        78.7125 
 112   0.0000       2.912510        79.2534 
 113   0.0000       2.917703        79.3947 
 114   0.0000       2.984955        81.2248 
 115   0.0000       3.023429        82.2717 
 116   0.0000       3.092584        84.1535 
 117   0.0000       3.123591        84.9972 
 118   0.0000       3.167150        86.1825 
 119   0.0000       3.185616        86.6850 
 120   0.0000       3.266219        88.8783 
 121   0.0000       3.281099        89.2832 
 122   0.0000       3.385034        92.1115 
 123   0.0000       3.389888        92.2435 
 124   0.0000       3.463725        94.2528 
 125   0.0000       3.475595        94.5758 
 126   0.0000       3.514696        95.6397 
 127   0.0000       3.549045        96.5744 
 128   0.0000       3.590115        97.6920 
 129   0.0000       3.591998        97.7432 
 130   0.0000       3.651555        99.3639 
 131   0.0000       3.658299        99.5474 
 132   0.0000       3.661782        99.6421 
 133   0.0000       3.686185       100.3062 
 134   0.0000       3.999221       108.8243 
 135   0.0000       4.026837       109.5758 
 136   0.0000       4.217395       114.7612 
 137   0.0000       4.237626       115.3117 
 138   0.0000       4.273750       116.2946 
 139   0.0000       4.286033       116.6289 
 140   0.0000       4.455535       121.2413 
 141   0.0000       4.530461       123.2801 
 142   0.0000       4.579862       124.6244 
 143   0.0000       4.622818       125.7933 
 144   0.0000       5.337871       145.2509 
 145   0.0000       5.356633       145.7614 
 146   0.0000       5.412856       147.2913 
 147   0.0000       5.435213       147.8997 
 148   0.0000       5.535092       150.6175 
 149   0.0000       5.575229       151.7097 
 150   0.0000       5.810507       158.1119 
 151   0.0000       5.815025       158.2349 
 152   0.0000       5.822724       158.4444 
 153   0.0000       5.867404       159.6602 
 154   0.0000       5.960904       162.2045 
 155   0.0000       5.970398       162.4628 
 156   0.0000       6.340856       172.5435 
 157   0.0000       6.362802       173.1406 
 158   0.0000       6.510938       177.1716 
 159   0.0000       6.543573       178.0597 
 160   0.0000       6.743617       183.5032 
 161   0.0000       6.751259       183.7111 
 162   0.0000       6.788712       184.7303 
 163   0.0000       6.822367       185.6460 
 164   0.0000       7.040276       191.5757 
 165   0.0000       7.116461       193.6487 
 166   0.0000       7.187432       195.5800 
 167   0.0000       7.276062       197.9917 
 168   0.0000      22.366213       608.6156 
 169   0.0000      22.460104       611.1705 
 170   0.0000      43.685651      1188.7470 
 171   0.0000      43.725707      1189.8370 

                    ********************************
                    * MULLIKEN POPULATION ANALYSIS *
                    ********************************

-----------------------
MULLIKEN ATOMIC CHARGES
-----------------------
   0 C :   -0.151937
   1 O :   -0.499195
   2 H :    0.331025
   3 H :    0.113936
   4 H :    0.113148
   5 H :    0.112393
   6 C :   -0.162189
   7 O :   -0.489434
   8 H :    0.320363
   9 H :    0.110698
  10 H :    0.098209
  11 H :    0.102983
Sum of atomic charges:   -0.0000000

--------------------------------
MULLIKEN REDUCED ORBITAL CHARGES
--------------------------------
  0 C s       :     3.212479  s :     3.212479
      pz      :     1.027539  p :     2.840566
      px      :     0.997367
      py      :     0.815660
      dz2     :     0.008392  d :     0.091503
      dxz     :     0.010180
      dyz     :     0.028920
      dx2y2   :     0.024765
      dxy     :     0.019245
      f0      :     0.000274  f :     0.007389
      f+1     :     0.000332
      f-1     :     0.001438
      f+2     :     0.001392
      f-2     :     0.001235
      f+3     :     0.000906
      f-3     :     0.001812
  1 O s       :     3.794432  s :     3.794432
      pz      :     1.560501  p :     4.674007
      px      :     1.833138
      py      :     1.280368
      dz2     :     0.004047  d :     0.029112
      dxz     :     0.003325
      dyz     :     0.013530
      dx2y2   :     0.004054
      dxy     :     0.004156
      f0      :     0.000039  f :     0.001644
      f+1     :     0.000045
      f-1     :     0.000329
      f+2     :     0.000431
      f-2     :     0.000182
      f+3     :     0.000317
      f-3     :     0.000300
  2 H s       :     0.621824  s :     0.621824
      pz      :     0.015489  p :     0.047151
      px      :     0.016025
      py      :     0.015636
  3 H s       :     0.865116  s :     0.865116
      pz      :     0.008543  p :     0.020948
      px      :     0.006643
      py      :     0.005763
  4 H s       :     0.867975  s :     0.867975
      pz      :     0.007260  p :     0.018877
      px      :     0.003808
      py      :     0.007810
  5 H s       :     0.866197  s :     0.866197
      pz      :     0.005605  p :     0.021410
      px      :     0.011788
      py      :     0.004018
  6 C s       :     3.227528  s :     3.227528
      pz      :     0.834675  p :     2.830872
      px      :     0.956502
      py      :     1.039696
      dz2     :     0.029474  d :     0.096452
      dxz     :     0.017684
      dyz     :     0.020550
      dx2y2   :     0.008332
      dxy     :     0.020413
      f0      :     0.001525  f :     0.007336
      f+1     :     0.001557
      f-1     :     0.000811
      f+2     :     0.001160
      f-2     :     0.001509
      f+3     :     0.000533
      f-3     :     0.000241
  7 O s       :     3.790366  s :     3.790366
      pz      :     1.477924  p :     4.669537
      px      :     1.651723
      py      :     1.539890
      dz2     :     0.004627  d :     0.027954
      dxz     :     0.004564
      dyz     :     0.008320
      dx2y2   :     0.003691
      dxy     :     0.006752
      f0      :     0.000239  f :     0.001576
      f+1     :     0.000414
      f-1     :     0.000082
      f+2     :     0.000214
      f-2     :     0.000410
      f+3     :     0.000197
      f-3     :     0.000021
  8 H s       :     0.630239  s :     0.630239
      pz      :     0.016456  p :     0.049398
      px      :     0.017266
      py      :     0.015676
  9 H s       :     0.870656  s :     0.870656
      pz      :     0.003807  p :     0.018646
      px      :     0.006999
      py      :     0.007840
 10 H s       :     0.882531  s :     0.882531
      pz      :     0.008626  p :     0.019260
      px      :     0.006367
      py      :     0.004268
 11 H s       :     0.877277  s :     0.877277
      pz      :     0.003283  p :     0.019741
      px      :     0.007246
      py      :     0.009213


                     *******************************
                     * LOEWDIN POPULATION ANALYSIS *
                     *******************************

----------------------
LOEWDIN ATOMIC CHARGES
----------------------
   0 C :   -0.368704
   1 O :   -0.074135
   2 H :    0.176115
   3 H :    0.087714
   4 H :    0.119666
   5 H :    0.088578
   6 C :   -0.386106
   7 O :   -0.100420
   8 H :    0.164433
   9 H :    0.111859
  10 H :    0.093984
  11 H :    0.087017

-------------------------------
LOEWDIN REDUCED ORBITAL CHARGES
-------------------------------
  0 C s       :     2.848848  s :     2.848848
      pz      :     1.080652  p :     3.059847
      px      :     1.062606
      py      :     0.916590
      dz2     :     0.030965  d :     0.404359
      dxz     :     0.057127
      dyz     :     0.130827
      dx2y2   :     0.102373
      dxy     :     0.083066
      f0      :     0.005404  f :     0.055651
      f+1     :     0.003782
      f-1     :     0.008677
      f+2     :     0.006722
      f-2     :     0.007710
      f+3     :     0.009248
      f-3     :     0.014108
  1 O s       :     3.363766  s :     3.363766
      pz      :     1.566691  p :     4.636884
      px      :     1.750957
      py      :     1.319236
      dz2     :     0.007197  d :     0.069008
      dxz     :     0.005343
      dyz     :     0.029867
      dx2y2   :     0.014229
      dxy     :     0.012372
      f0      :     0.000212  f :     0.004477
      f+1     :     0.000123
      f-1     :     0.001297
      f+2     :     0.000929
      f-2     :     0.000556
      f+3     :     0.000601
      f-3     :     0.000758
  2 H s       :     0.665586  s :     0.665586
      pz      :     0.063970  p :     0.158299
      px      :     0.044310
      py      :     0.050019
  3 H s       :     0.844035  s :     0.844035
      pz      :     0.028145  p :     0.068252
      px      :     0.021930
      py      :     0.018178
  4 H s       :     0.827944  s :     0.827944
      pz      :     0.021256  p :     0.052390
      px      :     0.010773
      py      :     0.020360
  5 H s       :     0.842001  s :     0.842001
      pz      :     0.018937  p :     0.069421
      px      :     0.036860
      py      :     0.013624
  6 C s       :     2.869473  s :     2.869473
      pz      :     0.935263  p :     3.056704
      px      :     1.028557
      py      :     1.092885
      dz2     :     0.112927  d :     0.406633
      dxz     :     0.099945
      dyz     :     0.073808
      dx2y2   :     0.022879
      dxy     :     0.097075
      f0      :     0.011243  f :     0.053295
      f+1     :     0.009612
      f-1     :     0.007784
      f+2     :     0.009587
      f-2     :     0.007981
      f+3     :     0.004144
      f-3     :     0.002945
  7 O s       :     3.376799  s :     3.376799
      pz      :     1.488952  p :     4.653747
      px      :     1.609608
      py      :     1.555187
      dz2     :     0.013361  d :     0.065753
      dxz     :     0.013942
      dyz     :     0.018894
      dx2y2   :     0.006284
      dxy     :     0.013272
      f0      :     0.000820  f :     0.004121
      f+1     :     0.000773
      f-1     :     0.000390
      f+2     :     0.000706
      f-2     :     0.000761
      f+3     :     0.000572
      f-3     :     0.000099
  8 H s       :     0.674568  s :     0.674568
      pz      :     0.044660  p :     0.160999
      px      :     0.048986
      py      :     0.067353
  9 H s       :     0.834394  s :     0.834394
      pz      :     0.010725  p :     0.053747
      px      :     0.019606
      py      :     0.023417
 10 H s       :     0.847521  s :     0.847521
      pz      :     0.025097  p :     0.058495
      px      :     0.019798
      py      :     0.013601
 11 H s       :     0.848921  s :     0.848921
      pz      :     0.011458  p :     0.064062
      px      :     0.022996
      py      :     0.029608


                      *****************************
                      * MAYER POPULATION ANALYSIS *
                      *****************************

  NA   - Mulliken gross atomic population
  ZA   - Total nuclear charge
  QA   - Mulliken gross atomic charge
  VA   - Mayer's total valence
  BVA  - Mayer's bonded valence
  FA   - Mayer's free valence

  ATOM       NA         ZA         QA         VA         BVA        FA
  0 C      6.1519     6.0000    -0.1519     3.9109     3.9109    -0.0000
  1 O      8.4992     8.0000    -0.4992     1.8823     1.8823    -0.0000
  2 H      0.6690     1.0000     0.3310     0.9021     0.9021    -0.0000
  3 H      0.8861     1.0000     0.1139     0.9535     0.9535    -0.0000
  4 H      0.8869     1.0000     0.1131     0.9644     0.9644    -0.0000
  5 H      0.8876     1.0000     0.1124     0.9648     0.9648    -0.0000
  6 C      6.1622     6.0000    -0.1622     3.9480     3.9480     0.0000
  7 O      8.4894     8.0000    -0.4894     1.8683     1.8683    -0.0000
  8 H      0.6796     1.0000     0.3204     0.9255     0.9255    -0.0000
  9 H      0.8893     1.0000     0.1107     0.9573     0.9573    -0.0000
 10 H      0.9018     1.0000     0.0982     0.9585     0.9585     0.0000
 11 H      0.8970     1.0000     0.1030     0.9552     0.9552     0.0000

  Mayer bond orders larger than 0.1
B(  0-C ,  1-O ) :   0.9671 B(  0-C ,  3-H ) :   0.9725 B(  0-C ,  4-H ) :   0.9759 
B(  0-C ,  5-H ) :   0.9828 B(  1-O ,  2-H ) :   0.8867 B(  6-C ,  7-O ) :   1.0133 
B(  6-C ,  9-H ) :   0.9730 B(  6-C , 10-H ) :   0.9781 B(  6-C , 11-H ) :   0.9734 
B(  7-O ,  8-H ) :   0.8683 

-------
TIMINGS
-------

Total SCF time: 0 days 0 hours 0 min 20 sec 

Total time                  ....      20.196 sec
Sum of individual times     ....      19.449 sec  ( 96.3%)

Fock matrix formation       ....      18.510 sec  ( 91.7%)
  XC integration            ....       8.148 sec  ( 44.0% of F)
    Basis function eval.    ....       0.059 sec  (  0.7% of XC)
    Density eval.           ....       0.162 sec  (  2.0% of XC)
    XC-Functional eval.     ....       0.182 sec  (  2.2% of XC)
    XC-Potential eval.      ....       0.063 sec  (  0.8% of XC)
Diagonalization             ....       0.239 sec  (  1.2%)
Density matrix formation    ....       0.005 sec  (  0.0%)
Population analysis         ....       0.016 sec  (  0.1%)
Initial guess               ....       0.099 sec  (  0.5%)
Orbital Transformation      ....       0.000 sec  (  0.0%)
Orbital Orthonormalization  ....       0.000 sec  (  0.0%)
DIIS solution               ....       0.186 sec  (  0.9%)
SOSCF solution              ....       0.093 sec  (  0.5%)
Grid generation             ....       0.302 sec  (  1.5%)


-------------------------------------------------------------------------------
                          DFT DISPERSION CORRECTION                            
                                                                               
                              DFTD3 V3.1  Rev 1                                
                              USING zero damping                               
-------------------------------------------------------------------------------
The omegaB97X-D3 functional is recognized. Fit by Chai et al.
Active option DFTDOPT                   ...         3   

molecular C6(AA) [au] = 835.066148 


            DFT-D V3
 parameters
 s6 scaling factor         :     1.0000 
 rs6 scaling factor        :     1.2810 
 s8 scaling factor         :     1.0000 
 rs8 scaling factor        :     1.0940 
 Damping factor alpha6     :    14.0000 
 Damping factor alpha8     :    16.0000 
 ad hoc parameters k1-k3   :    16.0000     1.3333    -4.0000 

 Edisp/kcal,au: -0.828379809486  -0.001320107114 
 E6   /kcal   :  -0.360152577 
 E8   /kcal   :  -0.468227233 
 % E8         :  56.523255070 

-------------------------   ----------------
Dispersion correction           -0.001320107
-------------------------   ----------------


-------------------------   --------------------
FINAL SINGLE POINT ENERGY      -231.472851285524
-------------------------   --------------------


                            ***************************************
                            *     ORCA property calculations      *
                            ***************************************

                                    ---------------------
                                    Active property flags
                                    ---------------------
   (+) Dipole Moment


------------------------------------------------------------------------------
                       ORCA ELECTRIC PROPERTIES CALCULATION
------------------------------------------------------------------------------

Dipole Moment Calculation                       ... on
Quadrupole Moment Calculation                   ... off
Polarizability Calculation                      ... off
GBWName                                         ... 14-202_DFT_AB.gbw
Electron density file                           ... 14-202_DFT_AB.scfp.tmp
The origin for moment calculation is the CENTER OF MASS  = (10.378761, -18.339575  8.515342)

-------------
DIPOLE MOMENT
-------------
                                X             Y             Z
Electronic contribution:     -0.31946      -2.07549       0.94307
Nuclear contribution   :     -0.03291       2.85392      -0.25999
                        -----------------------------------------
Total Dipole Moment    :     -0.35237       0.77843       0.68308
                        -----------------------------------------
Magnitude (a.u.)       :      1.09395
Magnitude (Debye)      :      2.78059



--------------------
Rotational spectrum 
--------------------
 
Rotational constants in cm-1:     0.824028     0.058197     0.055502 
Rotational constants in MHz : 24703.735454  1744.714563  1663.910806 

 Dipole components along the rotational axes: 
x,y,z [a.u.] :     0.990687    -0.417692     0.201968 
x,y,z [Debye]:     2.518126    -1.061688     0.513363 

 
------------------------------------------------------------------------------
                      ORCA CHELPG CHARGES GENERATION
------------------------------------------------------------------------------

GBW file                           ... 14-202_DFT_AB.gbw

Reading the GBW file               ... done

Grid spacing                       ...     0.300000
Point Cut-Off                      ...     2.800000
Van-der-Waals Radii                ...        COSMO
Total charge                       ...            0


Number of points X direction       ...           34
Number of points Y direction       ...           30
Number of points Z direction       ...           36
Maximum number of possible points  ...        36720
Final number of points             ...        10408


CHELPG Charges            
--------------------------------
  0   C   :       0.121047
  1   O   :      -0.613140
  2   H   :       0.413786
  3   H   :       0.017224
  4   H   :       0.063480
  5   H   :       0.018085
  6   C   :       0.178976
  7   O   :      -0.659172
  8   H   :       0.427282
  9   H   :       0.044778
 10   H   :      -0.003127
 11   H   :      -0.009219
--------------------------------
Total charge:     0.000000
--------------------------------

CHELPG charges calculated...

Timings for individual parts in CHELPG calculation:
Grid generation                 ...        0.002 sec (=   0.000 min)
Potential calculation           ...        2.160 sec (=   0.036 min)
Fit to the potential            ...        0.003 sec (=   0.000 min)
------------------------------------------------------------------------------


Timings for individual modules:

Sum of individual times         ...       29.155 sec (=   0.486 min)
GTO integral calculation        ...        4.943 sec (=   0.082 min)  17.0 %
SCF iterations                  ...       22.014 sec (=   0.367 min)  75.5 %
CHELPG charge generation        ...        2.198 sec (=   0.037 min)   7.5 %


                 $$$$$$$$$$$$$$$$  JOB NUMBER  2 $$$$$$$$$$$$$$


                       ****************************
                       * Single Point Calculation *
                       ****************************

---------------------------------
CARTESIAN COORDINATES (ANGSTROEM)
---------------------------------
  C      4.066986   -8.339112    6.248650
  O      4.629297   -9.524087    5.705682
  H      4.602639  -10.203734    6.382518
  H      4.664604   -7.882240    6.979995
  H      3.936144   -7.518399    5.467593
  H      3.111295   -8.558080    6.600876
  C      7.029929  -10.246656    2.441205
  O      6.272776  -10.696753    3.566318
  H      5.828643   -9.955167    4.014150
  H      7.734906  -11.057839    2.095183
  H      6.360596  -10.006411    1.596224
  H      7.665021   -9.402436    2.631238

----------------------------
CARTESIAN COORDINATES (A.U.)
----------------------------
  NO LB      ZA    FRAG     MASS         X           Y           Z
   0 C     6.0000    0    12.011    7.685490  -15.758638   11.808237
   1 O     8.0000    0    15.999    8.748104  -17.997916   10.782176
   2 H     1.0000    0     1.008    8.697727  -19.282263   12.061211
   3 H     1.0000    0     1.008    8.814824  -14.895275   13.190279
   4 H     1.0000    0     1.008    7.438234  -14.207715   10.332253
   5 H     1.0000    0     1.008    5.879495  -16.172427   12.473848
   6 C     0.0000    0     0.000   13.284641  -19.363374    4.613209
   7 O     0.0000    0     0.000   11.853829  -20.213934    6.739364
   8 H     0.0000    0     0.000   11.014539  -18.812539    7.585644
   9 H     0.0000    0     0.000   14.616854  -20.896287    3.959322
  10 H     0.0000    0     0.000   12.019784  -18.909376    3.016426
  11 H     0.0000    0     0.000   14.484791  -17.768029    4.972319

--------------------------------
INTERNAL COORDINATES (ANGSTROEM)
--------------------------------
 C      0   0   0     0.000000000000     0.00000000     0.00000000
 O      1   0   0     1.419568124596     0.00000000     0.00000000
 H      2   1   0     0.959550761799   108.08615618     0.00000000
 H      1   2   3     1.049163861050   113.85919713    70.30359504
 H      1   2   3     1.140499668822   112.59343278   187.41328728
 H      1   2   3     1.041803929528   108.49615373   304.55506989
 C      2   1   3     4.116060014469   132.91557938   197.84359557
 O      7   2   1     1.428897210294    28.56879454   182.50772561
 H      8   7   2     0.973528334107   111.34616121     2.57828483
 H      7   2   1     1.129044575959   137.16927507   159.03764921
 H      7   2   1     1.104408083670   102.42399491   292.65688113
 H      7   2   1     1.073387999725    93.81884507    42.90793781

---------------------------
INTERNAL COORDINATES (A.U.)
---------------------------
 C      0   0   0     0.000000000000     0.00000000     0.00000000
 O      1   0   0     2.682594983931     0.00000000     0.00000000
 H      2   1   0     1.813288151396   108.08615618     0.00000000
 H      1   2   3     1.982632366992   113.85919713    70.30359504
 H      1   2   3     2.155232029901   112.59343278   187.41328728
 H      1   2   3     1.968724112052   108.49615373   304.55506989
 C      2   1   3     7.778226178131   132.91557938   197.84359557
 O      7   2   1     2.700224400980    28.56879454   182.50772561
 H      8   7   2     1.839701935075   111.34616121     2.57828483
 H      7   2   1     2.133585041551   137.16927507   159.03764921
 H      7   2   1     2.087028818225   102.42399491   292.65688113
 H      7   2   1     2.028409354917    93.81884507    42.90793781

---------------------
BASIS SET INFORMATION
---------------------
There are 3 groups of distinct atoms

 Group   1 Type C   : 11s6p2d1f contracted to 5s3p2d1f pattern {62111/411/11/1}
 Group   2 Type O   : 11s6p2d1f contracted to 5s3p2d1f pattern {62111/411/11/1}
 Group   3 Type H   : 5s1p contracted to 3s1p pattern {311/1}

Atom   0C    basis set group =>   1
Atom   1O    basis set group =>   2
Atom   2H    basis set group =>   3
Atom   3H    basis set group =>   3
Atom   4H    basis set group =>   3
Atom   5H    basis set group =>   3
Atom   6C    basis set group =>   1
Atom   7O    basis set group =>   2
Atom   8H    basis set group =>   3
Atom   9H    basis set group =>   3
Atom  10H    basis set group =>   3
Atom  11H    basis set group =>   3


           ************************************************************
           *        Program running with 8 parallel MPI-processes     *
           *              working on a common directory               *
           ************************************************************
------------------------------------------------------------------------------
                           ORCA GTO INTEGRAL CALCULATION
------------------------------------------------------------------------------

                         BASIS SET STATISTICS AND STARTUP INFO

 # of primitive gaussian shells          ...  128
 # of primitive gaussian functions       ...  248
 # of contracted shells                  ...   76
 # of contracted basis functions         ...  172
 Highest angular momentum                ...    3
 Maximum contraction depth               ...    6
 Integral package used                   ... LIBINT
 Integral threshhold            Thresh   ...  2.500e-11
 Primitive cut-off              TCut     ...  2.500e-12


------------------------------ INTEGRAL EVALUATION ----------------------------


 * One electron integrals 
 Pre-screening matrix                    ... done
 Shell pair data                         ... done (   0.001 sec)



           ************************************************************
           *        Program running with 8 parallel MPI-processes     *
           *              working on a common directory               *
           ************************************************************
-------------------------------------------------------------------------------
                                 ORCA SCF
-------------------------------------------------------------------------------

------------
SCF SETTINGS
------------
Hamiltonian:
 Density Functional     Method          .... DFT(GTOs)
 Exchange Functional    Exchange        .... WB97X-D3
 Correlation Functional Correlation     .... WB97X-D3
 Gradients option       PostSCFGGA      .... off
 Hybrid DFT is turned on
   Fraction HF Exchange ScalHFX         ....  0.195728
   Scaling of DF-GGA-X  ScalDFX         ....  0.000000
   Scaling of DF-GGA-C  ScalDFC         ....  1.000000
   Scaling of DF-LDA-C  ScalLDAC        ....  1.000000
   Perturbative correction              ....  0.000000
   Density functional embedding theory  .... OFF
 Long-range corrected/Screened/Range-Separated Hybrid DFT is turned on
   Amount of maximum screened exact exchange              ....  0.804272
   Range separation parameter mu (erf(mu*r12)/r12)        ....  0.250000


General Settings:
 Integral files         IntName         .... 14-202_DFT_A
 Hartree-Fock type      HFTyp           .... RHF
 Total Charge           Charge          ....    0
 Multiplicity           Mult            ....    1
 Number of Electrons    NEL             ....   18
 Basis Dimension        Dim             ....  172
 Nuclear Repulsion      ENuc            ....     40.4767355975 Eh

Convergence Acceleration:
 DIIS                   CNVDIIS         .... on
   Start iteration      DIISMaxIt       ....    12
   Startup error        DIISStart       ....  0.200000
   # of expansion vecs  DIISMaxEq       ....     5
   Bias factor          DIISBfac        ....   1.050
   Max. coefficient     DIISMaxC        ....  10.000
 Newton-Raphson         CNVNR           .... off
 SOSCF                  CNVSOSCF        .... on
   Start iteration      SOSCFMaxIt      ....   150
   Startup grad/error   SOSCFStart      ....  0.003300
 Level Shifting         CNVShift        .... on
   Level shift para.    LevelShift      ....    0.2500
   Turn off err/grad.   ShiftErr        ....    0.0010
 Zerner damping         CNVZerner       .... off
 Static damping         CNVDamp         .... on
   Fraction old density DampFac         ....    0.7000
   Max. Damping (<1)    DampMax         ....    0.9800
   Min. Damping (>=0)   DampMin         ....    0.0000
   Turn off err/grad.   DampErr         ....    0.1000
 Fernandez-Rico         CNVRico         .... off

SCF Procedure:
 Maximum # iterations   MaxIter         ....  1000
 SCF integral mode      SCFMode         .... Direct
   Integral package                     .... LIBINT
 Reset frequency        DirectResetFreq ....    20
 Integral Threshold     Thresh          ....  2.500e-11 Eh
 Primitive CutOff       TCut            ....  2.500e-12 Eh

Convergence Tolerance:
 Convergence Check Mode ConvCheckMode   .... Total+1el-Energy
 Convergence forced     ConvForced      .... 0
 Energy Change          TolE            ....  1.000e-08 Eh
 1-El. energy change                    ....  1.000e-05 Eh
 Orbital Gradient       TolG            ....  1.000e-05
 Orbital Rotation angle TolX            ....  1.000e-05
 DIIS Error             TolErr          ....  5.000e-07


Diagonalization of the overlap matrix:
Smallest eigenvalue                        ... 1.500e-03
Time for diagonalization                   ...    0.004 sec
Threshold for overlap eigenvalues          ... 1.000e-08
Number of eigenvalues below threshold      ... 0
Time for construction of square roots      ...    0.005 sec
Total time needed                          ...    0.009 sec

-------------------
DFT GRID GENERATION
-------------------

General Integration Accuracy     IntAcc      ...  4.340
Radial Grid Type                 RadialGrid  ... Gauss-Chebyshev
Angular Grid (max. acc.)         AngularGrid ... Lebedev-110
Angular grid pruning method      GridPruning ... 3 (G Style)
Weight generation scheme         WeightScheme... Becke
Basis function cutoff            BFCut       ...    1.0000e-11
Integration weight cutoff        WCut        ...    1.0000e-14
Grids for H and He will be reduced by one unit

# of grid points (after initial pruning)     ...  13096 (   0.0 sec)
# of grid points (after weights+screening)   ...  12549 (   0.0 sec)
nearest neighbour list constructed           ...    0.0 sec
Grid point re-assignment to atoms done       ...    0.0 sec
Grid point division into batches done        ...    0.0 sec
Reduced shell lists constructed in    0.0 sec

Total number of grid points                  ...    12549
Total number of batches                      ...      201
Average number of points per batch           ...       62
Average number of grid points per atom       ...     1046
Average number of shells per batch           ...    54.26 (71.39%)
Average number of basis functions per batch  ...   120.26 (69.92%)
Average number of large shells per batch     ...    45.41 (83.69%)
Average number of large basis fcns per batch ...   100.15 (83.28%)
Maximum spatial batch extension              ...   8.18,  6.45,  6.47 au
Average spatial batch extension              ...   0.24,  0.23,  0.23 au

Time for grid setup =    0.038 sec

------------------------------
INITIAL GUESS: MODEL POTENTIAL
------------------------------
Loading Hartree-Fock densities                     ... done
Calculating cut-offs                               ... done
Setting up the integral package                    ... done
Initializing the effective Hamiltonian             ... done
Starting the Coulomb interaction                   ... done (   0.0 sec)
Reading the grid                                   ... done
Mapping shells                                     ... done
Starting the XC term evaluation                    ... done (   0.0 sec)
  promolecular density results
     # of electrons  =     18.001260760
     EX              =    -14.436950824
     EC              =     -0.575711383
     EX+EC           =    -15.012662208
Transforming the Hamiltonian                       ... done (   0.0 sec)
Diagonalizing the Hamiltonian                      ... done (   0.0 sec)
Back transforming the eigenvectors                 ... done (   0.0 sec)
Now organizing SCF variables                       ... done
                      ------------------
                      INITIAL GUESS DONE (   0.1 sec)
                      ------------------
--------------
SCF ITERATIONS
--------------
ITER       Energy         Delta-E        Max-DP      RMS-DP      [F,P]     Damp
               ***  Starting incremental Fock matrix formation  ***
  0   -115.6433565368   0.000000000000 0.03536520  0.00075342  0.2423153 0.7000
  1   -115.6807858689  -0.037429332110 0.02176022  0.00053664  0.1212559 0.7000
                               ***Turning on DIIS***
  2   -115.6982053700  -0.017419501115 0.03343484  0.00097845  0.0471962 0.0000
  3   -115.7266056818  -0.028400311814 0.01761427  0.00035020  0.0590623 0.0000
  4   -115.7311350870  -0.004529405144 0.00411343  0.00006722  0.0061486 0.0000
                      *** Initiating the SOSCF procedure ***
                           *** Shutting down DIIS ***
                      *** Re-Reading the Fockian *** 
                      *** Removing any level shift *** 
ITER      Energy       Delta-E        Grad      Rot      Max-DP    RMS-DP
  5   -115.73123031  -0.0000952271  0.000425  0.000425  0.000762  0.000023
               *** Restarting incremental Fock matrix formation ***
  6   -115.73123888  -0.0000085643  0.000118  0.000149  0.000398  0.000013
  7   -115.73123968  -0.0000007981  0.000034  0.000075  0.000184  0.000006
  8   -115.73123974  -0.0000000674  0.000017  0.000014  0.000028  0.000001
  9   -115.73123975  -0.0000000052  0.000007  0.000005  0.000011  0.000000
 10   -115.73123975  -0.0000000011  0.000003  0.000002  0.000003  0.000000
                  ***Gradient check signals convergence***
              ***Rediagonalizing the Fockian in SOSCF/NRSCF***

               *****************************************************
               *                     SUCCESS                       *
               *           SCF CONVERGED AFTER  11 CYCLES          *
               *****************************************************

Setting up the final grid:

General Integration Accuracy     IntAcc      ...  4.670
Radial Grid Type                 RadialGrid  ... Gauss-Chebyshev
Angular Grid (max. acc.)         AngularGrid ... Lebedev-302
Angular grid pruning method      GridPruning ... 3 (G Style)
Weight generation scheme         WeightScheme... Becke
Basis function cutoff            BFCut       ...    1.0000e-11
Integration weight cutoff        WCut        ...    1.0000e-14
Grids for H and He will be reduced by one unit

# of grid points (after initial pruning)     ...  52000 (   0.0 sec)
# of grid points (after weights+screening)   ...  49448 (   0.0 sec)
nearest neighbour list constructed           ...    0.0 sec
Grid point re-assignment to atoms done       ...    0.0 sec
Grid point division into batches done        ...    0.2 sec
Reduced shell lists constructed in    0.2 sec

Total number of grid points                  ...    49448
Total number of batches                      ...      779
Average number of points per batch           ...       63
Average number of grid points per atom       ...     4121
Average number of shells per batch           ...    54.28 (71.42%)
Average number of basis functions per batch  ...   120.12 (69.84%)
Average number of large shells per batch     ...    44.99 (82.88%)
Average number of large basis fcns per batch ...   100.20 (83.42%)
Maximum spatial batch extension              ...   6.50,  6.21,  5.05 au
Average spatial batch extension              ...   0.15,  0.15,  0.14 au

Final grid set up in    0.3 sec
Final integration                            ... done (   0.1 sec)
Change in XC energy                          ...     0.000284322
Integrated number of electrons               ...    17.999993551
Previous integrated no of electrons          ...    17.999843264

----------------
TOTAL SCF ENERGY
----------------

Total Energy       :         -115.73095543 Eh           -3149.19940 eV

Components:
Nuclear Repulsion  :           40.47673560 Eh            1101.42797 eV
Electronic Energy  :         -156.20769103 Eh           -4250.62737 eV
One Electron Energy:         -237.34572084 Eh           -6458.50541 eV
Two Electron Energy:           81.13802981 Eh            2207.87804 eV

Virial components:
Potential Energy   :         -231.03951444 Eh           -6286.90481 eV
Kinetic Energy     :          115.30855901 Eh            3137.70541 eV
Virial Ratio       :            2.00366318


DFT components:
N(Alpha)           :        8.999996775352 electrons
N(Beta)            :        8.999996775352 electrons
N(Total)           :       17.999993550705 electrons
E(XC)              :      -10.666068550693 Eh       
DFET-embed. en.    :        0.000000000000 Eh       

---------------
SCF CONVERGENCE
---------------

  Last Energy change         ...   -1.5130e-10  Tolerance :   1.0000e-08
  Last MAX-Density change    ...    1.8936e-06  Tolerance :   1.0000e-07
  Last RMS-Density change    ...    4.4803e-08  Tolerance :   5.0000e-09
  Last Orbital Gradient      ...    1.1951e-06  Tolerance :   1.0000e-05
  Last Orbital Rotation      ...    7.5196e-07  Tolerance :   1.0000e-05

             **** THE GBW FILE WAS UPDATED (14-202_DFT_A.gbw) ****
             **** DENSITY FILE WAS UPDATED (14-202_DFT_A.scfp.tmp) ****
             **** ENERGY FILE WAS UPDATED (14-202_DFT_A.en.tmp) ****
----------------
ORBITAL ENERGIES
----------------

  NO   OCC          E(Eh)            E(eV) 
   0   2.0000     -19.229808      -523.2697 
   1   2.0000     -10.307859      -280.4911 
   2   2.0000      -1.134401       -30.8686 
   3   2.0000      -0.800668       -21.7873 
   4   2.0000      -0.609963       -16.5979 
   5   2.0000      -0.555872       -15.1260 
   6   2.0000      -0.522486       -14.2176 
   7   2.0000      -0.428305       -11.6548 
   8   2.0000      -0.376990       -10.2584 
   9   0.0000       0.099971         2.7203 
  10   0.0000       0.119968         3.2645 
  11   0.0000       0.152316         4.1447 
  12   0.0000       0.191730         5.2172 
  13   0.0000       0.208071         5.6619 
  14   0.0000       0.211067         5.7434 
  15   0.0000       0.212965         5.7951 
  16   0.0000       0.215473         5.8633 
  17   0.0000       0.226425         6.1613 
  18   0.0000       0.302328         8.2268 
  19   0.0000       0.312682         8.5085 
  20   0.0000       0.333427         9.0730 
  21   0.0000       0.336652         9.1608 
  22   0.0000       0.342223         9.3124 
  23   0.0000       0.380954        10.3663 
  24   0.0000       0.401451        10.9240 
  25   0.0000       0.447399        12.1743 
  26   0.0000       0.490803        13.3554 
  27   0.0000       0.497672        13.5423 
  28   0.0000       0.506747        13.7893 
  29   0.0000       0.563501        15.3336 
  30   0.0000       0.570079        15.5126 
  31   0.0000       0.574712        15.6387 
  32   0.0000       0.614854        16.7310 
  33   0.0000       0.624820        17.0022 
  34   0.0000       0.638586        17.3768 
  35   0.0000       0.679420        18.4880 
  36   0.0000       0.728912        19.8347 
  37   0.0000       0.755345        20.5540 
  38   0.0000       0.789231        21.4761 
  39   0.0000       0.799930        21.7672 
  40   0.0000       0.820186        22.3184 
  41   0.0000       0.839277        22.8379 
  42   0.0000       0.888844        24.1867 
  43   0.0000       0.992667        27.0119 
  44   0.0000       1.014692        27.6112 
  45   0.0000       1.035241        28.1703 
  46   0.0000       1.067963        29.0607 
  47   0.0000       1.117012        30.3954 
  48   0.0000       1.164323        31.6828 
  49   0.0000       1.183946        32.2168 
  50   0.0000       1.192784        32.4573 
  51   0.0000       1.219138        33.1744 
  52   0.0000       1.263396        34.3788 
  53   0.0000       1.377014        37.4705 
  54   0.0000       1.383313        37.6419 
  55   0.0000       1.414020        38.4774 
  56   0.0000       1.484274        40.3891 
  57   0.0000       1.513358        41.1806 
  58   0.0000       1.555512        42.3276 
  59   0.0000       1.574758        42.8513 
  60   0.0000       1.589037        43.2399 
  61   0.0000       1.637698        44.5640 
  62   0.0000       1.665426        45.3185 
  63   0.0000       1.711419        46.5701 
  64   0.0000       1.724926        46.9376 
  65   0.0000       1.797577        48.9145 
  66   0.0000       1.832798        49.8730 
  67   0.0000       1.953619        53.1607 
  68   0.0000       1.978806        53.8461 
  69   0.0000       1.994057        54.2611 
  70   0.0000       2.011182        54.7270 
  71   0.0000       2.063750        56.1575 
  72   0.0000       2.099876        57.1405 
  73   0.0000       2.122625        57.7596 
  74   0.0000       2.141617        58.2764 
  75   0.0000       2.205377        60.0114 
  76   0.0000       2.230833        60.7041 
  77   0.0000       2.245254        61.0965 
  78   0.0000       2.279525        62.0290 
  79   0.0000       2.330501        63.4162 
  80   0.0000       2.332468        63.4697 
  81   0.0000       2.387814        64.9757 
  82   0.0000       2.405318        65.4520 
  83   0.0000       2.435848        66.2828 
  84   0.0000       2.529908        68.8423 
  85   0.0000       2.552166        69.4480 
  86   0.0000       2.587666        70.4140 
  87   0.0000       2.603323        70.8400 
  88   0.0000       2.661218        72.4154 
  89   0.0000       2.679562        72.9146 
  90   0.0000       2.703619        73.5692 
  91   0.0000       2.730966        74.3134 
  92   0.0000       2.831580        77.0512 
  93   0.0000       2.855314        77.6970 
  94   0.0000       2.888734        78.6064 
  95   0.0000       2.921740        79.5046 
  96   0.0000       2.943835        80.1058 
  97   0.0000       2.988864        81.3311 
  98   0.0000       3.103274        84.4444 
  99   0.0000       3.116645        84.8082 
 100   0.0000       3.145550        85.5948 
 101   0.0000       3.177984        86.4773 
 102   0.0000       3.213970        87.4566 
 103   0.0000       3.278776        89.2200 
 104   0.0000       3.290919        89.5505 
 105   0.0000       3.313965        90.1776 
 106   0.0000       3.394650        92.3731 
 107   0.0000       3.396764        92.4306 
 108   0.0000       3.451705        93.9257 
 109   0.0000       3.492259        95.0292 
 110   0.0000       3.526675        95.9657 
 111   0.0000       3.597280        97.8870 
 112   0.0000       3.602501        98.0290 
 113   0.0000       3.662602        99.6645 
 114   0.0000       3.667838        99.8069 
 115   0.0000       3.685985       100.3007 
 116   0.0000       3.697225       100.6066 
 117   0.0000       4.012932       109.1974 
 118   0.0000       4.086268       111.1930 
 119   0.0000       4.144806       112.7859 
 120   0.0000       4.233219       115.1917 
 121   0.0000       4.270194       116.1979 
 122   0.0000       4.285191       116.6060 
 123   0.0000       4.298374       116.9647 
 124   0.0000       4.370362       118.9236 
 125   0.0000       4.532706       123.3412 
 126   0.0000       4.540763       123.5604 
 127   0.0000       4.559182       124.0616 
 128   0.0000       4.572025       124.4111 
 129   0.0000       4.601228       125.2058 
 130   0.0000       4.621770       125.7648 
 131   0.0000       5.001456       136.0965 
 132   0.0000       5.060568       137.7051 
 133   0.0000       5.122609       139.3933 
 134   0.0000       5.341034       145.3369 
 135   0.0000       5.361106       145.8831 
 136   0.0000       5.439650       148.0204 
 137   0.0000       5.531731       150.5261 
 138   0.0000       5.551899       151.0749 
 139   0.0000       5.722951       155.7294 
 140   0.0000       5.827742       158.5809 
 141   0.0000       5.839160       158.8916 
 142   0.0000       5.919779       161.0854 
 143   0.0000       5.978937       162.6951 
 144   0.0000       6.059578       164.8895 
 145   0.0000       6.360101       173.0671 
 146   0.0000       6.528786       177.6573 
 147   0.0000       6.603071       179.6787 
 148   0.0000       6.671499       181.5407 
 149   0.0000       6.767864       184.1629 
 150   0.0000       6.807416       185.2392 
 151   0.0000       6.872961       187.0228 
 152   0.0000       7.062392       192.1775 
 153   0.0000       7.126780       193.9296 
 154   0.0000       7.219882       196.4630 
 155   0.0000       7.228857       196.7072 
 156   0.0000       7.407892       201.5790 
 157   0.0000       8.041669       218.8249 
 158   0.0000       8.899169       242.1587 
 159   0.0000       9.325757       253.7668 
 160   0.0000       9.571456       260.4526 
 161   0.0000       9.626179       261.9417 
 162   0.0000       9.807281       266.8697 
[...]
  82   0.0000       2.420889        65.8757 
  83   0.0000       2.463971        67.0481 
  84   0.0000       2.502378        68.0932 
  85   0.0000       2.548506        69.3484 
  86   0.0000       2.584397        70.3250 
  87   0.0000       2.600926        70.7748 
  88   0.0000       2.637966        71.7827 
  89   0.0000       2.645732        71.9940 
  90   0.0000       2.657064        72.3024 
  91   0.0000       2.681405        72.9647 
  92   0.0000       2.832837        77.0854 
  93   0.0000       2.861188        77.8569 
  94   0.0000       2.877395        78.2979 
  95   0.0000       2.888891        78.6107 
  96   0.0000       2.905031        79.0499 
  97   0.0000       2.984557        81.2139 
  98   0.0000       3.070204        83.5445 
  99   0.0000       3.092729        84.1574 
 100   0.0000       3.130379        85.1819 
 101   0.0000       3.153498        85.8111 
 102   0.0000       3.185378        86.6786 
 103   0.0000       3.198708        87.0413 
 104   0.0000       3.250693        88.4559 
 105   0.0000       3.270933        89.0066 
 106   0.0000       3.293968        89.6334 
 107   0.0000       3.373999        91.8112 
 108   0.0000       3.445411        93.7544 
 109   0.0000       3.465177        94.2923 
 110   0.0000       3.531093        96.0859 
 111   0.0000       3.574089        97.2559 
 112   0.0000       3.642004        99.1040 
 113   0.0000       3.647961        99.2661 
 114   0.0000       3.670247        99.8725 
 115   0.0000       3.701622       100.7263 
 116   0.0000       3.725304       101.3707 
 117   0.0000       3.997475       108.7768 
 118   0.0000       4.084375       111.1415 
 119   0.0000       4.152499       112.9953 
 120   0.0000       4.216695       114.7421 
 121   0.0000       4.256024       115.8123 
 122   0.0000       4.265801       116.0783 
 123   0.0000       4.304642       117.1353 
 124   0.0000       4.317362       117.4814 
 125   0.0000       4.437691       120.7557 
 126   0.0000       4.508888       122.6931 
 127   0.0000       4.531826       123.3172 
 128   0.0000       4.554834       123.9433 
 129   0.0000       4.594201       125.0146 
 130   0.0000       4.634804       126.1194 
 131   0.0000       5.011809       136.3783 
 132   0.0000       5.072327       138.0250 
 133   0.0000       5.143956       139.9741 
 134   0.0000       5.332974       145.1176 
 135   0.0000       5.340129       145.3123 
 136   0.0000       5.395681       146.8239 
 137   0.0000       5.510505       149.9485 
 138   0.0000       5.549608       151.0125 
 139   0.0000       5.669797       154.2830 
 140   0.0000       5.798877       157.7955 
 141   0.0000       5.845389       159.0611 
 142   0.0000       5.946522       161.8131 
 143   0.0000       6.150386       167.3605 
 144   0.0000       6.191159       168.4700 
 145   0.0000       6.334696       172.3758 
 146   0.0000       6.518244       177.3704 
 147   0.0000       6.595854       179.4823 
 148   0.0000       6.698259       182.2689 
 149   0.0000       6.730981       183.1593 
 150   0.0000       6.798460       184.9955 
 151   0.0000       6.837665       186.0623 
 152   0.0000       7.078334       192.6113 
 153   0.0000       7.097498       193.1327 
 154   0.0000       7.221741       196.5136 
 155   0.0000       7.240398       197.0213 
 156   0.0000       7.427144       202.1029 
 157   0.0000       8.093510       220.2356 
 158   0.0000       8.867611       241.3000 
 159   0.0000       9.365562       254.8499 
 160   0.0000       9.540969       259.6230 
 161   0.0000       9.542412       259.6622 
 162   0.0000       9.779443       266.1122 
 163   0.0000       9.885575       269.0002 
 164   0.0000       9.928183       270.1596 
 165   0.0000      10.105880       274.9950 
 166   0.0000      11.183267       304.3122 
 167   0.0000      19.114053       520.1198 
 168   0.0000      22.350772       608.1954 
 169   0.0000      43.698965      1189.1093 
 170   0.0000      65.968992      1795.1075 
 171   0.0000     126.447433      3440.8096 

                    ********************************
                    * MULLIKEN POPULATION ANALYSIS *
                    ********************************

-----------------------
MULLIKEN ATOMIC CHARGES
-----------------------
   0 C :   -0.000387
   1 O :    0.000037
   2 H :   -0.000270
   3 H :    0.000036
   4 H :   -0.000023
   5 H :   -0.000005
   6 C :   -0.168656
   7 O :   -0.480749
   8 H :    0.313058
   9 H :    0.120600
  10 H :    0.105570
  11 H :    0.110789
Sum of atomic charges:   -0.0000000

--------------------------------
MULLIKEN REDUCED ORBITAL CHARGES
--------------------------------
  0 C s       :     0.000151  s :     0.000151
      pz      :     0.000090  p :     0.000240
      px      :     0.000149
      py      :     0.000001
      dz2     :    -0.000001  d :    -0.000004
      dxz     :     0.000005
      dyz     :    -0.000005
      dx2y2   :    -0.000001
      dxy     :    -0.000002
      f0      :     0.000000  f :    -0.000000
      f+1     :    -0.000000
      f-1     :    -0.000000
      f+2     :     0.000000
      f-2     :    -0.000000
      f+3     :     0.000000
      f-3     :    -0.000000
  1 O s       :    -0.000353  s :    -0.000353
      pz      :    -0.000436  p :     0.000406
      px      :     0.000237
      py      :     0.000606
      dz2     :    -0.000020  d :    -0.000088
      dxz     :    -0.000037
      dyz     :    -0.000014
      dx2y2   :    -0.000009
      dxy     :    -0.000008
      f0      :     0.000000  f :    -0.000002
      f+1     :    -0.000001
      f-1     :    -0.000000
      f+2     :    -0.000000
      f-2     :    -0.000000
      f+3     :     0.000000
      f-3     :    -0.000000
  2 H s       :     0.000274  s :     0.000274
      pz      :    -0.000002  p :    -0.000004
      px      :    -0.000003
      py      :     0.000001
  3 H s       :    -0.000036  s :    -0.000036
      pz      :     0.000000  p :     0.000001
      px      :    -0.000000
      py      :     0.000000
  4 H s       :     0.000023  s :     0.000023
      pz      :     0.000000  p :    -0.000001
      px      :    -0.000000
      py      :    -0.000000
  5 H s       :     0.000005  s :     0.000005
      pz      :     0.000000  p :     0.000000
      px      :     0.000000
      py      :     0.000000
  6 C s       :     3.231279  s :     3.231279
      pz      :     0.829825  p :     2.835917
      px      :     0.958703
      py      :     1.047389
      dz2     :     0.028516  d :     0.094150
      dxz     :     0.017446
      dyz     :     0.020057
      dx2y2   :     0.008291
      dxy     :     0.019840
      f0      :     0.001508  f :     0.007311
      f+1     :     0.001569
      f-1     :     0.000811
      f+2     :     0.001144
      f-2     :     0.001506
      f+3     :     0.000529
      f-3     :     0.000243
  7 O s       :     3.794664  s :     3.794664
      pz      :     1.479318  p :     4.655640
      px      :     1.651963
      py      :     1.524359
      dz2     :     0.004623  d :     0.028817
      dxz     :     0.004462
      dyz     :     0.008735
      dx2y2   :     0.003835
      dxy     :     0.007162
      f0      :     0.000249  f :     0.001628
      f+1     :     0.000416
      f-1     :     0.000082
      f+2     :     0.000223
      f-2     :     0.000423
      f+3     :     0.000213
      f-3     :     0.000023
  8 H s       :     0.640596  s :     0.640596
      pz      :     0.014885  p :     0.046346
      px      :     0.016510
      py      :     0.014951
  9 H s       :     0.860637  s :     0.860637
      pz      :     0.003823  p :     0.018763
      px      :     0.007074
      py      :     0.007866
 10 H s       :     0.875147  s :     0.875147
      pz      :     0.008674  p :     0.019283
      px      :     0.006321
      py      :     0.004288
 11 H s       :     0.869466  s :     0.869466
      pz      :     0.003218  p :     0.019745
      px      :     0.007291
      py      :     0.009235


                     *******************************
                     * LOEWDIN POPULATION ANALYSIS *
                     *******************************

----------------------
LOEWDIN ATOMIC CHARGES
----------------------
   0 C :   -0.001419
   1 O :   -0.012071
   2 H :   -0.001029
   3 H :   -0.000027
   4 H :   -0.000120
   5 H :   -0.000042
   6 C :   -0.379156
   7 O :   -0.089427
   8 H :    0.180205
   9 H :    0.116327
  10 H :    0.096927
  11 H :    0.089832

-------------------------------
LOEWDIN REDUCED ORBITAL CHARGES
-------------------------------
  0 C s       :     0.000240  s :     0.000240
      pz      :     0.000484  p :     0.001166
      px      :     0.000344
      py      :     0.000339
      dz2     :     0.000001  d :     0.000013
      dxz     :     0.000002
      dyz     :     0.000002
      dx2y2   :     0.000006
      dxy     :     0.000002
      f0      :     0.000000  f :     0.000001
      f+1     :     0.000000
      f-1     :     0.000000
      f+2     :     0.000000
      f-2     :     0.000000
      f+3     :     0.000000
      f-3     :     0.000000
  1 O s       :     0.001217  s :     0.001217
      pz      :     0.006261  p :     0.010597
      px      :     0.003479
      py      :     0.000857
      dz2     :     0.000060  d :     0.000250
      dxz     :     0.000139
      dyz     :     0.000016
      dx2y2   :     0.000023
      dxy     :     0.000012
      f0      :     0.000000  f :     0.000008
      f+1     :     0.000005
      f-1     :     0.000000
      f+2     :     0.000002
      f-2     :     0.000001
      f+3     :     0.000000
      f-3     :     0.000000
  2 H s       :     0.001023  s :     0.001023
      pz      :     0.000003  p :     0.000006
      px      :     0.000002
      py      :     0.000001
  3 H s       :     0.000027  s :     0.000027
      pz      :     0.000000  p :     0.000001
      px      :     0.000000
      py      :     0.000000
  4 H s       :     0.000120  s :     0.000120
      pz      :     0.000000  p :     0.000000
      px      :     0.000000
      py      :     0.000000
  5 H s       :     0.000041  s :     0.000041
      pz      :     0.000000  p :     0.000001
      px      :     0.000000
      py      :     0.000000
  6 C s       :     2.869610  s :     2.869610
      pz      :     0.930540  p :     3.054837
      px      :     1.028470
      py      :     1.095827
      dz2     :     0.111496  d :     0.401482
      dxz     :     0.099285
      dyz     :     0.072825
      dx2y2   :     0.022597
      dxy     :     0.095279
      f0      :     0.011229  f :     0.053226
      f+1     :     0.009664
      f-1     :     0.007775
      f+2     :     0.009517
      f-2     :     0.008009
      f+3     :     0.004089
      f-3     :     0.002944
  7 O s       :     3.377546  s :     3.377546
      pz      :     1.487449  p :     4.640446
      px      :     1.608117
      py      :     1.544879
      dz2     :     0.013444  d :     0.067245
      dxz     :     0.013780
      dyz     :     0.019648
      dx2y2   :     0.006452
      dxy     :     0.013920
      f0      :     0.000844  f :     0.004191
      f+1     :     0.000770
      f-1     :     0.000383
      f+2     :     0.000724
      f-2     :     0.000773
      f+3     :     0.000599
      f-3     :     0.000098
  8 H s       :     0.665878  s :     0.665878
      pz      :     0.041106  p :     0.153917
      px      :     0.046993
      py      :     0.065818
  9 H s       :     0.829553  s :     0.829553
      pz      :     0.010704  p :     0.054119
      px      :     0.019831
      py      :     0.023584
 10 H s       :     0.844346  s :     0.844346
      pz      :     0.025278  p :     0.058727
      px      :     0.019788
      py      :     0.013661
 11 H s       :     0.845849  s :     0.845849
      pz      :     0.011314  p :     0.064319
      px      :     0.023188
      py      :     0.029816


                      *****************************
                      * MAYER POPULATION ANALYSIS *
                      *****************************

  NA   - Mulliken gross atomic population
  ZA   - Total nuclear charge
  QA   - Mulliken gross atomic charge
  VA   - Mayer's total valence
  BVA  - Mayer's bonded valence
  FA   - Mayer's free valence

  ATOM       NA         ZA         QA         VA         BVA        FA
  0 C      0.0004     0.0000    -0.0004     0.0008     0.0008    -0.0000
  1 O     -0.0000     0.0000     0.0000    -0.0001    -0.0001     0.0000
  2 H      0.0003     0.0000    -0.0003     0.0005     0.0005     0.0000
  3 H     -0.0000     0.0000     0.0000    -0.0001    -0.0001    -0.0000
  4 H      0.0000     0.0000    -0.0000     0.0000     0.0000    -0.0000
  5 H      0.0000     0.0000    -0.0000     0.0000     0.0000     0.0000
  6 C      6.1687     6.0000    -0.1687     3.9251     3.9251    -0.0000
  7 O      8.4807     8.0000    -0.4807     1.8841     1.8841    -0.0000
  8 H      0.6869     1.0000     0.3131     0.9102     0.9102    -0.0000
  9 H      0.8794     1.0000     0.1206     0.9580     0.9580    -0.0000
 10 H      0.8944     1.0000     0.1056     0.9594     0.9594     0.0000
 11 H      0.8892     1.0000     0.1108     0.9561     0.9561     0.0000

  Mayer bond orders larger than 0.1
B(  6-C ,  7-O ) :   0.9928 B(  6-C ,  9-H ) :   0.9709 B(  6-C , 10-H ) :   0.9774 
B(  6-C , 11-H ) :   0.9728 B(  7-O ,  8-H ) :   0.8975 

-------
TIMINGS
-------

Total SCF time: 0 days 0 hours 0 min 12 sec 

Total time                  ....      12.398 sec
Sum of individual times     ....      12.040 sec  ( 97.1%)

Fock matrix formation       ....      11.489 sec  ( 92.7%)
  XC integration            ....       4.368 sec  ( 38.0% of F)
    Basis function eval.    ....       0.057 sec  (  1.3% of XC)
    Density eval.           ....       0.073 sec  (  1.7% of XC)
    XC-Functional eval.     ....       0.092 sec  (  2.1% of XC)
    XC-Potential eval.      ....       0.060 sec  (  1.4% of XC)
Diagonalization             ....       0.053 sec  (  0.4%)
Density matrix formation    ....       0.005 sec  (  0.0%)
Population analysis         ....       0.020 sec  (  0.2%)
Initial guess               ....       0.106 sec  (  0.9%)
Orbital Transformation      ....       0.000 sec  (  0.0%)
Orbital Orthonormalization  ....       0.000 sec  (  0.0%)
DIIS solution               ....       0.031 sec  (  0.2%)
SOSCF solution              ....       0.042 sec  (  0.3%)
Grid generation             ....       0.295 sec  (  2.4%)


-------------------------------------------------------------------------------
                          DFT DISPERSION CORRECTION                            
                                                                               
                              DFTD3 V3.1  Rev 1                                
                              USING zero damping                               
-------------------------------------------------------------------------------
The omegaB97X-D3 functional is recognized. Fit by Chai et al.
Active option DFTDOPT                   ...         3   

molecular C6(AA) [au] = 208.819774 


            DFT-D V3
 parameters
 s6 scaling factor         :     1.0000 
 rs6 scaling factor        :     1.2810 
 s8 scaling factor         :     1.0000 
 rs8 scaling factor        :     1.0940 
 Damping factor alpha6     :    14.0000 
 Damping factor alpha8     :    16.0000 
 ad hoc parameters k1-k3   :    16.0000     1.3333    -4.0000 

 Edisp/kcal,au: -0.166986762912  -0.000266110317 
 E6   /kcal   :  -0.035540218 
 E8   /kcal   :  -0.131446545 
 % E8         :  78.716745158 

-------------------------   ----------------
Dispersion correction           -0.000266110
-------------------------   ----------------


-------------------------   --------------------
FINAL SINGLE POINT ENERGY      -115.734851283231
-------------------------   --------------------


                            ***************************************
                            *     ORCA property calculations      *
                            ***************************************

                                    ---------------------
                                    Active property flags
                                    ---------------------
   (+) Dipole Moment


------------------------------------------------------------------------------
                       ORCA ELECTRIC PROPERTIES CALCULATION
------------------------------------------------------------------------------

Dipole Moment Calculation                       ... on
Quadrupole Moment Calculation                   ... off
Polarizability Calculation                      ... off
GBWName                                         ... 14-202_DFT_B.gbw
Electron density file                           ... 14-202_DFT_B.scfp.tmp
The origin for moment calculation is the CENTER OF MASS  = (12.538677, -19.754495  5.708830)

-------------
DIPOLE MOMENT
-------------
                                X             Y             Z
Electronic contribution:     -0.93162      -0.63949       1.46029
Nuclear contribution   :      0.97826       1.30297      -1.63106
                        -----------------------------------------
Total Dipole Moment    :      0.04664       0.66347      -0.17077
                        -----------------------------------------
Magnitude (a.u.)       :      0.68668
Magnitude (Debye)      :      1.74540



--------------------
Rotational spectrum 
--------------------
 
Rotational constants in cm-1:     4.313440     0.805199     0.779175 
Rotational constants in MHz : 129313.683236 24139.249424 23359.067785 

 Dipole components along the rotational axes: 
x,y,z [a.u.] :    -0.331481     0.597981    -0.063791 
x,y,z [Debye]:    -0.842557     1.519948    -0.162143 

 
------------------------------------------------------------------------------
                      ORCA CHELPG CHARGES GENERATION
------------------------------------------------------------------------------

GBW file                           ... 14-202_DFT_B.gbw

Reading the GBW file               ... done

Grid spacing                       ...     0.300000
Point Cut-Off                      ...     2.800000
Van-der-Waals Radii                ...        COSMO
Total charge                       ...            0


Number of points X direction       ...           34
Number of points Y direction       ...           30
Number of points Z direction       ...           36
Maximum number of possible points  ...        36720
Final number of points             ...         6077


CHELPG Charges            
--------------------------------
  0   C   :       0.004265
  1   O   :       0.001993
  2   H   :      -0.000803
  3   H   :      -0.003714
  4   H   :       0.007942
  5   H   :      -0.015614
  6   C   :       0.077788
  7   O   :      -0.597700
  8   H   :       0.398253
  9   H   :       0.079292
 10   H   :       0.025522
 11   H   :       0.022775
--------------------------------
Total charge:    -0.000000
--------------------------------

CHELPG charges calculated...

Timings for individual parts in CHELPG calculation:
Grid generation                 ...        0.001 sec (=   0.000 min)
Potential calculation           ...        1.191 sec (=   0.020 min)
Fit to the potential            ...        0.002 sec (=   0.000 min)
------------------------------------------------------------------------------


Timings for individual modules:

Sum of individual times         ...       14.868 sec (=   0.248 min)
GTO integral calculation        ...        0.744 sec (=   0.012 min)   5.0 %
SCF iterations                  ...       12.900 sec (=   0.215 min)  86.8 %
CHELPG charge generation        ...        1.224 sec (=   0.020 min)   8.2 %



                             ****ORCA TERMINATED NORMALLY****
TOTAL RUN TIME: 0 days 0 hours 1 minutes 8 seconds 710 msec
