
                                 *****************
                                 * O   R   C   A *
                                 *****************

           --- An Ab Initio, DFT and Semiempirical electronic structure package ---

                  #######################################################
                  #                        -***-                        #
                  #          Department of theory and spectroscopy      #
                  #               Directorship: Frank Neese             #
                  #        Max Planck Institute fuer Kohlenforschung    #
                  #                Kaiser Wilhelm Platz 1               #
                  #                 D-45470 Muelheim/Ruhr               #
                  #                      Germany                        #
                  #                                                     #
                  #                  All rights reserved                #
                  #                        -***-                        #
                  #######################################################


                         Program Version 4.1.2  - RELEASE  -


 With contributions from (in alphabetic order):
   Daniel Aravena         : Magnetic Properties
   Michael Atanasov       : Ab Initio Ligand Field Theory
   Alexander A. Auer      : GIAO ZORA
   Ute Becker             : Parallelization
   Giovanni Bistoni       : ED, Open-shell LED
   Martin Brehm           : Molecular dynamics
   Dmytro Bykov           : SCF Hessian
   Vijay G. Chilkuri      : MRCI spin determinant printing
   Dipayan Datta          : RHF DLPNO-CCSD density
   Achintya Kumar Dutta   : EOM-CC, STEOM-CC
   Dmitry Ganyushin       : Spin-Orbit,Spin-Spin,Magnetic field MRCI
   Miquel Garcia          : C-PCM Hessian
   Yang Guo               : DLPNO-NEVPT2, CIM, IAO-localization
   Andreas Hansen         : Spin unrestricted coupled pair/coupled cluster methods
   Benjamin Helmich-Paris : CASSCF linear response (MC-RPA)
   Lee Huntington         : MR-EOM, pCC
   Robert Izsak           : Overlap fitted RIJCOSX, COSX-SCS-MP3, EOM
   Christian Kollmar      : KDIIS, OOCD, Brueckner-CCSD(T), CCSD density
   Simone Kossmann        : Meta GGA functionals, TD-DFT gradient, OOMP2, MP2 Hessian
   Martin Krupicka        : AUTO-CI
   Lucas Lang             : DCDCAS
   Dagmar Lenk            : GEPOL surface, SMD
   Dimitrios Liakos       : Extrapolation schemes; parallel MDCI
   Dimitrios Manganas     : ROCIS; embedding schemes
   Dimitrios Pantazis     : SARC Basis sets
   Taras Petrenko         : DFT Hessian,TD-DFT gradient, ASA, ECA, R-Raman, ABS, FL, XAS/XES, NRVS
   Peter Pinski           : DLPNO-MP2, DLPNO-MP2 Gradient
   Christoph Reimann      : Effective Core Potentials
   Marius Retegan         : Local ZFS, SOC
   Christoph Riplinger    : Optimizer, TS searches, QM/MM, DLPNO-CCSD(T), (RO)-DLPNO pert. Triples
   Tobias Risthaus        : Range-separated hybrids, TD-DFT gradient, RPA, STAB
   Michael Roemelt        : Restricted open shell CIS
   Masaaki Saitow         : Open-shell DLPNO
   Barbara Sandhoefer     : DKH picture change effects
   Avijit Sen             : IP-ROCIS
   Kantharuban Sivalingam : CASSCF convergence, NEVPT2, FIC-MRCI
   Bernardo de Souza      : ESD, SOC TD-DFT
   Georgi Stoychev        : AutoAux, RI-MP2 NMR
   Willem Van den Heuvel  : Paramagnetic NMR
   Boris Wezisla          : Elementary symmetry handling
   Frank Wennmohs         : Technical directorship


 We gratefully acknowledge several colleagues who have allowed us to
 interface, adapt or use parts of their codes:
   Stefan Grimme, W. Hujo, H. Kruse,             : VdW corrections, initial TS optimization,
                  C. Bannwarth                     DFT functionals, gCP, sTDA/sTD-DF
   Ed Valeev                                     : LibInt (2-el integral package), F12 methods
   Garnet Chan, S. Sharma, J. Yang, R. Olivares  : DMRG
   Ulf Ekstrom                                   : XCFun DFT Library
   Mihaly Kallay                                 : mrcc  (arbitrary order and MRCC methods)
   Andreas Klamt, Michael Diedenhofen            : otool_cosmo (COSMO solvation model)
   Jiri Pittner, Ondrej Demel                    : Mk-CCSD
   Frank Weinhold                                : gennbo (NPA and NBO analysis)
   Christopher J. Cramer and Donald G. Truhlar   : smd solvation model
   Lars Goerigk                                  : TD-DFT with DH, B97 family of functionals
   V. Asgeirsson, H. Jonsson                     : NEB implementation
   FAccTs GmbH                                   : IRC, NEB, NEB-TS, Multilevel


 Your calculation uses the libint2 library for the computation of 2-el integrals
 For citations please refer to: http://libint.valeyev.net

 This ORCA versions uses:
   CBLAS   interface :  Fast vector & matrix operations
   LAPACKE interface :  Fast linear algebra routines
   SCALAPACK package :  Parallel linear algebra routines


Your calculation utilizes the atom-pairwise dispersion correction
with the zero-damping scheme (D30)
Cite in your paper:
S.Grimme, J.Antony, S.Ehrlich and H.Krieg, J.Chem.Phys., 132, (2010), 154104 
   

XCFun DFT library Copyright 2009-2010 Ulf Ekstrom and contributors.
See http://admol.org/xcfun for more information. This is free soft-
ware; see the source code for copying conditions. There is ABSOLUTELY
NO WARRANTY; not even for MERCHANTABILITY or FITNESS FOR A PARTICULAR
PURPOSE. For details see the documentation. Scientific users of this 
library should cite U. Ekstrom, L. Visscher, R. Bast, A. J. Thorvald-
sen and K. Ruud; J.Chem.Theor.Comp. 2010, DOI: 10.1021/ct100117s
XCFun Version 0.99 
----- Orbital basis set information -----
Your calculation utilizes the basis: def2-TZVP
   F. Weigend and R. Ahlrichs, Phys. Chem. Chem. Phys. 7, 3297 (2005).

================================================================================
                                        WARNINGS
                       Please study these warnings very carefully!
================================================================================


INFO   : the flag for use of LIBINT has been found!

Your calculation utilizes the atom-pairwise dispersion correction
with the zero-damping scheme (D30)
Cite in your paper:
S.Grimme, J.Antony, S.Ehrlich and H.Krieg, J.Chem.Phys., 132, (2010), 154104 
   

XCFun DFT library Copyright 2009-2010 Ulf Ekstrom and contributors.
See http://admol.org/xcfun for more information. This is free soft-
ware; see the source code for copying conditions. There is ABSOLUTELY
NO WARRANTY; not even for MERCHANTABILITY or FITNESS FOR A PARTICULAR
PURPOSE. For details see the documentation. Scientific users of this 
library should cite U. Ekstrom, L. Visscher, R. Bast, A. J. Thorvald-
sen and K. Ruud; J.Chem.Theor.Comp. 2010, DOI: 10.1021/ct100117s
XCFun Version 0.99 
----- Orbital basis set information -----
Your calculation utilizes the basis: def2-TZVP
   F. Weigend and R. Ahlrichs, Phys. Chem. Chem. Phys. 7, 3297 (2005).

================================================================================
                                        WARNINGS
                       Please study these warnings very carefully!
================================================================================


WARNING: MOInp is set but Guess=PModel. MOInp will be ignored!
         To read the initial guess from a file you must also specify
         'MORead' in the simple input or 'Guess MORead' in the %scf block


INFO   : the flag for use of LIBINT has been found!

Your calculation utilizes the atom-pairwise dispersion correction
with the zero-damping scheme (D30)
Cite in your paper:
S.Grimme, J.Antony, S.Ehrlich and H.Krieg, J.Chem.Phys., 132, (2010), 154104 
   

XCFun DFT library Copyright 2009-2010 Ulf Ekstrom and contributors.
See http://admol.org/xcfun for more information. This is free soft-
ware; see the source code for copying conditions. There is ABSOLUTELY
NO WARRANTY; not even for MERCHANTABILITY or FITNESS FOR A PARTICULAR
PURPOSE. For details see the documentation. Scientific users of this 
library should cite U. Ekstrom, L. Visscher, R. Bast, A. J. Thorvald-
sen and K. Ruud; J.Chem.Theor.Comp. 2010, DOI: 10.1021/ct100117s
XCFun Version 0.99 
----- Orbital basis set information -----
Your calculation utilizes the basis: def2-TZVP
   F. Weigend and R. Ahlrichs, Phys. Chem. Chem. Phys. 7, 3297 (2005).

================================================================================
                                        WARNINGS
                       Please study these warnings very carefully!
================================================================================


WARNING: MOInp is set but Guess=PModel. MOInp will be ignored!
         To read the initial guess from a file you must also specify
         'MORead' in the simple input or 'Guess MORead' in the %scf block


INFO   : the flag for use of LIBINT has been found!

================================================================================
                                       INPUT FILE
================================================================================
NAME = 7-12.in
|  1> #Run DFT-D3 single point of the dimer
|  2> ! wB97X-D3 def2-TZVP TIGHTSCF CHELPG PMODEL PAL8
|  3> 
|  4> %base "7-12_DFT_AB"
|  5> 
|  6> %scf
|  7> MaxIter 1000
|  8> end
|  9> 
| 10> * xyz 0 1
| 11>   C                      0.107441             2.741054             -3.055841           
| 12>   O                      0.093632             2.479985             -1.676650           
| 13>   H                      -0.116713            3.352322             -1.369150           
| 14>   H                      0.781831             3.560905             -3.329535           
| 15>   H                      0.429337             1.873700             -3.602147           
| 16>   H                      -0.921354            2.900499             -3.482296           
| 17>   C                      4.556806             5.347333             -2.628685           
| 18>   O                      3.423993             5.475076             -1.851315           
| 19>   H                      3.701064             5.189540             -1.017325           
| 20>   H                      4.699981             6.061713             -3.358107           
| 21>   H                      5.501978             5.323743             -2.028070           
| 22>   H                      4.491684             4.380159             -3.170814           
| 23> *
| 24> 
| 25> #Run DFT-D3 single point of the molecule with dimer basis set
| 26> $new_job
| 27> %base "7-12_DFT_A"
| 28> ! wB97X-D3 def2-TZVP TIGHTSCF CHELPG PMODEL
| 29> 
| 30> %scf
| 31> MaxIter 1000
| 32> end
| 33> 
| 34> * xyz 0 1
| 35>   C                      0.107441             2.741054             -3.055841           
| 36>   O                      0.093632             2.479985             -1.676650           
| 37>   H                      -0.116713            3.352322             -1.369150           
| 38>   H                      0.781831             3.560905             -3.329535           
| 39>   H                      0.429337             1.873700             -3.602147           
| 40>   H                      -0.921354            2.900499             -3.482296           
| 41>   C                    : 4.556806             5.347333             -2.628685           
| 42>   O                    : 3.423993             5.475076             -1.851315           
| 43>   H                    : 3.701064             5.189540             -1.017325           
| 44>   H                    : 4.699981             6.061713             -3.358107           
| 45>   H                    : 5.501978             5.323743             -2.028070           
| 46>   H                    : 4.491684             4.380159             -3.170814           
| 47> *
| 48> 
| 49> #Run DFT-D3 single point of the particle with dimer basis set
| 50> $new_job
| 51> %base "7-12_DFT_B"
| 52> ! wB97X-D3 def2-TZVP TIGHTSCF CHELPG PMODEL
| 53> 
| 54> %scf
| 55> MaxIter 1000
| 56> end
| 57> 
| 58> * xyz 0 1
| 59>   C                    : 0.107441             2.741054             -3.055841           
| 60>   O                    : 0.093632             2.479985             -1.676650           
| 61>   H                    : -0.116713            3.352322             -1.369150           
| 62>   H                    : 0.781831             3.560905             -3.329535           
| 63>   H                    : 0.429337             1.873700             -3.602147           
| 64>   H                    : -0.921354            2.900499             -3.482296           
| 65>   C                      4.556806             5.347333             -2.628685           
| 66>   O                      3.423993             5.475076             -1.851315           
| 67>   H                      3.701064             5.189540             -1.017325           
| 68>   H                      4.699981             6.061713             -3.358107           
| 69>   H                      5.501978             5.323743             -2.028070           
| 70>   H                      4.491684             4.380159             -3.170814           
| 71> *
| 72> 
| 73>                          ****END OF INPUT****
================================================================================


                 $$$$$$$$$$$$$$$$$$$$$$$$$$$$$$$$$$$$$$$$$$$$$$ 
                 $ THERE ARE  3 JOBS TO BE PROCESSED THIS RUN $
                 $$$$$$$$$$$$$$$$$$$$$$$$$$$$$$$$$$$$$$$$$$$$$$ 




                 $$$$$$$$$$$$$$$$  JOB NUMBER  1 $$$$$$$$$$$$$$


                       ****************************
                       * Single Point Calculation *
                       ****************************

---------------------------------
CARTESIAN COORDINATES (ANGSTROEM)
---------------------------------
  C      0.107441    2.741054   -3.055841
  O      0.093632    2.479985   -1.676650
  H     -0.116713    3.352322   -1.369150
  H      0.781831    3.560905   -3.329535
  H      0.429337    1.873700   -3.602147
  H     -0.921354    2.900499   -3.482296
  C      4.556806    5.347333   -2.628685
  O      3.423993    5.475076   -1.851315
  H      3.701064    5.189540   -1.017325
  H      4.699981    6.061713   -3.358107
  H      5.501978    5.323743   -2.028070
  H      4.491684    4.380159   -3.170814

----------------------------
CARTESIAN COORDINATES (A.U.)
----------------------------
  NO LB      ZA    FRAG     MASS         X           Y           Z
   0 C     6.0000    0    12.011    0.203034    5.179841   -5.774703
   1 O     8.0000    0    15.999    0.176939    4.686492   -3.168409
   2 H     1.0000    0     1.008   -0.220556    6.334970   -2.587319
   3 H     1.0000    0     1.008    1.477446    6.729135   -6.291909
   4 H     1.0000    0     1.008    0.811329    3.540780   -6.807071
   5 H     1.0000    0     1.008   -1.741107    5.481149   -6.580586
   6 C     6.0000    0    12.011    8.611115   10.104995   -4.967495
   7 O     8.0000    0    15.999    6.470409   10.346394   -3.498478
   8 H     1.0000    0     1.008    6.993997    9.806809   -1.922466
   9 H     1.0000    0     1.008    8.881677   11.454977   -6.345903
  10 H     1.0000    0     1.008   10.397232   10.060416   -3.832497
  11 H     1.0000    0     1.008    8.488053    8.277301   -5.991970

--------------------------------
INTERNAL COORDINATES (ANGSTROEM)
--------------------------------
 C      0   0   0     0.000000000000     0.00000000     0.00000000
 O      1   0   0     1.403750521184     0.00000000     0.00000000
 H      2   1   0     0.948563709296    98.60663363     0.00000000
 H      1   2   3     1.096296465349   112.98058937    54.48233895
 H      1   2   3     1.074416233016   110.63304805   174.42528160
 H      1   2   3     1.125035878128   112.94138902   287.15490410
 C      4   1   2     4.234731629314   145.33840153    40.77441102
 O      7   4   1     1.379814365746    53.16158184   280.54469979
 H      8   7   4     0.924033801566   103.51535551   123.22970168
 H      7   4   1     1.030967661524   107.39836946   169.90588845
 H      7   4   1     1.120109358906   146.31175446   356.69668205
 H      7   4   1     1.110662088036    59.97335727    71.79456759

---------------------------
INTERNAL COORDINATES (A.U.)
---------------------------
 C      0   0   0     0.000000000000     0.00000000     0.00000000
 O      1   0   0     2.652704045386     0.00000000     0.00000000
 H      2   1   0     1.792525631147    98.60663363     0.00000000
 H      1   2   3     2.071700081096   112.98058937    54.48233895
 H      1   2   3     2.030352434239   110.63304805   174.42528160
 H      1   2   3     2.126009700497   112.94138902   287.15490410
 C      4   1   2     8.002483030057   145.33840153    40.77441102
 O      7   4   1     2.607471266909    53.16158184   280.54469979
 H      8   7   4     1.746170823446   103.51535551   123.22970168
 H      7   4   1     1.948246533210   107.39836946   169.90588845
 H      7   4   1     2.116699928375   146.31175446   356.69668205
 H      7   4   1     2.098847173718    59.97335727    71.79456759

---------------------
BASIS SET INFORMATION
---------------------
There are 3 groups of distinct atoms

 Group   1 Type C   : 11s6p2d1f contracted to 5s3p2d1f pattern {62111/411/11/1}
 Group   2 Type O   : 11s6p2d1f contracted to 5s3p2d1f pattern {62111/411/11/1}
 Group   3 Type H   : 5s1p contracted to 3s1p pattern {311/1}

Atom   0C    basis set group =>   1
Atom   1O    basis set group =>   2
Atom   2H    basis set group =>   3
Atom   3H    basis set group =>   3
Atom   4H    basis set group =>   3
Atom   5H    basis set group =>   3
Atom   6C    basis set group =>   1
Atom   7O    basis set group =>   2
Atom   8H    basis set group =>   3
Atom   9H    basis set group =>   3
Atom  10H    basis set group =>   3
Atom  11H    basis set group =>   3


           ************************************************************
           *        Program running with 8 parallel MPI-processes     *
           *              working on a common directory               *
           ************************************************************
------------------------------------------------------------------------------
                           ORCA GTO INTEGRAL CALCULATION
------------------------------------------------------------------------------

                         BASIS SET STATISTICS AND STARTUP INFO

 # of primitive gaussian shells          ...  128
 # of primitive gaussian functions       ...  248
 # of contracted shells                  ...   76
 # of contracted basis functions         ...  172
 Highest angular momentum                ...    3
 Maximum contraction depth               ...    6
 Integral package used                   ... LIBINT
 Integral threshhold            Thresh   ...  2.500e-11
 Primitive cut-off              TCut     ...  2.500e-12


------------------------------ INTEGRAL EVALUATION ----------------------------


 * One electron integrals 
 Pre-screening matrix                    ... done
 Shell pair data                         ... done (   0.001 sec)



           ************************************************************
           *        Program running with 8 parallel MPI-processes     *
           *              working on a common directory               *
           ************************************************************
-------------------------------------------------------------------------------
                                 ORCA SCF
-------------------------------------------------------------------------------

------------
SCF SETTINGS
------------
Hamiltonian:
 Density Functional     Method          .... DFT(GTOs)
 Exchange Functional    Exchange        .... WB97X-D3
 Correlation Functional Correlation     .... WB97X-D3
 Gradients option       PostSCFGGA      .... off
 Hybrid DFT is turned on
   Fraction HF Exchange ScalHFX         ....  0.195728
   Scaling of DF-GGA-X  ScalDFX         ....  0.000000
   Scaling of DF-GGA-C  ScalDFC         ....  1.000000
   Scaling of DF-LDA-C  ScalLDAC        ....  1.000000
   Perturbative correction              ....  0.000000
   Density functional embedding theory  .... OFF
 Long-range corrected/Screened/Range-Separated Hybrid DFT is turned on
   Amount of maximum screened exact exchange              ....  0.804272
   Range separation parameter mu (erf(mu*r12)/r12)        ....  0.250000


General Settings:
 Integral files         IntName         .... 7-12_DFT_AB
 Hartree-Fock type      HFTyp           .... RHF
 Total Charge           Charge          ....    0
 Multiplicity           Mult            ....    1
 Number of Electrons    NEL             ....   36
 Basis Dimension        Dim             ....  172
 Nuclear Repulsion      ENuc            ....    117.0550488352 Eh

Convergence Acceleration:
 DIIS                   CNVDIIS         .... on
   Start iteration      DIISMaxIt       ....    12
   Startup error        DIISStart       ....  0.200000
   # of expansion vecs  DIISMaxEq       ....     5
   Bias factor          DIISBfac        ....   1.050
   Max. coefficient     DIISMaxC        ....  10.000
 Newton-Raphson         CNVNR           .... off
 SOSCF                  CNVSOSCF        .... on
   Start iteration      SOSCFMaxIt      ....   150
   Startup grad/error   SOSCFStart      ....  0.003300
 Level Shifting         CNVShift        .... on
   Level shift para.    LevelShift      ....    0.2500
   Turn off err/grad.   ShiftErr        ....    0.0010
 Zerner damping         CNVZerner       .... off
 Static damping         CNVDamp         .... on
   Fraction old density DampFac         ....    0.7000
   Max. Damping (<1)    DampMax         ....    0.9800
   Min. Damping (>=0)   DampMin         ....    0.0000
   Turn off err/grad.   DampErr         ....    0.1000
 Fernandez-Rico         CNVRico         .... off

SCF Procedure:
 Maximum # iterations   MaxIter         ....  1000
 SCF integral mode      SCFMode         .... Direct
   Integral package                     .... LIBINT
 Reset frequency        DirectResetFreq ....    20
 Integral Threshold     Thresh          ....  2.500e-11 Eh
 Primitive CutOff       TCut            ....  2.500e-12 Eh

Convergence Tolerance:
 Convergence Check Mode ConvCheckMode   .... Total+1el-Energy
 Convergence forced     ConvForced      .... 0
 Energy Change          TolE            ....  1.000e-08 Eh
 1-El. energy change                    ....  1.000e-05 Eh
 Orbital Gradient       TolG            ....  1.000e-05
 Orbital Rotation angle TolX            ....  1.000e-05
 DIIS Error             TolErr          ....  5.000e-07


Diagonalization of the overlap matrix:
Smallest eigenvalue                        ... 1.502e-03
Time for diagonalization                   ...    0.004 sec
Threshold for overlap eigenvalues          ... 1.000e-08
Number of eigenvalues below threshold      ... 0
Time for construction of square roots      ...    0.013 sec
Total time needed                          ...    0.018 sec

-------------------
DFT GRID GENERATION
-------------------

General Integration Accuracy     IntAcc      ...  4.340
Radial Grid Type                 RadialGrid  ... Gauss-Chebyshev
Angular Grid (max. acc.)         AngularGrid ... Lebedev-110
Angular grid pruning method      GridPruning ... 3 (G Style)
Weight generation scheme         WeightScheme... Becke
Basis function cutoff            BFCut       ...    1.0000e-11
Integration weight cutoff        WCut        ...    1.0000e-14
Grids for H and He will be reduced by one unit

# of grid points (after initial pruning)     ...  13096 (   0.0 sec)
# of grid points (after weights+screening)   ...  12564 (   0.0 sec)
nearest neighbour list constructed           ...    0.0 sec
Grid point re-assignment to atoms done       ...    0.0 sec
Grid point division into batches done        ...    0.0 sec
Reduced shell lists constructed in    0.0 sec

Total number of grid points                  ...    12564
Total number of batches                      ...      201
Average number of points per batch           ...       62
Average number of grid points per atom       ...     1047
Average number of shells per batch           ...    45.22 (59.50%)
Average number of basis functions per batch  ...    98.26 (57.13%)
Average number of large shells per batch     ...    36.81 (81.41%)
Average number of large basis fcns per batch ...    82.44 (83.91%)
Maximum spatial batch extension              ...  23.25, 16.78, 15.98 au
Average spatial batch extension              ...   0.46,  0.40,  0.41 au

Time for grid setup =    0.044 sec

------------------------------
INITIAL GUESS: MODEL POTENTIAL
------------------------------
Loading Hartree-Fock densities                     ... done
Calculating cut-offs                               ... done
Setting up the integral package                    ... done
Initializing the effective Hamiltonian             ... done
Starting the Coulomb interaction                   ... done (   0.0 sec)
Reading the grid                                   ... done
Mapping shells                                     ... done
Starting the XC term evaluation                    ... done (   0.0 sec)
  promolecular density results
     # of electrons  =     35.993184153
     EX              =    -28.890494022
     EC              =     -1.155128158
     EX+EC           =    -30.045622181
Transforming the Hamiltonian                       ... done (   0.0 sec)
Diagonalizing the Hamiltonian                      ... done (   0.0 sec)
Back transforming the eigenvectors                 ... done (   0.0 sec)
Now organizing SCF variables                       ... done
                      ------------------
                      INITIAL GUESS DONE (   0.2 sec)
                      ------------------
--------------
SCF ITERATIONS
--------------
ITER       Energy         Delta-E        Max-DP      RMS-DP      [F,P]     Damp
               ***  Starting incremental Fock matrix formation  ***
  0   -231.2879700284   0.000000000000 0.03809308  0.00106417  0.2488729 0.7000
  1   -231.3620010917  -0.074031063286 0.02224182  0.00075787  0.1252848 0.7000
                               ***Turning on DIIS***
  2   -231.3963679124  -0.034366820757 0.03444017  0.00137701  0.0496726 0.0000
  3   -231.4521895160  -0.055821603595 0.01837395  0.00049697  0.0614983 0.0000
  4   -231.4612161254  -0.009026609330 0.00405166  0.00009670  0.0064893 0.0000
                      *** Initiating the SOSCF procedure ***
                           *** Shutting down DIIS ***
                      *** Re-Reading the Fockian *** 
                      *** Removing any level shift *** 
ITER      Energy       Delta-E        Grad      Rot      Max-DP    RMS-DP
  5   -231.46139877  -0.0001826406  0.000420  0.000420  0.000796  0.000033
               *** Restarting incremental Fock matrix formation ***
  6   -231.46141529  -0.0000165249  0.000166  0.000217  0.000533  0.000021
  7   -231.46141686  -0.0000015728  0.000051  0.000132  0.000277  0.000010
  8   -231.46141698  -0.0000001188  0.000047  0.000029  0.000061  0.000002
  9   -231.46141702  -0.0000000426  0.000012  0.000010  0.000019  0.000001
 10   -231.46141703  -0.0000000022  0.000003  0.000004  0.000006  0.000000
                  ***Gradient check signals convergence***
              ***Rediagonalizing the Fockian in SOSCF/NRSCF***

               *****************************************************
               *                     SUCCESS                       *
               *           SCF CONVERGED AFTER  11 CYCLES          *
               *****************************************************

Setting up the final grid:

General Integration Accuracy     IntAcc      ...  4.670
Radial Grid Type                 RadialGrid  ... Gauss-Chebyshev
Angular Grid (max. acc.)         AngularGrid ... Lebedev-302
Angular grid pruning method      GridPruning ... 3 (G Style)
Weight generation scheme         WeightScheme... Becke
Basis function cutoff            BFCut       ...    1.0000e-11
Integration weight cutoff        WCut        ...    1.0000e-14
Grids for H and He will be reduced by one unit

# of grid points (after initial pruning)     ...  52000 (   0.0 sec)
# of grid points (after weights+screening)   ...  49471 (   0.0 sec)
nearest neighbour list constructed           ...    0.0 sec
Grid point re-assignment to atoms done       ...    0.0 sec
Grid point division into batches done        ...    0.2 sec
Reduced shell lists constructed in    0.2 sec

Total number of grid points                  ...    49471
Total number of batches                      ...      779
Average number of points per batch           ...       63
Average number of grid points per atom       ...     4123
Average number of shells per batch           ...    44.02 (57.92%)
Average number of basis functions per batch  ...    95.33 (55.43%)
Average number of large shells per batch     ...    35.65 (80.98%)
Average number of large basis fcns per batch ...    80.01 (83.93%)
Maximum spatial batch extension              ...  15.71, 15.21, 14.85 au
Average spatial batch extension              ...   0.27,  0.25,  0.26 au

Final grid set up in    0.2 sec
Final integration                            ... done (   0.1 sec)
Change in XC energy                          ...    -0.000240428
Integrated number of electrons               ...    35.999998018
Previous integrated no of electrons          ...    36.001461341

----------------
TOTAL SCF ENERGY
----------------

Total Energy       :         -231.46165746 Eh           -6298.39190 eV

Components:
Nuclear Repulsion  :          117.05504884 Eh            3185.22981 eV
Electronic Energy  :         -348.51670629 Eh           -9483.62172 eV
One Electron Energy:         -546.79899178 Eh          -14879.15701 eV
Two Electron Energy:          198.28228548 Eh            5395.53529 eV

Virial components:
Potential Energy   :         -462.18142031 Eh          -12576.59583 eV
Kinetic Energy     :          230.71976286 Eh            6278.20393 eV
Virial Ratio       :            2.00321557


DFT components:
N(Alpha)           :       17.999999008882 electrons
N(Beta)            :       17.999999008882 electrons
N(Total)           :       35.999998017765 electrons
E(XC)              :      -21.349156663601 Eh       
DFET-embed. en.    :        0.000000000000 Eh       

---------------
SCF CONVERGENCE
---------------

  Last Energy change         ...   -7.0358e-10  Tolerance :   1.0000e-08
  Last MAX-Density change    ...    1.9307e-06  Tolerance :   1.0000e-07
  Last RMS-Density change    ...    7.3339e-08  Tolerance :   5.0000e-09
  Last Orbital Gradient      ...    7.2551e-07  Tolerance :   1.0000e-05
  Last Orbital Rotation      ...    1.4113e-06  Tolerance :   1.0000e-05

             **** THE GBW FILE WAS UPDATED (7-12_DFT_AB.gbw) ****
             **** DENSITY FILE WAS UPDATED (7-12_DFT_AB.scfp.tmp) ****
             **** ENERGY FILE WAS UPDATED (7-12_DFT_AB.en.tmp) ****
----------------
ORBITAL ENERGIES
----------------

  NO   OCC          E(Eh)            E(eV) 
   0   2.0000     -19.232721      -523.3489 
   1   2.0000     -19.228110      -523.2235 
   2   2.0000     -10.310654      -280.5671 
   3   2.0000     -10.306534      -280.4551 
   4   2.0000      -1.161942       -31.6180 
   5   2.0000      -1.143493       -31.1160 
   6   2.0000      -0.801949       -21.8221 
   7   2.0000      -0.785975       -21.3875 
   8   2.0000      -0.624688       -16.9986 
   9   2.0000      -0.604878       -16.4596 
  10   2.0000      -0.551192       -14.9987 
  11   2.0000      -0.540447       -14.7063 
  12   2.0000      -0.537635       -14.6298 
  13   2.0000      -0.523136       -14.2353 
  14   2.0000      -0.441320       -12.0089 
  15   2.0000      -0.434249       -11.8165 
  16   2.0000      -0.374811       -10.1991 
  17   2.0000      -0.370028       -10.0690 
  18   0.0000       0.105222         2.8632 
  19   0.0000       0.131562         3.5800 
  20   0.0000       0.152384         4.1466 
  21   0.0000       0.165887         4.5140 
  22   0.0000       0.188564         5.1311 
  23   0.0000       0.208751         5.6804 
  24   0.0000       0.211056         5.7431 
  25   0.0000       0.214726         5.8430 
  26   0.0000       0.229864         6.2549 
  27   0.0000       0.246491         6.7073 
  28   0.0000       0.298519         8.1231 
  29   0.0000       0.316945         8.6245 
  30   0.0000       0.321938         8.7604 
  31   0.0000       0.333561         9.0767 
  32   0.0000       0.404987        11.0203 
  33   0.0000       0.411314        11.1924 
  34   0.0000       0.444022        12.0824 
  35   0.0000       0.463795        12.6205 
  36   0.0000       0.484936        13.1958 
  37   0.0000       0.510237        13.8843 
  38   0.0000       0.526185        14.3182 
  39   0.0000       0.536098        14.5880 
  40   0.0000       0.546243        14.8640 
  41   0.0000       0.565393        15.3851 
  42   0.0000       0.568030        15.4569 
  43   0.0000       0.583472        15.8771 
  44   0.0000       0.606643        16.5076 
  45   0.0000       0.623388        16.9633 
  46   0.0000       0.629052        17.1174 
  47   0.0000       0.663553        18.0562 
  48   0.0000       0.680695        18.5227 
  49   0.0000       0.695034        18.9128 
  50   0.0000       0.747951        20.3528 
  51   0.0000       0.769661        20.9435 
  52   0.0000       0.791038        21.5252 
  53   0.0000       0.809396        22.0248 
  54   0.0000       0.855885        23.2898 
  55   0.0000       0.875004        23.8101 
  56   0.0000       0.982289        26.7294 
  57   0.0000       1.005455        27.3598 
  58   0.0000       1.041194        28.3323 
  59   0.0000       1.066046        29.0086 
  60   0.0000       1.117004        30.3952 
  61   0.0000       1.120526        30.4911 
  62   0.0000       1.366929        37.1960 
  63   0.0000       1.379394        37.5352 
  64   0.0000       1.477507        40.2050 
  65   0.0000       1.512720        41.1632 
  66   0.0000       1.550421        42.1891 
  67   0.0000       1.558850        42.4185 
  68   0.0000       1.597939        43.4821 
  69   0.0000       1.619821        44.0776 
  70   0.0000       1.625942        44.2441 
  71   0.0000       1.630851        44.3777 
  72   0.0000       1.642861        44.7045 
  73   0.0000       1.648119        44.8476 
  74   0.0000       1.665111        45.3100 
  75   0.0000       1.678010        45.6610 
  76   0.0000       1.692349        46.0512 
  77   0.0000       1.720206        46.8092 
  78   0.0000       1.773950        48.2716 
  79   0.0000       1.825464        49.6734 
  80   0.0000       1.950580        53.0780 
  81   0.0000       1.958042        53.2810 
  82   0.0000       2.038880        55.4807 
  83   0.0000       2.044210        55.6258 
  84   0.0000       2.065716        56.2110 
  85   0.0000       2.073778        56.4304 
  86   0.0000       2.077719        56.5376 
  87   0.0000       2.105432        57.2917 
  88   0.0000       2.138275        58.1854 
  89   0.0000       2.169873        59.0452 
  90   0.0000       2.255067        61.3635 
  91   0.0000       2.267793        61.7098 
  92   0.0000       2.299952        62.5849 
  93   0.0000       2.342068        63.7309 
  94   0.0000       2.378779        64.7299 
  95   0.0000       2.392204        65.0952 
  96   0.0000       2.401809        65.3565 
  97   0.0000       2.419015        65.8248 
  98   0.0000       2.431569        66.1664 
  99   0.0000       2.468081        67.1599 
 100   0.0000       2.530007        68.8450 
 101   0.0000       2.544171        69.2304 
 102   0.0000       2.562217        69.7215 
 103   0.0000       2.579316        70.1867 
 104   0.0000       2.651181        72.1423 
 105   0.0000       2.676220        72.8236 
 106   0.0000       2.706685        73.6526 
 107   0.0000       2.739710        74.5513 
 108   0.0000       2.842140        77.3386 
 109   0.0000       2.862176        77.8838 
 110   0.0000       2.877509        78.3010 
 111   0.0000       2.897565        78.8468 
 112   0.0000       2.909759        79.1786 
 113   0.0000       2.956618        80.4537 
 114   0.0000       2.968257        80.7704 
 115   0.0000       2.980107        81.0928 
 116   0.0000       3.103502        84.4506 
 117   0.0000       3.109292        84.6081 
 118   0.0000       3.174704        86.3881 
 119   0.0000       3.186001        86.6955 
 120   0.0000       3.261016        88.7368 
 121   0.0000       3.283353        89.3446 
 122   0.0000       3.379443        91.9593 
 123   0.0000       3.380405        91.9855 
 124   0.0000       3.422002        93.1174 
 125   0.0000       3.491862        95.0184 
 126   0.0000       3.500736        95.2599 
 127   0.0000       3.552144        96.6588 
 128   0.0000       3.623239        98.5933 
 129   0.0000       3.628773        98.7439 
 130   0.0000       3.647930        99.2652 
 131   0.0000       3.677350       100.0658 
 132   0.0000       3.687817       100.3506 
 133   0.0000       3.689469       100.3956 
 134   0.0000       4.032634       109.7336 
 135   0.0000       4.041341       109.9705 
 136   0.0000       4.184654       113.8702 
 137   0.0000       4.271341       116.2291 
 138   0.0000       4.329966       117.8244 
 139   0.0000       4.354690       118.4972 
 140   0.0000       4.426112       120.4406 
 141   0.0000       4.443279       120.9078 
 142   0.0000       4.523812       123.0992 
 143   0.0000       4.529148       123.2444 
 144   0.0000       5.381844       146.4474 
 145   0.0000       5.390368       146.6794 
 146   0.0000       5.487801       149.3307 
 147   0.0000       5.516492       150.1114 
 148   0.0000       5.535346       150.6244 
 149   0.0000       5.571635       151.6119 
 150   0.0000       5.746252       156.3635 
 151   0.0000       5.809993       158.0979 
 152   0.0000       5.840931       158.9398 
 153   0.0000       5.890433       160.2868 
 154   0.0000       6.064022       165.0104 
 155   0.0000       6.067770       165.1124 
 156   0.0000       6.384922       173.7426 
 157   0.0000       6.436926       175.1577 
 158   0.0000       6.531362       177.7274 
 159   0.0000       6.534971       177.8256 
 160   0.0000       6.793223       184.8530 
 161   0.0000       6.796061       184.9302 
 162   0.0000       6.811680       185.3552 
 163   0.0000       6.833938       185.9609 
 164   0.0000       7.002142       190.5380 
 165   0.0000       7.025082       191.1622 
 166   0.0000       7.227245       196.6633 
 167   0.0000       7.251293       197.3177 
 168   0.0000      22.425350       610.2248 
 169   0.0000      22.529738       613.0653 
 170   0.0000      43.639927      1187.5028 
 171   0.0000      43.653129      1187.8620 

                    ********************************
                    * MULLIKEN POPULATION ANALYSIS *
                    ********************************

-----------------------
MULLIKEN ATOMIC CHARGES
-----------------------
   0 C :   -0.192383
   1 O :   -0.455805
   2 H :    0.315976
   3 H :    0.122061
   4 H :    0.113975
   5 H :    0.093851
   6 C :   -0.171367
   7 O :   -0.456211
   8 H :    0.315746
   9 H :    0.119847
  10 H :    0.096828
  11 H :    0.097483
Sum of atomic charges:    0.0000000

--------------------------------
MULLIKEN REDUCED ORBITAL CHARGES
--------------------------------
  0 C s       :     3.234539  s :     3.234539
      pz      :     0.711474  p :     2.852156
      px      :     1.057991
      py      :     1.082691
      dz2     :     0.012503  d :     0.098018
      dxz     :     0.040385
      dyz     :     0.035628
      dx2y2   :     0.003931
      dxy     :     0.005571
      f0      :     0.002163  f :     0.007670
      f+1     :     0.002568
      f-1     :     0.002176
      f+2     :     0.000097
      f-2     :     0.000100
      f+3     :     0.000442
      f-3     :     0.000124
  1 O s       :     3.807287  s :     3.807287
      pz      :     1.291473  p :     4.614063
      px      :     1.872095
      py      :     1.450496
      dz2     :     0.010320  d :     0.032819
      dxz     :     0.004090
      dyz     :     0.008920
      dx2y2   :     0.006324
      dxy     :     0.003165
      f0      :     0.000454  f :     0.001636
      f+1     :     0.000221
      f-1     :     0.000173
      f+2     :     0.000205
      f-2     :     0.000083
      f+3     :     0.000224
      f-3     :     0.000276
  2 H s       :     0.635553  s :     0.635553
      pz      :     0.012231  p :     0.048470
      px      :     0.018018
      py      :     0.018221
  3 H s       :     0.858818  s :     0.858818
      pz      :     0.003175  p :     0.019120
      px      :     0.007425
      py      :     0.008520
  4 H s       :     0.865318  s :     0.865318
      pz      :     0.005529  p :     0.020707
      px      :     0.005663
      py      :     0.009515
  5 H s       :     0.887324  s :     0.887324
      pz      :     0.003936  p :     0.018825
      px      :     0.010714
      py      :     0.004175
  6 C s       :     3.213197  s :     3.213197
      pz      :     0.983544  p :     2.844381
      px      :     0.788083
      py      :     1.072754
      dz2     :     0.020758  d :     0.105449
      dxz     :     0.013007
      dyz     :     0.029039
      dx2y2   :     0.021356
      dxy     :     0.021288
      f0      :     0.000480  f :     0.008340
      f+1     :     0.001766
      f-1     :     0.000162
      f+2     :     0.002181
      f-2     :     0.001584
      f+3     :     0.000755
      f-3     :     0.001412
  7 O s       :     3.790884  s :     3.790884
      pz      :     1.292864  p :     4.631537
      px      :     1.501247
      py      :     1.837426
      dz2     :     0.006344  d :     0.032023
      dxz     :     0.009630
      dyz     :     0.004523
      dx2y2   :     0.006679
      dxy     :     0.004846
      f0      :     0.000237  f :     0.001768
      f+1     :     0.000374
      f-1     :     0.000323
      f+2     :     0.000265
      f-2     :     0.000214
      f+3     :     0.000200
      f-3     :     0.000155
  8 H s       :     0.632208  s :     0.632208
      pz      :     0.019336  p :     0.052046
      px      :     0.013285
      py      :     0.019425
  9 H s       :     0.857957  s :     0.857957
      pz      :     0.009335  p :     0.022196
      px      :     0.004070
      py      :     0.008791
 10 H s       :     0.884411  s :     0.884411
      pz      :     0.005178  p :     0.018761
      px      :     0.009511
      py      :     0.004072
 11 H s       :     0.882941  s :     0.882941
      pz      :     0.006072  p :     0.019576
      px      :     0.003080
      py      :     0.010423


                     *******************************
                     * LOEWDIN POPULATION ANALYSIS *
                     *******************************

----------------------
LOEWDIN ATOMIC CHARGES
----------------------
   0 C :   -0.407060
   1 O :   -0.061896
   2 H :    0.168965
   3 H :    0.098831
   4 H :    0.101610
   5 H :    0.097896
   6 C :   -0.406845
   7 O :   -0.034197
   8 H :    0.154206
   9 H :    0.087342
  10 H :    0.101659
  11 H :    0.099488

-------------------------------
LOEWDIN REDUCED ORBITAL CHARGES
-------------------------------
  0 C s       :     2.861155  s :     2.861155
      pz      :     0.847585  p :     3.061766
      px      :     1.098412
      py      :     1.115769
      dz2     :     0.101215  d :     0.426109
      dxz     :     0.137937
      dyz     :     0.125858
      dx2y2   :     0.025783
      dxy     :     0.035316
      f0      :     0.015015  f :     0.058030
      f+1     :     0.017892
      f-1     :     0.015336
      f+2     :     0.004497
      f-2     :     0.002817
      f+3     :     0.001926
      f-3     :     0.000547
  1 O s       :     3.371680  s :     3.371680
      pz      :     1.372550  p :     4.611776
      px      :     1.769781
      py      :     1.469445
      dz2     :     0.023525  d :     0.073297
      dxz     :     0.013971
      dyz     :     0.023932
      dx2y2   :     0.008613
      dxy     :     0.003255
      f0      :     0.001433  f :     0.005142
      f+1     :     0.000944
      f-1     :     0.001359
      f+2     :     0.000497
      f-2     :     0.000196
      f+3     :     0.000307
      f-3     :     0.000405
  2 H s       :     0.668193  s :     0.668193
      pz      :     0.034215  p :     0.162842
      px      :     0.050172
      py      :     0.078456
  3 H s       :     0.840535  s :     0.840535
      pz      :     0.010633  p :     0.060634
      px      :     0.022975
      py      :     0.027026
  4 H s       :     0.835692  s :     0.835692
      pz      :     0.015651  p :     0.062698
      px      :     0.017218
      py      :     0.029829
  5 H s       :     0.846346  s :     0.846346
      pz      :     0.011674  p :     0.055758
      px      :     0.031405
      py      :     0.012678
  6 C s       :     2.845949  s :     2.845949
      pz      :     1.024252  p :     3.058873
      px      :     0.925760
      py      :     1.108861
      dz2     :     0.059763  d :     0.438963
      dxz     :     0.096633
      dyz     :     0.107703
      dx2y2   :     0.110570
      dxy     :     0.064294
      f0      :     0.008734  f :     0.063060
      f+1     :     0.013385
      f-1     :     0.002244
      f+2     :     0.009813
      f-2     :     0.010275
      f+3     :     0.007466
      f-3     :     0.011143
  7 O s       :     3.335044  s :     3.335044
      pz      :     1.315588  p :     4.616649
      px      :     1.559412
      py      :     1.741649
      dz2     :     0.020942  d :     0.076988
      dxz     :     0.020963
      dyz     :     0.010906
      dx2y2   :     0.013039
      dxy     :     0.011137
      f0      :     0.000484  f :     0.005517
      f+1     :     0.001683
      f-1     :     0.000600
      f+2     :     0.000766
      f-2     :     0.000944
      f+3     :     0.000548
      f-3     :     0.000492
  8 H s       :     0.671931  s :     0.671931
      pz      :     0.069867  p :     0.173863
      px      :     0.046162
      py      :     0.057834
  9 H s       :     0.841871  s :     0.841871
      pz      :     0.028500  p :     0.070787
      px      :     0.013372
      py      :     0.028915
 10 H s       :     0.842578  s :     0.842578
      pz      :     0.016171  p :     0.055763
      px      :     0.027047
      py      :     0.012545
 11 H s       :     0.843577  s :     0.843577
      pz      :     0.017151  p :     0.056935
      px      :     0.009226
      py      :     0.030558


                      *****************************
                      * MAYER POPULATION ANALYSIS *
                      *****************************

  NA   - Mulliken gross atomic population
  ZA   - Total nuclear charge
  QA   - Mulliken gross atomic charge
  VA   - Mayer's total valence
  BVA  - Mayer's bonded valence
  FA   - Mayer's free valence

  ATOM       NA         ZA         QA         VA         BVA        FA
  0 C      6.1924     6.0000    -0.1924     3.9325     3.9325    -0.0000
  1 O      8.4558     8.0000    -0.4558     1.9026     1.9026     0.0000
  2 H      0.6840     1.0000     0.3160     0.9105     0.9105     0.0000
  3 H      0.8779     1.0000     0.1221     0.9612     0.9612    -0.0000
  4 H      0.8860     1.0000     0.1140     0.9574     0.9574     0.0000
  5 H      0.9061     1.0000     0.0939     0.9569     0.9569     0.0000
  6 C      6.1714     6.0000    -0.1714     3.9569     3.9569     0.0000
  7 O      8.4562     8.0000    -0.4562     1.8955     1.8955     0.0000
  8 H      0.6843     1.0000     0.3157     0.9143     0.9143     0.0000
  9 H      0.8802     1.0000     0.1198     0.9487     0.9487     0.0000
 10 H      0.9032     1.0000     0.0968     0.9644     0.9644     0.0000
 11 H      0.9025     1.0000     0.0975     0.9556     0.9556     0.0000

  Mayer bond orders larger than 0.1
B(  0-C ,  1-O ) :   1.0049 B(  0-C ,  3-H ) :   0.9735 B(  0-C ,  4-H ) :   0.9757 
B(  0-C ,  5-H ) :   0.9737 B(  1-O ,  2-H ) :   0.9046 B(  6-C ,  7-O ) :   1.0045 
B(  6-C ,  9-H ) :   0.9725 B(  6-C , 10-H ) :   0.9876 B(  6-C , 11-H ) :   0.9830 
B(  7-O ,  8-H ) :   0.9060 

-------
TIMINGS
-------

Total SCF time: 0 days 0 hours 0 min 21 sec 

Total time                  ....      21.378 sec
Sum of individual times     ....      20.883 sec  ( 97.7%)

Fock matrix formation       ....      20.161 sec  ( 94.3%)
  XC integration            ....      10.649 sec  ( 52.8% of F)
    Basis function eval.    ....       0.059 sec  (  0.6% of XC)
    Density eval.           ....       0.181 sec  (  1.7% of XC)
    XC-Functional eval.     ....       0.150 sec  (  1.4% of XC)
    XC-Potential eval.      ....       0.061 sec  (  0.6% of XC)
Diagonalization             ....       0.132 sec  (  0.6%)
Density matrix formation    ....       0.005 sec  (  0.0%)
Population analysis         ....       0.016 sec  (  0.1%)
Initial guess               ....       0.111 sec  (  0.5%)
Orbital Transformation      ....       0.000 sec  (  0.0%)
Orbital Orthonormalization  ....       0.000 sec  (  0.0%)
DIIS solution               ....       0.086 sec  (  0.4%)
SOSCF solution              ....       0.087 sec  (  0.4%)
Grid generation             ....       0.286 sec  (  1.3%)


-------------------------------------------------------------------------------
                          DFT DISPERSION CORRECTION                            
                                                                               
                              DFTD3 V3.1  Rev 1                                
                              USING zero damping                               
-------------------------------------------------------------------------------
The omegaB97X-D3 functional is recognized. Fit by Chai et al.
Active option DFTDOPT                   ...         3   

molecular C6(AA) [au] = 834.426859 


            DFT-D V3
 parameters
 s6 scaling factor         :     1.0000 
 rs6 scaling factor        :     1.2810 
 s8 scaling factor         :     1.0000 
 rs8 scaling factor        :     1.0940 
 Damping factor alpha6     :    14.0000 
 Damping factor alpha8     :    16.0000 
 ad hoc parameters k1-k3   :    16.0000     1.3333    -4.0000 

 Edisp/kcal,au: -0.564402437487  -0.000899432440 
 E6   /kcal   :  -0.277336516 
 E8   /kcal   :  -0.287065922 
 % E8         :  50.861920961 

-------------------------   ----------------
Dispersion correction           -0.000899432
-------------------------   ----------------


-------------------------   --------------------
FINAL SINGLE POINT ENERGY      -231.462556887889
-------------------------   --------------------


                            ***************************************
                            *     ORCA property calculations      *
                            ***************************************

                                    ---------------------
                                    Active property flags
                                    ---------------------
   (+) Dipole Moment


------------------------------------------------------------------------------
                       ORCA ELECTRIC PROPERTIES CALCULATION
------------------------------------------------------------------------------

Dipole Moment Calculation                       ... on
Quadrupole Moment Calculation                   ... off
Polarizability Calculation                      ... off
GBWName                                         ... 7-12_DFT_AB.gbw
Electron density file                           ... 7-12_DFT_AB.scfp.tmp
The origin for moment calculation is the CENTER OF MASS  = ( 3.863467,  7.588109 -4.312631)

-------------
DIPOLE MOMENT
-------------
                                X             Y             Z
Electronic contribution:     -1.53176      -0.05495       2.81632
Nuclear contribution   :      2.06693       0.48574      -2.89328
                        -----------------------------------------
Total Dipole Moment    :      0.53516       0.43079      -0.07696
                        -----------------------------------------
Magnitude (a.u.)       :      0.69130
Magnitude (Debye)      :      1.75715



--------------------
Rotational spectrum 
--------------------
 
Rotational constants in cm-1:     0.486214     0.043896     0.041828 
Rotational constants in MHz : 14576.317908  1315.957337  1253.978917 

 Dipole components along the rotational axes: 
x,y,z [a.u.] :     0.684227    -0.073680    -0.065621 
x,y,z [Debye]:     1.739166    -0.187281    -0.166794 

 
------------------------------------------------------------------------------
                      ORCA CHELPG CHARGES GENERATION
------------------------------------------------------------------------------

GBW file                           ... 7-12_DFT_AB.gbw

Reading the GBW file               ... done

Grid spacing                       ...     0.300000
Point Cut-Off                      ...     2.800000
Van-der-Waals Radii                ...        COSMO
Total charge                       ...            0


Number of points X direction       ...           40
Number of points Y direction       ...           32
Number of points Z direction       ...           27
Maximum number of possible points  ...        34560
Final number of points             ...        10957


CHELPG Charges            
--------------------------------
  0   C   :       0.055502
  1   O   :      -0.566595
  2   H   :       0.382823
  3   H   :       0.032428
  4   H   :       0.083384
  5   H   :       0.010021
  6   C   :       0.191246
  7   O   :      -0.590977
  8   H   :       0.393062
  9   H   :       0.035764
 10   H   :      -0.021441
 11   H   :      -0.005219
--------------------------------
Total charge:    -0.000000
--------------------------------

CHELPG charges calculated...

Timings for individual parts in CHELPG calculation:
Grid generation                 ...        0.002 sec (=   0.000 min)
Potential calculation           ...        2.125 sec (=   0.035 min)
Fit to the potential            ...        0.004 sec (=   0.000 min)
------------------------------------------------------------------------------


Timings for individual modules:

Sum of individual times         ...       31.035 sec (=   0.517 min)
GTO integral calculation        ...        5.232 sec (=   0.087 min)  16.9 %
SCF iterations                  ...       23.641 sec (=   0.394 min)  76.2 %
CHELPG charge generation        ...        2.161 sec (=   0.036 min)   7.0 %


                 $$$$$$$$$$$$$$$$  JOB NUMBER  2 $$$$$$$$$$$$$$


                       ****************************
                       * Single Point Calculation *
                       ****************************

---------------------------------
CARTESIAN COORDINATES (ANGSTROEM)
---------------------------------
  C      0.107441    2.741054   -3.055841
  O      0.093632    2.479985   -1.676650
  H     -0.116713    3.352322   -1.369150
  H      0.781831    3.560905   -3.329535
  H      0.429337    1.873700   -3.602147
  H     -0.921354    2.900499   -3.482296
  C      4.556806    5.347333   -2.628685
  O      3.423993    5.475076   -1.851315
  H      3.701064    5.189540   -1.017325
  H      4.699981    6.061713   -3.358107
  H      5.501978    5.323743   -2.028070
  H      4.491684    4.380159   -3.170814

----------------------------
CARTESIAN COORDINATES (A.U.)
----------------------------
  NO LB      ZA    FRAG     MASS         X           Y           Z
   0 C     6.0000    0    12.011    0.203034    5.179841   -5.774703
   1 O     8.0000    0    15.999    0.176939    4.686492   -3.168409
   2 H     1.0000    0     1.008   -0.220556    6.334970   -2.587319
   3 H     1.0000    0     1.008    1.477446    6.729135   -6.291909
   4 H     1.0000    0     1.008    0.811329    3.540780   -6.807071
   5 H     1.0000    0     1.008   -1.741107    5.481149   -6.580586
   6 C     0.0000    0     0.000    8.611115   10.104995   -4.967495
   7 O     0.0000    0     0.000    6.470409   10.346394   -3.498478
   8 H     0.0000    0     0.000    6.993997    9.806809   -1.922466
   9 H     0.0000    0     0.000    8.881677   11.454977   -6.345903
  10 H     0.0000    0     0.000   10.397232   10.060416   -3.832497
  11 H     0.0000    0     0.000    8.488053    8.277301   -5.991970

--------------------------------
INTERNAL COORDINATES (ANGSTROEM)
--------------------------------
 C      0   0   0     0.000000000000     0.00000000     0.00000000
 O      1   0   0     1.403750521184     0.00000000     0.00000000
 H      2   1   0     0.948563709296    98.60663363     0.00000000
 H      1   2   3     1.096296465349   112.98058937    54.48233895
 H      1   2   3     1.074416233016   110.63304805   174.42528160
 H      1   2   3     1.125035878128   112.94138902   287.15490410
 C      4   1   2     4.234731629314   145.33840153    40.77441102
 O      7   4   1     1.379814365746    53.16158184   280.54469979
 H      8   7   4     0.924033801566   103.51535551   123.22970168
 H      7   4   1     1.030967661524   107.39836946   169.90588845
 H      7   4   1     1.120109358906   146.31175446   356.69668205
 H      7   4   1     1.110662088036    59.97335727    71.79456759

---------------------------
INTERNAL COORDINATES (A.U.)
---------------------------
 C      0   0   0     0.000000000000     0.00000000     0.00000000
 O      1   0   0     2.652704045386     0.00000000     0.00000000
 H      2   1   0     1.792525631147    98.60663363     0.00000000
 H      1   2   3     2.071700081096   112.98058937    54.48233895
 H      1   2   3     2.030352434239   110.63304805   174.42528160
 H      1   2   3     2.126009700497   112.94138902   287.15490410
 C      4   1   2     8.002483030057   145.33840153    40.77441102
 O      7   4   1     2.607471266909    53.16158184   280.54469979
 H      8   7   4     1.746170823446   103.51535551   123.22970168
 H      7   4   1     1.948246533210   107.39836946   169.90588845
 H      7   4   1     2.116699928375   146.31175446   356.69668205
 H      7   4   1     2.098847173718    59.97335727    71.79456759

---------------------
BASIS SET INFORMATION
---------------------
There are 3 groups of distinct atoms

 Group   1 Type C   : 11s6p2d1f contracted to 5s3p2d1f pattern {62111/411/11/1}
 Group   2 Type O   : 11s6p2d1f contracted to 5s3p2d1f pattern {62111/411/11/1}
 Group   3 Type H   : 5s1p contracted to 3s1p pattern {311/1}

Atom   0C    basis set group =>   1
Atom   1O    basis set group =>   2
Atom   2H    basis set group =>   3
Atom   3H    basis set group =>   3
Atom   4H    basis set group =>   3
Atom   5H    basis set group =>   3
Atom   6C    basis set group =>   1
Atom   7O    basis set group =>   2
Atom   8H    basis set group =>   3
Atom   9H    basis set group =>   3
Atom  10H    basis set group =>   3
Atom  11H    basis set group =>   3


           ************************************************************
           *        Program running with 8 parallel MPI-processes     *
           *              working on a common directory               *
           ************************************************************
------------------------------------------------------------------------------
                           ORCA GTO INTEGRAL CALCULATION
------------------------------------------------------------------------------

                         BASIS SET STATISTICS AND STARTUP INFO

 # of primitive gaussian shells          ...  128
 # of primitive gaussian functions       ...  248
 # of contracted shells                  ...   76
 # of contracted basis functions         ...  172
 Highest angular momentum                ...    3
 Maximum contraction depth               ...    6
 Integral package used                   ... LIBINT
 Integral threshhold            Thresh   ...  2.500e-11
 Primitive cut-off              TCut     ...  2.500e-12


------------------------------ INTEGRAL EVALUATION ----------------------------


 * One electron integrals 
 Pre-screening matrix                    ... done
 Shell pair data                         ... done (   0.001 sec)



           ************************************************************
           *        Program running with 8 parallel MPI-processes     *
           *              working on a common directory               *
           ************************************************************
-------------------------------------------------------------------------------
                                 ORCA SCF
-------------------------------------------------------------------------------

------------
SCF SETTINGS
------------
Hamiltonian:
 Density Functional     Method          .... DFT(GTOs)
 Exchange Functional    Exchange        .... WB97X-D3
 Correlation Functional Correlation     .... WB97X-D3
 Gradients option       PostSCFGGA      .... off
 Hybrid DFT is turned on
   Fraction HF Exchange ScalHFX         ....  0.195728
   Scaling of DF-GGA-X  ScalDFX         ....  0.000000
   Scaling of DF-GGA-C  ScalDFC         ....  1.000000
   Scaling of DF-LDA-C  ScalLDAC        ....  1.000000
   Perturbative correction              ....  0.000000
   Density functional embedding theory  .... OFF
 Long-range corrected/Screened/Range-Separated Hybrid DFT is turned on
   Amount of maximum screened exact exchange              ....  0.804272
   Range separation parameter mu (erf(mu*r12)/r12)        ....  0.250000


General Settings:
 Integral files         IntName         .... 7-12_DFT_A
 Hartree-Fock type      HFTyp           .... RHF
 Total Charge           Charge          ....    0
 Multiplicity           Mult            ....    1
 Number of Electrons    NEL             ....   18
 Basis Dimension        Dim             ....  172
 Nuclear Repulsion      ENuc            ....     40.6535521506 Eh

Convergence Acceleration:
 DIIS                   CNVDIIS         .... on
   Start iteration      DIISMaxIt       ....    12
   Startup error        DIISStart       ....  0.200000
   # of expansion vecs  DIISMaxEq       ....     5
   Bias factor          DIISBfac        ....   1.050
   Max. coefficient     DIISMaxC        ....  10.000
 Newton-Raphson         CNVNR           .... off
 SOSCF                  CNVSOSCF        .... on
   Start iteration      SOSCFMaxIt      ....   150
   Startup grad/error   SOSCFStart      ....  0.003300
 Level Shifting         CNVShift        .... on
   Level shift para.    LevelShift      ....    0.2500
   Turn off err/grad.   ShiftErr        ....    0.0010
 Zerner damping         CNVZerner       .... off
 Static damping         CNVDamp         .... on
   Fraction old density DampFac         ....    0.7000
   Max. Damping (<1)    DampMax         ....    0.9800
   Min. Damping (>=0)   DampMin         ....    0.0000
   Turn off err/grad.   DampErr         ....    0.1000
 Fernandez-Rico         CNVRico         .... off

SCF Procedure:
 Maximum # iterations   MaxIter         ....  1000
 SCF integral mode      SCFMode         .... Direct
   Integral package                     .... LIBINT
 Reset frequency        DirectResetFreq ....    20
 Integral Threshold     Thresh          ....  2.500e-11 Eh
 Primitive CutOff       TCut            ....  2.500e-12 Eh

Convergence Tolerance:
 Convergence Check Mode ConvCheckMode   .... Total+1el-Energy
 Convergence forced     ConvForced      .... 0
 Energy Change          TolE            ....  1.000e-08 Eh
 1-El. energy change                    ....  1.000e-05 Eh
 Orbital Gradient       TolG            ....  1.000e-05
 Orbital Rotation angle TolX            ....  1.000e-05
 DIIS Error             TolErr          ....  5.000e-07


Diagonalization of the overlap matrix:
Smallest eigenvalue                        ... 1.502e-03
Time for diagonalization                   ...    0.004 sec
Threshold for overlap eigenvalues          ... 1.000e-08
Number of eigenvalues below threshold      ... 0
Time for construction of square roots      ...    0.005 sec
Total time needed                          ...    0.009 sec

-------------------
DFT GRID GENERATION
-------------------

General Integration Accuracy     IntAcc      ...  4.340
Radial Grid Type                 RadialGrid  ... Gauss-Chebyshev
Angular Grid (max. acc.)         AngularGrid ... Lebedev-110
Angular grid pruning method      GridPruning ... 3 (G Style)
Weight generation scheme         WeightScheme... Becke
Basis function cutoff            BFCut       ...    1.0000e-11
Integration weight cutoff        WCut        ...    1.0000e-14
Grids for H and He will be reduced by one unit

# of grid points (after initial pruning)     ...  13096 (   0.0 sec)
# of grid points (after weights+screening)   ...  12564 (   0.0 sec)
nearest neighbour list constructed           ...    0.0 sec
Grid point re-assignment to atoms done       ...    0.0 sec
Grid point division into batches done        ...    0.0 sec
Reduced shell lists constructed in    0.0 sec

Total number of grid points                  ...    12564
Total number of batches                      ...      201
Average number of points per batch           ...       62
Average number of grid points per atom       ...     1047
Average number of shells per batch           ...    45.22 (59.50%)
Average number of basis functions per batch  ...    98.26 (57.13%)
Average number of large shells per batch     ...    36.81 (81.41%)
Average number of large basis fcns per batch ...    82.44 (83.91%)
Maximum spatial batch extension              ...  23.25, 16.78, 15.98 au
Average spatial batch extension              ...   0.46,  0.40,  0.41 au

Time for grid setup =    0.036 sec

------------------------------
INITIAL GUESS: MODEL POTENTIAL
------------------------------
Loading Hartree-Fock densities                     ... done
Calculating cut-offs                               ... done
Setting up the integral package                    ... done
Initializing the effective Hamiltonian             ... done
Starting the Coulomb interaction                   ... done (   0.0 sec)
Reading the grid                                   ... done
Mapping shells                                     ... done
Starting the XC term evaluation                    ... done (   0.0 sec)
  promolecular density results
     # of electrons  =     17.995964014
     EX              =    -14.435930717
     EC              =     -0.576545901
     EX+EC           =    -15.012476618
Transforming the Hamiltonian                       ... done (   0.0 sec)
Diagonalizing the Hamiltonian                      ... done (   0.0 sec)
Back transforming the eigenvectors                 ... done (   0.0 sec)
Now organizing SCF variables                       ... done
                      ------------------
                      INITIAL GUESS DONE (   0.1 sec)
                      ------------------
--------------
SCF ITERATIONS
--------------
ITER       Energy         Delta-E        Max-DP      RMS-DP      [F,P]     Damp
               ***  Starting incremental Fock matrix formation  ***
  0   -115.6474167623   0.000000000000 0.03715288  0.00074076  0.2495739 0.7000
  1   -115.6836521852  -0.036235422878 0.02163228  0.00052457  0.1255025 0.7000
                               ***Turning on DIIS***
  2   -115.7004031906  -0.016751005402 0.03369240  0.00095209  0.0496391 0.0000
  3   -115.7276398641  -0.027236673528 0.01821622  0.00034430  0.0609451 0.0000
  4   -115.7320595142  -0.004419650079 0.00408125  0.00006782  0.0065808 0.0000
                      *** Initiating the SOSCF procedure ***
                           *** Shutting down DIIS ***
                      *** Re-Reading the Fockian *** 
                      *** Removing any level shift *** 
ITER      Energy       Delta-E        Grad      Rot      Max-DP    RMS-DP
  5   -115.73215218  -0.0000926637  0.000427  0.000427  0.000726  0.000023
               *** Restarting incremental Fock matrix formation ***
  6   -115.73216045  -0.0000082681  0.000166  0.000178  0.000485  0.000014
  7   -115.73216124  -0.0000007895  0.000041  0.000083  0.000212  0.000006
  8   -115.73216130  -0.0000000625  0.000026  0.000020  0.000037  0.000001
  9   -115.73216131  -0.0000000109  0.000011  0.000008  0.000018  0.000001
                  ***Gradient check signals convergence***
              ***Rediagonalizing the Fockian in SOSCF/NRSCF***

               *****************************************************
               *                     SUCCESS                       *
               *           SCF CONVERGED AFTER  10 CYCLES          *
               *****************************************************

Setting up the final grid:

General Integration Accuracy     IntAcc      ...  4.670
Radial Grid Type                 RadialGrid  ... Gauss-Chebyshev
Angular Grid (max. acc.)         AngularGrid ... Lebedev-302
Angular grid pruning method      GridPruning ... 3 (G Style)
Weight generation scheme         WeightScheme... Becke
Basis function cutoff            BFCut       ...    1.0000e-11
Integration weight cutoff        WCut        ...    1.0000e-14
Grids for H and He will be reduced by one unit

# of grid points (after initial pruning)     ...  52000 (   0.0 sec)
# of grid points (after weights+screening)   ...  49471 (   0.0 sec)
nearest neighbour list constructed           ...    0.0 sec
Grid point re-assignment to atoms done       ...    0.0 sec
Grid point division into batches done        ...    0.2 sec
Reduced shell lists constructed in    0.2 sec

Total number of grid points                  ...    49471
Total number of batches                      ...      779
Average number of points per batch           ...       63
Average number of grid points per atom       ...     4123
Average number of shells per batch           ...    44.02 (57.92%)
Average number of basis functions per batch  ...    95.33 (55.43%)
Average number of large shells per batch     ...    35.65 (80.98%)
Average number of large basis fcns per batch ...    80.01 (83.93%)
Maximum spatial batch extension              ...  15.71, 15.21, 14.85 au
Average spatial batch extension              ...   0.27,  0.25,  0.26 au

Final grid set up in    0.3 sec
Final integration                            ... done (   0.1 sec)
Change in XC energy                          ...    -0.000198744
Integrated number of electrons               ...    17.999984459
Previous integrated no of electrons          ...    18.000162145

----------------
TOTAL SCF ENERGY
----------------

Total Energy       :         -115.73236005 Eh           -3149.23762 eV

Components:
Nuclear Repulsion  :           40.65355215 Eh            1106.23939 eV
Electronic Energy  :         -156.38591221 Eh           -4255.47702 eV
One Electron Energy:         -237.65054416 Eh           -6466.80007 eV
Two Electron Energy:           81.26463195 Eh            2211.32306 eV

Virial components:
Potential Energy   :         -231.02345662 Eh           -6286.46785 eV
Kinetic Energy     :          115.29109657 Eh            3137.23023 eV
Virial Ratio       :            2.00382739


DFT components:
N(Alpha)           :        8.999992229468 electrons
N(Beta)            :        8.999992229468 electrons
N(Total)           :       17.999984458936 electrons
E(XC)              :      -10.659981405056 Eh       
DFET-embed. en.    :        0.000000000000 Eh       

---------------
SCF CONVERGENCE
---------------

  Last Energy change         ...   -1.7167e-09  Tolerance :   1.0000e-08
  Last MAX-Density change    ...    4.3866e-06  Tolerance :   1.0000e-07
  Last RMS-Density change    ...    1.1369e-07  Tolerance :   5.0000e-09
  Last Orbital Gradient      ...    2.1475e-06  Tolerance :   1.0000e-05
  Last Orbital Rotation      ...    2.3185e-06  Tolerance :   1.0000e-05

             **** THE GBW FILE WAS UPDATED (7-12_DFT_A.gbw) ****
             **** DENSITY FILE WAS UPDATED (7-12_DFT_A.scfp.tmp) ****
             **** ENERGY FILE WAS UPDATED (7-12_DFT_A.en.tmp) ****
----------------
ORBITAL ENERGIES
----------------

  NO   OCC          E(Eh)            E(eV) 
   0   2.0000     -19.234248      -523.3905 
   1   2.0000     -10.313539      -280.6457 
   2   2.0000      -1.149804       -31.2878 
   3   2.0000      -0.792664       -21.5695 
   4   2.0000      -0.611514       -16.6401 
   5   2.0000      -0.545630       -14.8474 
   6   2.0000      -0.529177       -14.3996 
   7   2.0000      -0.440692       -11.9918 
   8   2.0000      -0.376319       -10.2402 
   9   0.0000       0.080846         2.1999 
  10   0.0000       0.118317         3.2196 
  11   0.0000       0.151709         4.1282 
  12   0.0000       0.171187         4.6582 
  13   0.0000       0.183271         4.9871 
  14   0.0000       0.198986         5.4147 
  15   0.0000       0.204387         5.5617 
  16   0.0000       0.216555         5.8928 
  17   0.0000       0.237264         6.4563 
  18   0.0000       0.280683         7.6378 
  19   0.0000       0.305258         8.3065 
  20   0.0000       0.315607         8.5881 
  21   0.0000       0.330425         8.9913 
  22   0.0000       0.348053         9.4710 
  23   0.0000       0.353692         9.6244 
  24   0.0000       0.401744        10.9320 
  25   0.0000       0.434361        11.8196 
  26   0.0000       0.460169        12.5218 
  27   0.0000       0.484239        13.1768 
  28   0.0000       0.522241        14.2109 
  29   0.0000       0.529527        14.4092 
  30   0.0000       0.549910        14.9638 
  31   0.0000       0.553899        15.0724 
  32   0.0000       0.586351        15.9554 
  33   0.0000       0.604663        16.4537 
  34   0.0000       0.626835        17.0570 
  35   0.0000       0.644659        17.5421 
  36   0.0000       0.671973        18.2853 
  37   0.0000       0.693413        18.8687 
  38   0.0000       0.761074        20.7099 
  39   0.0000       0.790977        21.5236 
  40   0.0000       0.803639        21.8681 
  41   0.0000       0.807587        21.9756 
  42   0.0000       0.863691        23.5022 
  43   0.0000       0.908216        24.7138 
  44   0.0000       0.995782        27.0966 
  45   0.0000       1.035043        28.1650 
  46   0.0000       1.043582        28.3973 
  47   0.0000       1.108755        30.1707 
  48   0.0000       1.153264        31.3819 
  49   0.0000       1.158077        31.5129 
  50   0.0000       1.163394        31.6576 
  51   0.0000       1.188209        32.3328 
  52   0.0000       1.221661        33.2431 
  53   0.0000       1.351221        36.7686 
  54   0.0000       1.366840        37.1936 
  55   0.0000       1.390582        37.8397 
  56   0.0000       1.470666        40.0188 
  57   0.0000       1.505489        40.9664 
  58   0.0000       1.530768        41.6543 
  59   0.0000       1.550070        42.1796 
  60   0.0000       1.616669        43.9918 
  61   0.0000       1.627007        44.2731 
  62   0.0000       1.647724        44.8368 
  63   0.0000       1.657849        45.1124 
  64   0.0000       1.685635        45.8685 
  65   0.0000       1.802812        49.0570 
  66   0.0000       1.841589        50.1122 
  67   0.0000       1.926580        52.4249 
  68   0.0000       1.930900        52.5425 
  69   0.0000       1.952833        53.1393 
  70   0.0000       2.037937        55.4551 
  71   0.0000       2.060181        56.0604 
  72   0.0000       2.092999        56.9534 
  73   0.0000       2.118024        57.6344 
  74   0.0000       2.131105        57.9903 
  75   0.0000       2.204254        59.9808 
  76   0.0000       2.207560        60.0708 
  77   0.0000       2.248539        61.1858 
  78   0.0000       2.255560        61.3769 
  79   0.0000       2.334492        63.5248 
  80   0.0000       2.341451        63.7141 
  81   0.0000       2.372984        64.5722 
  82   0.0000       2.390180        65.0401 
  83   0.0000       2.413359        65.6708 
  84   0.0000       2.497313        67.9553 
  85   0.0000       2.553090        69.4731 
  86   0.0000       2.572186        69.9927 
  87   0.0000       2.607529        70.9545 
  88   0.0000       2.640329        71.8470 
  89   0.0000       2.668849        72.6231 
  90   0.0000       2.684832        73.0580 
  91   0.0000       2.732847        74.3645 
  92   0.0000       2.835374        77.1545 
  93   0.0000       2.836927        77.1967 
  94   0.0000       2.869431        78.0812 
  95   0.0000       2.891858        78.6915 
  96   0.0000       2.937725        79.9396 
  97   0.0000       2.970800        80.8396 
  98   0.0000       3.051333        83.0310 
  99   0.0000       3.097617        84.2904 
 100   0.0000       3.113231        84.7153 
 101   0.0000       3.133917        85.2782 
 102   0.0000       3.179322        86.5138 
 103   0.0000       3.232421        87.9587 
 104   0.0000       3.276021        89.1451 
 105   0.0000       3.283037        89.3360 
 106   0.0000       3.362030        91.4855 
 107   0.0000       3.373075        91.7860 
 108   0.0000       3.410966        92.8171 
 109   0.0000       3.415424        92.9384 
 110   0.0000       3.493924        95.0745 
 111   0.0000       3.611115        98.2634 
 112   0.0000       3.616390        98.4070 
 113   0.0000       3.640895        99.0738 
 114   0.0000       3.679959       100.1368 
 115   0.0000       3.713916       101.0608 
 116   0.0000       3.730181       101.5034 
 117   0.0000       4.034425       109.7823 
 118   0.0000       4.085530       111.1729 
 119   0.0000       4.134973       112.5183 
 120   0.0000       4.177256       113.6689 
 121   0.0000       4.260781       115.9418 
 122   0.0000       4.281413       116.5032 
 123   0.0000       4.347956       118.3139 
 124   0.0000       4.417150       120.1968 
 125   0.0000       4.425696       120.4293 
 126   0.0000       4.517389       122.9244 
 127   0.0000       4.518938       122.9666 
 128   0.0000       4.532413       123.3332 
 129   0.0000       4.563833       124.1882 
 130   0.0000       4.625824       125.8751 
 131   0.0000       5.049980       137.4169 
 132   0.0000       5.084239       138.3492 
 133   0.0000       5.148060       140.0858 
 134   0.0000       5.375770       146.2821 
 135   0.0000       5.382443       146.4637 
 136   0.0000       5.495450       149.5388 
 137   0.0000       5.510459       149.9472 
 138   0.0000       5.529314       150.4603 
 139   0.0000       5.740232       156.1996 
 140   0.0000       5.743585       156.2909 
 141   0.0000       5.834822       158.7736 
 142   0.0000       5.878699       159.9675 
 143   0.0000       6.057842       164.8423 
 144   0.0000       6.211365       169.0198 
 145   0.0000       6.378769       173.5751 
 146   0.0000       6.528535       177.6505 
 147   0.0000       6.682371       181.8366 
 148   0.0000       6.789642       184.7556 
 149   0.0000       6.803398       185.1299 
 150   0.0000       6.805251       185.1803 
 151   0.0000       6.875596       187.0945 
 152   0.0000       6.997249       190.4048 
 153   0.0000       7.157138       194.7556 
 154   0.0000       7.222968       196.5470 
 155   0.0000       7.340868       199.7552 
 156   0.0000       7.530883       204.9257 
 157   0.0000       8.337316       226.8699 
 158   0.0000       8.902392       242.2464 
 159   0.0000       9.363895       254.8045 
 160   0.0000       9.554518       259.9917 
 161   0.0000       9.561287       260.1758 
 162   0.0000       9.811226       266.9770 
 163   0.0000       9.862723       268.3784 
 164   0.0000       9.962592       271.0959 
 165   0.0000      10.124236       275.4945 
[...]
  82   0.0000       2.431551        66.1659 
  83   0.0000       2.468456        67.1701 
  84   0.0000       2.527626        68.7802 
  85   0.0000       2.532822        68.9216 
  86   0.0000       2.554607        69.5144 
  87   0.0000       2.583113        70.2901 
  88   0.0000       2.652473        72.1775 
  89   0.0000       2.667553        72.5878 
  90   0.0000       2.675624        72.8074 
  91   0.0000       2.709258        73.7227 
  92   0.0000       2.838414        77.2372 
  93   0.0000       2.865348        77.9701 
  94   0.0000       2.878427        78.3260 
  95   0.0000       2.911925        79.2375 
  96   0.0000       2.960023        80.5463 
  97   0.0000       2.970032        80.8187 
  98   0.0000       3.038040        82.6693 
  99   0.0000       3.109921        84.6252 
 100   0.0000       3.130553        85.1867 
 101   0.0000       3.174113        86.3720 
 102   0.0000       3.177833        86.4732 
 103   0.0000       3.212534        87.4175 
 104   0.0000       3.262227        88.7697 
 105   0.0000       3.334178        90.7276 
 106   0.0000       3.372426        91.7684 
 107   0.0000       3.381831        92.0243 
 108   0.0000       3.414079        92.9018 
 109   0.0000       3.494522        95.0908 
 110   0.0000       3.554802        96.7311 
 111   0.0000       3.630839        98.8001 
 112   0.0000       3.645368        99.1955 
 113   0.0000       3.672815        99.9424 
 114   0.0000       3.679678       100.1291 
 115   0.0000       3.691849       100.4603 
 116   0.0000       3.733773       101.6011 
 117   0.0000       4.035470       109.8107 
 118   0.0000       4.084999       111.1585 
 119   0.0000       4.135114       112.5222 
 120   0.0000       4.265858       116.0799 
 121   0.0000       4.273083       116.2765 
 122   0.0000       4.284564       116.5889 
 123   0.0000       4.326727       117.7362 
 124   0.0000       4.333326       117.9158 
 125   0.0000       4.436702       120.7288 
 126   0.0000       4.520500       123.0090 
 127   0.0000       4.529775       123.2614 
 128   0.0000       4.544963       123.6747 
 129   0.0000       4.554910       123.9454 
 130   0.0000       4.636282       126.1596 
 131   0.0000       5.041594       137.1887 
 132   0.0000       5.086411       138.4083 
 133   0.0000       5.209921       141.7691 
 134   0.0000       5.328612       144.9989 
 135   0.0000       5.393686       146.7696 
 136   0.0000       5.429261       147.7377 
 137   0.0000       5.491064       149.4195 
 138   0.0000       5.574914       151.7011 
 139   0.0000       5.747139       156.3876 
 140   0.0000       5.813372       158.1899 
 141   0.0000       5.891660       160.3202 
 142   0.0000       5.893657       160.3745 
 143   0.0000       6.070914       165.1980 
 144   0.0000       6.081389       165.4830 
 145   0.0000       6.440034       175.2422 
 146   0.0000       6.535263       177.8335 
 147   0.0000       6.655813       181.1139 
 148   0.0000       6.797998       184.9829 
 149   0.0000       6.821902       185.6334 
 150   0.0000       6.832804       185.9300 
 151   0.0000       6.837971       186.0707 
 152   0.0000       7.027387       191.2249 
 153   0.0000       7.058729       192.0778 
 154   0.0000       7.251699       197.3288 
 155   0.0000       7.263450       197.6485 
 156   0.0000       7.466614       203.1769 
 157   0.0000       8.169582       222.3056 
 158   0.0000       8.887118       241.8308 
 159   0.0000       9.361091       254.7282 
 160   0.0000       9.518865       259.0215 
 161   0.0000       9.553199       259.9558 
 162   0.0000       9.800562       266.6869 
 163   0.0000       9.867263       268.5019 
 164   0.0000       9.952481       270.8208 
 165   0.0000      10.105345       274.9804 
 166   0.0000      11.181446       304.2626 
 167   0.0000      19.092719       519.5393 
 168   0.0000      22.531945       613.1254 
 169   0.0000      43.646654      1187.6858 
 170   0.0000      65.930172      1794.0512 
 171   0.0000     126.402239      3439.5798 

                    ********************************
                    * MULLIKEN POPULATION ANALYSIS *
                    ********************************

-----------------------
MULLIKEN ATOMIC CHARGES
-----------------------
   0 C :    0.000685
   1 O :   -0.000017
   2 H :   -0.000348
   3 H :   -0.002359
   4 H :    0.000012
   5 H :   -0.000072
   6 C :   -0.170809
   7 O :   -0.450355
   8 H :    0.313080
   9 H :    0.119849
  10 H :    0.094545
  11 H :    0.095790
Sum of atomic charges:    0.0000000

--------------------------------
MULLIKEN REDUCED ORBITAL CHARGES
--------------------------------
  0 C s       :    -0.000685  s :    -0.000685
      pz      :     0.000180  p :    -0.000000
      px      :     0.000211
      py      :    -0.000391
      dz2     :    -0.000004  d :     0.000000
      dxz     :    -0.000000
      dyz     :    -0.000001
      dx2y2   :    -0.000000
      dxy     :     0.000007
      f0      :     0.000000  f :    -0.000000
      f+1     :    -0.000000
      f-1     :    -0.000000
      f+2     :    -0.000000
      f-2     :    -0.000000
      f+3     :    -0.000000
      f-3     :    -0.000000
  1 O s       :    -0.000038  s :    -0.000038
      pz      :     0.000002  p :     0.000056
      px      :     0.000012
      py      :     0.000042
      dz2     :     0.000000  d :    -0.000001
      dxz     :     0.000000
      dyz     :    -0.000000
      dx2y2   :    -0.000000
      dxy     :    -0.000000
      f0      :    -0.000000  f :    -0.000000
      f+1     :    -0.000000
      f-1     :     0.000000
      f+2     :    -0.000000
      f-2     :     0.000000
      f+3     :    -0.000000
      f-3     :    -0.000000
  2 H s       :     0.000348  s :     0.000348
      pz      :    -0.000000  p :     0.000000
      px      :    -0.000001
      py      :     0.000001
  3 H s       :     0.002358  s :     0.002358
      pz      :     0.000001  p :     0.000002
      px      :     0.000000
      py      :     0.000000
  4 H s       :    -0.000013  s :    -0.000013
      pz      :     0.000000  p :     0.000000
      px      :    -0.000000
      py      :     0.000000
  5 H s       :     0.000072  s :     0.000072
      pz      :     0.000000  p :     0.000000
      px      :     0.000000
      py      :     0.000000
  6 C s       :     3.212335  s :     3.212335
      pz      :     0.983006  p :     2.843990
      px      :     0.787688
      py      :     1.073296
      dz2     :     0.021080  d :     0.106140
      dxz     :     0.013084
      dyz     :     0.029165
      dx2y2   :     0.021334
      dxy     :     0.021478
      f0      :     0.000479  f :     0.008344
      f+1     :     0.001773
      f-1     :     0.000160
      f+2     :     0.002179
      f-2     :     0.001583
      f+3     :     0.000756
      f-3     :     0.001413
  7 O s       :     3.793118  s :     3.793118
      pz      :     1.289736  p :     4.623354
      px      :     1.497258
      py      :     1.836360
      dz2     :     0.006338  d :     0.032118
      dxz     :     0.009665
      dyz     :     0.004521
      dx2y2   :     0.006718
      dxy     :     0.004876
      f0      :     0.000236  f :     0.001765
      f+1     :     0.000374
      f-1     :     0.000322
      f+2     :     0.000264
      f-2     :     0.000214
      f+3     :     0.000199
      f-3     :     0.000155
  8 H s       :     0.634713  s :     0.634713
      pz      :     0.019336  p :     0.052207
      px      :     0.013379
      py      :     0.019493
  9 H s       :     0.857943  s :     0.857943
      pz      :     0.009344  p :     0.022208
      px      :     0.004069
      py      :     0.008795
 10 H s       :     0.886730  s :     0.886730
      pz      :     0.005176  p :     0.018724
      px      :     0.009487
      py      :     0.004062
 11 H s       :     0.884626  s :     0.884626
      pz      :     0.006087  p :     0.019584
      px      :     0.003087
      py      :     0.010410


                     *******************************
                     * LOEWDIN POPULATION ANALYSIS *
                     *******************************

----------------------
LOEWDIN ATOMIC CHARGES
----------------------
   0 C :   -0.000568
   1 O :   -0.000039
   2 H :   -0.000206
   3 H :   -0.001172
   4 H :   -0.000003
   5 H :   -0.000007
   6 C :   -0.407057
   7 O :   -0.031474
   8 H :    0.153343
   9 H :    0.087461
  10 H :    0.100724
  11 H :    0.099000

-------------------------------
LOEWDIN REDUCED ORBITAL CHARGES
-------------------------------
  0 C s       :     0.000042  s :     0.000042
      pz      :     0.000118  p :     0.000517
      px      :     0.000256
      py      :     0.000144
      dz2     :     0.000001  d :     0.000009
      dxz     :     0.000001
      dyz     :     0.000000
      dx2y2   :     0.000000
      dxy     :     0.000007
      f0      :     0.000000  f :     0.000000
      f+1     :     0.000000
      f-1     :     0.000000
      f+2     :     0.000000
      f-2     :     0.000000
      f+3     :     0.000000
      f-3     :     0.000000
  1 O s       :     0.000006  s :     0.000006
      pz      :     0.000001  p :     0.000033
      px      :     0.000019
      py      :     0.000013
      dz2     :     0.000000  d :     0.000000
      dxz     :     0.000000
      dyz     :     0.000000
      dx2y2   :     0.000000
      dxy     :     0.000000
      f0      :     0.000000  f :     0.000000
      f+1     :     0.000000
      f-1     :     0.000000
      f+2     :     0.000000
      f-2     :     0.000000
      f+3     :     0.000000
      f-3     :     0.000000
  2 H s       :     0.000206  s :     0.000206
      pz      :     0.000000  p :     0.000000
      px      :     0.000000
      py      :     0.000000
  3 H s       :     0.001167  s :     0.001167
      pz      :     0.000001  p :     0.000005
      px      :     0.000003
      py      :     0.000002
  4 H s       :     0.000003  s :     0.000003
      pz      :     0.000000  p :     0.000001
      px      :     0.000000
      py      :     0.000000
  5 H s       :     0.000006  s :     0.000006
      pz      :     0.000000  p :     0.000001
      px      :     0.000001
      py      :     0.000000
  6 C s       :     2.845889  s :     2.845889
      pz      :     1.024160  p :     3.058447
      px      :     0.925433
      py      :     1.108853
      dz2     :     0.059893  d :     0.439661
      dxz     :     0.096722
      dyz     :     0.107837
      dx2y2   :     0.110843
      dxy     :     0.064367
      f0      :     0.008751  f :     0.063060
      f+1     :     0.013377
      f-1     :     0.002243
      f+2     :     0.009810
      f-2     :     0.010277
      f+3     :     0.007458
      f-3     :     0.011143
  7 O s       :     3.335584  s :     3.335584
      pz      :     1.314342  p :     4.613216
      px      :     1.557912
      py      :     1.740963
      dz2     :     0.020932  d :     0.077153
      dxz     :     0.021066
      dyz     :     0.010925
      dx2y2   :     0.013097
      dxy     :     0.011133
      f0      :     0.000486  f :     0.005521
      f+1     :     0.001683
      f-1     :     0.000602
      f+2     :     0.000768
      f-2     :     0.000943
      f+3     :     0.000547
      f-3     :     0.000492
  8 H s       :     0.672748  s :     0.672748
      pz      :     0.069779  p :     0.173908
      px      :     0.046235
      py      :     0.057895
  9 H s       :     0.841779  s :     0.841779
      pz      :     0.028498  p :     0.070761
      px      :     0.013349
      py      :     0.028913
 10 H s       :     0.843561  s :     0.843561
      pz      :     0.016163  p :     0.055715
      px      :     0.026994
      py      :     0.012557
 11 H s       :     0.844106  s :     0.844106
      pz      :     0.017171  p :     0.056894
      px      :     0.009232
      py      :     0.030490


                      *****************************
                      * MAYER POPULATION ANALYSIS *
                      *****************************

  NA   - Mulliken gross atomic population
  ZA   - Total nuclear charge
  QA   - Mulliken gross atomic charge
  VA   - Mayer's total valence
  BVA  - Mayer's bonded valence
  FA   - Mayer's free valence

  ATOM       NA         ZA         QA         VA         BVA        FA
  0 C     -0.0007     0.0000     0.0007    -0.0014    -0.0014    -0.0000
  1 O      0.0000     0.0000    -0.0000     0.0000     0.0000     0.0000
  2 H      0.0003     0.0000    -0.0003     0.0007     0.0007     0.0000
  3 H      0.0024     0.0000    -0.0024     0.0047     0.0047     0.0000
  4 H     -0.0000     0.0000     0.0000    -0.0000    -0.0000    -0.0000
  5 H      0.0001     0.0000    -0.0001     0.0001     0.0001     0.0000
  6 C      6.1708     6.0000    -0.1708     3.9596     3.9596     0.0000
  7 O      8.4504     8.0000    -0.4504     1.8994     1.8994     0.0000
  8 H      0.6869     1.0000     0.3131     0.9156     0.9156    -0.0000
  9 H      0.8802     1.0000     0.1198     0.9492     0.9492     0.0000
 10 H      0.9055     1.0000     0.0945     0.9636     0.9636     0.0000
 11 H      0.9042     1.0000     0.0958     0.9556     0.9556     0.0000

  Mayer bond orders larger than 0.1
B(  6-C ,  7-O ) :   1.0071 B(  6-C ,  9-H ) :   0.9729 B(  6-C , 10-H ) :   0.9870 
B(  6-C , 11-H ) :   0.9831 B(  7-O ,  8-H ) :   0.9073 

-------
TIMINGS
-------

Total SCF time: 0 days 0 hours 0 min 8 sec 

Total time                  ....       8.739 sec
Sum of individual times     ....       8.470 sec  ( 96.9%)

Fock matrix formation       ....       7.927 sec  ( 90.7%)
  XC integration            ....       1.265 sec  ( 16.0% of F)
    Basis function eval.    ....       0.063 sec  (  5.0% of XC)
    Density eval.           ....       0.057 sec  (  4.5% of XC)
    XC-Functional eval.     ....       0.092 sec  (  7.3% of XC)
    XC-Potential eval.      ....       0.062 sec  (  4.9% of XC)
Diagonalization             ....       0.042 sec  (  0.5%)
Density matrix formation    ....       0.006 sec  (  0.1%)
Population analysis         ....       0.021 sec  (  0.2%)
Initial guess               ....       0.098 sec  (  1.1%)
Orbital Transformation      ....       0.000 sec  (  0.0%)
Orbital Orthonormalization  ....       0.000 sec  (  0.0%)
DIIS solution               ....       0.028 sec  (  0.3%)
SOSCF solution              ....       0.027 sec  (  0.3%)
Grid generation             ....       0.320 sec  (  3.7%)


-------------------------------------------------------------------------------
                          DFT DISPERSION CORRECTION                            
                                                                               
                              DFTD3 V3.1  Rev 1                                
                              USING zero damping                               
-------------------------------------------------------------------------------
The omegaB97X-D3 functional is recognized. Fit by Chai et al.
Active option DFTDOPT                   ...         3   

molecular C6(AA) [au] = 208.604676 


            DFT-D V3
 parameters
 s6 scaling factor         :     1.0000 
 rs6 scaling factor        :     1.2810 
 s8 scaling factor         :     1.0000 
 rs8 scaling factor        :     1.0940 
 Damping factor alpha6     :    14.0000 
 Damping factor alpha8     :    16.0000 
 ad hoc parameters k1-k3   :    16.0000     1.3333    -4.0000 

 Edisp/kcal,au: -0.136727384041  -0.000217888933 
 E6   /kcal   :  -0.024359699 
 E8   /kcal   :  -0.112367685 
 % E8         :  82.183745487 

-------------------------   ----------------
Dispersion correction           -0.000217889
-------------------------   ----------------


-------------------------   --------------------
FINAL SINGLE POINT ENERGY      -115.728426508150
-------------------------   --------------------


                            ***************************************
                            *     ORCA property calculations      *
                            ***************************************

                                    ---------------------
                                    Active property flags
                                    ---------------------
   (+) Dipole Moment


------------------------------------------------------------------------------
                       ORCA ELECTRIC PROPERTIES CALCULATION
------------------------------------------------------------------------------

Dipole Moment Calculation                       ... on
Quadrupole Moment Calculation                   ... off
Polarizability Calculation                      ... off
GBWName                                         ... 7-12_DFT_B.gbw
Electron density file                           ... 7-12_DFT_B.scfp.tmp
The origin for moment calculation is the CENTER OF MASS  = ( 7.552189, 10.199718 -4.178089)

-------------
DIPOLE MOMENT
-------------
                                X             Y             Z
Electronic contribution:     -1.64383       0.39214       0.93071
Nuclear contribution   :      2.25153      -0.59429      -0.68004
                        -----------------------------------------
Total Dipole Moment    :      0.60770      -0.20215       0.25067
                        -----------------------------------------
Magnitude (a.u.)       :      0.68775
Magnitude (Debye)      :      1.74813



--------------------
Rotational spectrum 
--------------------
 
Rotational constants in cm-1:     4.435714     0.868564     0.835981 
Rotational constants in MHz : 132979.373017 26038.895949 25062.072166 

 Dipole components along the rotational axes: 
x,y,z [a.u.] :     0.349231     0.590854    -0.043977 
x,y,z [Debye]:     0.887675     1.501831    -0.111780 

 
------------------------------------------------------------------------------
                      ORCA CHELPG CHARGES GENERATION
------------------------------------------------------------------------------

GBW file                           ... 7-12_DFT_B.gbw

Reading the GBW file               ... done

Grid spacing                       ...     0.300000
Point Cut-Off                      ...     2.800000
Van-der-Waals Radii                ...        COSMO
Total charge                       ...            0


Number of points X direction       ...           40
Number of points Y direction       ...           32
Number of points Z direction       ...           27
Maximum number of possible points  ...        34560
Final number of points             ...         5867


CHELPG Charges            
--------------------------------
  0   C   :      -0.115630
  1   O   :       0.001784
  2   H   :      -0.022536
  3   H   :       0.042061
  4   H   :       0.060069
  5   H   :       0.025769
  6   C   :       0.114481
  7   O   :      -0.584779
  8   H   :       0.412218
  9   H   :       0.064084
 10   H   :      -0.005910
 11   H   :       0.008390
--------------------------------
Total charge:     0.000000
--------------------------------

CHELPG charges calculated...

Timings for individual parts in CHELPG calculation:
Grid generation                 ...        0.001 sec (=   0.000 min)
Potential calculation           ...        1.214 sec (=   0.020 min)
Fit to the potential            ...        0.002 sec (=   0.000 min)
------------------------------------------------------------------------------


Timings for individual modules:

Sum of individual times         ...       12.163 sec (=   0.203 min)
GTO integral calculation        ...        0.641 sec (=   0.011 min)   5.3 %
SCF iterations                  ...       10.271 sec (=   0.171 min)  84.4 %
CHELPG charge generation        ...        1.251 sec (=   0.021 min)  10.3 %



                             ****ORCA TERMINATED NORMALLY****
TOTAL RUN TIME: 0 days 0 hours 1 minutes 9 seconds 966 msec
