LAMMPS data file via vdw_self_gen.py, on 2021-08-05 13:23:27.755338

5500 atoms
5 atom types
5000 bonds
4 bond types
9000 angles
6 angle types
9000 dihedrals
3 dihedral types

-39.9720729579556178  39.9720729579556178 xlo xhi
-39.9720729579556178  39.9720729579556178 ylo yhi
-39.9720729579556178  39.9720729579556178 zlo zhi

Masses

1  1.007940
2  1.007940
3  126.904470
4  12.011000
5  12.011000

Atoms

1         0    5   -0.0898570909090909  -30.9519081427473282  23.1692156894618115  14.1792799997216559 0 0 0
2         0    4    0.0869789090909091  -30.5674834708113075  22.1767402092455477  13.0844551306780374 0 0 0
3         0    2    0.0285689090909091  -30.0474119217104771  23.7067243273626964  14.5341913265513263 0 0 0
4         0    2    0.0285689090909091  -31.4145467995191190  22.6397900092434021  15.0394465087102738 0 0 0
5         0    2    0.0285689090909091  -31.6727327530847980  23.9166957278572632  13.7846118946863374 0 0 0
6         0    5   -0.0898570909090909  -31.7935901590328847  21.4308836061223857  12.5631063015090252 0 0 0
7         0    2    0.0285689090909091  -32.2775756720760896  20.8573356263559226  13.3822686386377026 0 0 0
8         0    2    0.0285689090909091  -31.4914031473267784  20.7244505842605129  11.7614746598061544 0 0 0
9         0    2    0.0285689090909091  -32.5289667681606147  22.1483280172429531  12.1405149028747665 0 0 0
10        0    3   -0.0909210909090909  -29.1420584400638667  20.7738185725328997  13.8510666293278817 0 0 0
11        0    1    0.0122429090909091  -30.0956135879758975  22.7297968178211676  12.2438515200007281 0 0 0
12        1    5   -0.0898570909090909  -32.0407260234837139  21.8442369772016569  30.2891642265492109 0 0 0
13        1    4    0.0869789090909091  -31.3462596130320605  22.1923816637152314  31.6036767153094935 0 0 0
14        1    2    0.0285689090909091  -33.0485020986178171  21.4260996222006206  30.4954153704007140 0 0 0
15        1    2    0.0285689090909091  -31.4496697191227419  21.0921981928863218  29.7240955468644685 0 0 0
16        1    2    0.0285689090909091  -32.1592355414084352  22.7549303811614436  29.6641278612508508 0 0 0
17        1    5   -0.0898570909090909  -29.9615481435529318  22.7853481263547799  31.3538583703511868 0 0 0
18        1    2    0.0285689090909091  -29.3177302443285370  22.0571757356410387  30.8158159198507420 0 0 0
19        1    2    0.0285689090909091  -29.4814694809738675  23.0406816243570134  32.3220046278630591 0 0 0
20        1    2    0.0285689090909091  -30.0441275741706342  23.7123045676515396  30.7472109240718048 0 0 0
21        1    3   -0.0909210909090909  -31.1700477533721099  20.4339587361354447  32.8138903390870951 0 0 0
22        1    1    0.0122429090909091  -31.9639746704463050  22.9344635602014790  32.1540309609105321 0 0 0
23        2    5   -0.0898570909090909  -4.0360076222859806  -14.4303853626014025  13.8611052203710123 0 0 0
24        2    4    0.0869789090909091  -4.8939688363388560  -13.1850280373299729  13.6503468547631464 0 0 0
25        2    2    0.0285689090909091  -4.3255287988821403  -14.9305510725917010  14.8092627760822406 0 0 0
26        2    2    0.0285689090909091  -2.9603938384800426  -14.1574956523225008  13.9140079132189491 0 0 0
27        2    2    0.0285689090909091  -4.1866446756702009  -15.1468088474474865  13.0255674843538340 0 0 0
28        2    5   -0.0898570909090909  -4.5306956636705236  -12.4814521913935472  12.3447979602232518 0 0 0
29        2    2    0.0285689090909091  -3.4676318499846062  -12.1590967410402850  12.3592370792787953 0 0 0
30        2    2    0.0285689090909091  -5.1742245095262245  -11.5869680045546133  12.2078798918512277 0 0 0
31        2    2    0.0285689090909091  -4.6898742556577204  -13.1642025474104507  11.4830538812115321 0 0 0
32        2    3   -0.0909210909090909  -4.6260343522055738  -11.8381560431962036  15.2940821651249941 0 0 0
33        2    1    0.0122429090909091  -5.9637514347994252  -13.4841230126157647  13.6149262860249056 0 0 0
34        3    5   -0.0898570909090909  -22.1697489162538481 -4.3941666261610060   23.5002275034110681 0 0 0
35        3    4    0.0869789090909091  -22.5298569466542595 -4.9065788704847950   22.1076804487632970 0 0 0
36        3    2    0.0285689090909091  -22.7393571393204859 -4.9592054208513003   24.2678658507529796 0 0 0
37        3    2    0.0285689090909091  -22.4163053567019936 -3.3149455552473195   23.5935243552842593 0 0 0
38        3    2    0.0285689090909091  -21.0848459003616711 -4.5352225330347720   23.6930126611491154 0 0 0
39        3    5   -0.0898570909090909  -21.7504386095278228 -4.1592234811098070   21.0281382945501178 0 0 0
40        3    2    0.0285689090909091  -21.9863719132192053 -3.0740380126602895   21.0587025183300867 0 0 0
41        3    2    0.0285689090909091  -22.0199792154518939 -4.5561457729725223   20.0267500334942277 0 0 0
42        3    2    0.0285689090909091  -20.6582842233460937 -4.2962132788539655   21.1782093529125461 0 0 0
43        3    3   -0.0909210909090909  -24.6322455732802190 -4.6698218508680025   21.7735741734615722 0 0 0
44        3    1    0.0122429090909091  -22.2863453933890376 -5.9891944352575130   22.0460939953972925 0 0 0
45        4    5   -0.0898570909090909   30.9956564076831853 -20.9541269436646971 -13.0093135644592195 0 0 0
46        4    4    0.0869789090909091   30.6633688462254348 -22.2722721905427008 -13.7046620279891069 0 0 0
47        4    2    0.0285689090909091   30.3972602754736059 -20.1321220205247755 -13.4556553336119205 0 0 0
48        4    2    0.0285689090909091   32.0744702616776038 -20.7148834520359948 -13.1239247373133896 0 0 0
49        4    2    0.0285689090909091   30.7524794264537036 -21.0184024152177500 -11.9272733344507635 0 0 0
50        4    5   -0.0898570909090909   31.4596936208215574 -23.4276283468361335 -13.1026127854189394 0 0 0
51        4    2    0.0285689090909091   32.5502867562301006 -23.2511492661693921 -13.2196082707454554 0 0 0
52        4    2    0.0285689090909091   31.1933530374090608 -24.3756634003709642 -13.6157113376452212 0 0 0
53        4    2    0.0285689090909091   31.2245406223953381 -23.5346431282402939 -12.0221778570719451 0 0 0
54        4    3   -0.0909210909090909   31.0941346515853496 -22.1125529636035800 -15.7967063430977994 0 0 0
55        4    1    0.0122429090909091   29.5780469565542319 -22.4803350603002450 -13.5866219207001748 0 0 0
56        5    5   -0.0898570909090909   13.2787984897208950 -29.8180234600015588  31.3309841633992789 0 0 0
57        5    4    0.0869789090909091   12.8066570261919370 -31.2686025949121102  31.2651509432222525 0 0 0
58        5    2    0.0285689090909091   12.4334707786118166 -29.1602473442932180  31.6238026089158630 0 0 0
59        5    2    0.0285689090909091   13.6630601714863111 -29.4886238120344721  30.3420193851356856 0 0 0
60        5    2    0.0285689090909091   14.0859447266209319 -29.7104587159811011  32.0866442840235777 0 0 0
61        5    5   -0.0898570909090909   13.9513925111668247 -32.2025536840250979  30.8794563521479262 0 0 0
62        5    2    0.0285689090909091   14.3527090388808798 -31.9336634119118017  29.8790218152359017 0 0 0
63        5    2    0.0285689090909091   13.5873757823892625 -33.2511492593810587  30.8491737843243357 0 0 0
64        5    2    0.0285689090909091   14.7701690847312186 -32.1361890508400450  31.6273128815333173 0 0 0
65        5    3   -0.0909210909090909   11.2191959497267266 -31.4461746856910551  29.8382121533001623 0 0 0
66        5    1    0.0122429090909091   12.4154939529770925 -31.5676048434376391  32.2615124912708495 0 0 0
67        6    5   -0.0898570909090909   13.1547561592944113  12.2442730513908948  30.3949322716437678 0 0 0
68        6    4    0.0869789090909091   13.1005458344060468  13.1809580877032317  31.5995541145986607 0 0 0
69        6    2    0.0285689090909091   12.8397575337851606  11.2234572281720446  30.6977555214006479 0 0 0
70        6    2    0.0285689090909091   14.1868777557323469  12.1943910298814959  29.9869502930019038 0 0 0
71        6    2    0.0285689090909091   12.4680069404788707  12.6022459873035846  29.5984975113461672 0 0 0
72        6    5   -0.0898570909090909   13.5137907361163716  14.5990208561751871  31.2125516328442174 0 0 0
73        6    2    0.0285689090909091   14.5550340108234160  14.6088853849209332  30.8253290476945665 0 0 0
74        6    2    0.0285689090909091   13.4557051087663773  15.2632655274754772  32.1004609581384912 0 0 0
75        6    2    0.0285689090909091   12.8332476692001762  14.9976844951644193  30.4302363718910911 0 0 0
76        6    3   -0.0909210909090909   14.3942091535597019  12.4483376629348932  33.1414430070901460 0 0 0
77        6    1    0.0122429090909091   12.0623366103410223  13.2017482013817311  31.9955801328595015 0 0 0
78        7    5   -0.0898570909090909   30.4348002453458051 -13.4286461318939878 -29.9770265664452964 0 0 0
79        7    4    0.0869789090909091   30.7790919719438598 -13.6490779727659604 -31.4481840738611105 0 0 0
80        7    2    0.0285689090909091   29.4364780241416071 -13.8613618756580035 -29.7554395015053927 0 0 0
81        7    2    0.0285689090909091   30.4153454899767546 -12.3433764689552969 -29.7403331529364792 0 0 0
82        7    2    0.0285689090909091   31.1858603956610558 -13.9269733245052549 -29.3276760451452780 0 0 0
83        7    5   -0.0898570909090909   32.1552539853575325 -13.0781976575992900 -31.7824265959800734 0 0 0
84        7    2    0.0285689090909091   32.1794443801545142 -11.9840270876342760 -31.5915554742198523 0 0 0
85        7    2    0.0285689090909091   32.3880938102302878 -13.2601437337967880 -32.8527812730425737 0 0 0
86        7    2    0.0285689090909091   32.9360476320658648 -13.5704653641009223 -31.1642660044704485 0 0 0
87        7    3   -0.0909210909090909   29.2945753096024291 -12.7220541017894675 -32.6829131327118461 0 0 0
88        7    1    0.0122429090909091   30.7782996180294468 -14.7399437938046756 -31.6606890421908105 0 0 0
89        8    5   -0.0898570909090909   14.1448039665184861  22.6070240247968215  14.2420947771731292 0 0 0
90        8    4    0.0869789090909091   13.2179260512046195  22.6903257308274604  13.0315620196750963 0 0 0
91        8    2    0.0285689090909091   14.6823502489788780  23.5700214964060919  14.3712104752395451 0 0 0
92        8    2    0.0285689090909091   14.8912659223672268  21.7956338555585454  14.1055186352817437 0 0 0
93        8    2    0.0285689090909091   13.5570204060077479  22.4063602522599261  15.1631387371362685 0 0 0
94        8    5   -0.0898570909090909   12.4509587639231984  21.3846867053484111  12.8353167639711181 0 0 0
95        8    2    0.0285689090909091   13.1544485631751016  20.5422822642543501  12.6630290497442495 0 0 0
96        8    2    0.0285689090909091   11.7763798685226746  21.4729840627557778  11.9577492258550517 0 0 0
97        8    2    0.0285689090909091   11.8339076493590785  21.1628947245031434  13.7320580698937960 0 0 0
98        8    3   -0.0909210909090909   14.3635801859754793  23.1246812591517639  11.2747095200620677 0 0 0
99        8    1    0.0122429090909091   12.4916258864714091  23.5168848116442710  13.1878802384718234 0 0 0
100       9    5   -0.0898570909090909   13.1372244566105412 -23.3859354707803213 -3.9400305083402465  0 0 0
101       9    4    0.0869789090909091   13.0371236819452605 -22.2354070480581143 -4.9388776360428501  0 0 0
102       9    2    0.0285689090909091   12.4621405617850805 -24.2117751880652889 -4.2486427179204691  0 0 0
103       9    2    0.0285689090909091   12.8451913572736132 -23.0453938394310249 -2.9236838317531637  0 0 0
104       9    2    0.0285689090909091   14.1768434730273896 -23.7759421888492000 -3.9059057319217931  0 0 0
105       9    5   -0.0898570909090909   13.9666611355396331 -21.0878614410403351 -4.5508782968945551  0 0 0
106       9    2    0.0285689090909091   13.6956588804664712 -20.6889995918613181 -3.5500320551996802  0 0 0
107       9    2    0.0285689090909091   13.8851313476536387 -20.2692043245501949 -5.2966204190167545  0 0 0
108       9    2    0.0285689090909091   15.0206176076731222 -21.4381593312936225 -4.5273013286410766  0 0 0
109       9    3   -0.0909210909090909   11.0168478961422753 -21.5291887132987689 -5.0252503160282940  0 0 0
110       9    1    0.0122429090909091   13.3208271143868640 -22.6059120502783379 -5.9475329957424075  0 0 0
111       10   5   -0.0898570909090909  -4.0114054976143425  -12.3129836848373202 -31.7747644848739021 0 0 0
112       10   4    0.0869789090909091  -4.0401218675838280  -13.7233774807452455 -31.1904733659441433 0 0 0
113       10   2    0.0285689090909091  -3.0428848209372732  -12.1385744773093034 -32.2890991296125733 0 0 0
114       10   2    0.0285689090909091  -4.1312402986260484  -11.5560738673063526 -30.9704388981916772 0 0 0
115       10   2    0.0285689090909091  -4.8301453764974998  -12.1868410856154039 -32.5149202084807243 0 0 0
116       10   5   -0.0898570909090909  -5.3673712022132518  -14.0008740654699722 -30.4884412198198440 0 0 0
117       10   2    0.0285689090909091  -5.5216012216013173  -13.2867963646688239 -29.6514631228315757 0 0 0
118       10   2    0.0285689090909091  -5.3691843457466177  -15.0343240177819801 -30.0822937072374756 0 0 0
119       10   2    0.0285689090909091  -6.2095478977872176  -13.9038910128913411 -31.2063697896961543 0 0 0
120       10   3   -0.0909210909090909  -2.4264716128481396  -13.9618028146749946 -29.8023072943115253 0 0 0
121       10   1    0.0122429090909091  -3.9047816960457595  -14.4587286412031890 -32.0127196415095625 0 0 0
122       11   5   -0.0898570909090909  -31.5427008819569465  22.9717184944306609  21.2654032155458346 0 0 0
123       11   4    0.0869789090909091  -30.9145833230653722  21.7418576331790341  21.9168185939899445 0 0 0
124       11   2    0.0285689090909091  -31.4718213663076654  22.8895700178198318  20.1603155621663142 0 0 0
125       11   2    0.0285689090909091  -31.0174884728717615  23.8951714133726298  21.5903634171713144 0 0 0
126       11   2    0.0285689090909091  -32.6153193299031230  23.0486787907063650  21.5440503359736297 0 0 0
127       11   5   -0.0898570909090909  -31.0098361888355818  21.8166645583033372  23.4389142219043123 0 0 0
128       11   2    0.0285689090909091  -30.4710853794276524  22.7108070132375417  23.8190234590277150 0 0 0
129       11   2    0.0285689090909091  -30.5576497373501041  20.9079531750858827  23.8891907241826331 0 0 0
130       11   2    0.0285689090909091  -32.0732510310691978  21.8736731780512095  23.7551224145427966 0 0 0
131       11   3   -0.0909210909090909  -28.8607321709501115  21.5845940441887265  21.3297219789148009 0 0 0
132       11   1    0.0122429090909091  -31.4488229807716451  20.8330908691313468  21.5648552640872708 0 0 0
133       12   5   -0.0898570909090909   21.8995705266320861  23.0370738693880241  12.3790669588936577 0 0 0
134       12   4    0.0869789090909091   21.9742849829607820  21.7145316461598590  13.1384951772883891 0 0 0
135       12   2    0.0285689090909091   21.4678647492363979  22.8676041795815372  11.3701560879045047 0 0 0
136       12   2    0.0285689090909091   22.9127653644043363  23.4784123920456658  12.2656252120364702 0 0 0
137       12   2    0.0285689090909091   21.2506317179037509  23.7563502193838083  12.9227556516793420 0 0 0
138       12   5   -0.0898570909090909   22.5502709240162638  21.9158978185631099  14.5381866237572606 0 0 0
139       12   2    0.0285689090909091   23.5799879146927935  22.3287753569073253  14.4795244217623580 0 0 0
140       12   2    0.0285689090909091   22.5841946222159784  20.9441160978064111  15.0743464537553837 0 0 0
141       12   2    0.0285689090909091   21.9125782004735683  22.6158090910896092  15.1191865647478210 0 0 0
142       12   3   -0.0909210909090909   23.1902430572945271  20.3263762802948058  12.0512098106147558 0 0 0
143       12   1    0.0122429090909091   20.9513871276760852  21.2888322362864102  13.2257145500639499 0 0 0
144       13   5   -0.0898570909090909  -31.4143741518298363  13.4792486506308649 -29.8455746118073435 0 0 0
145       13   4    0.0869789090909091  -31.5767072684953547  13.1266831621480939 -31.3223199983464546 0 0 0
146       13   2    0.0285689090909091  -32.4012785432308092  13.4379587101748719 -29.3383213588353904 0 0 0
147       13   2    0.0285689090909091  -30.9965461525171975  14.5025108625467762 -29.7334732761537062 0 0 0
148       13   2    0.0285689090909091  -30.7338456429711222  12.7544693956390311 -29.3499402506457763 0 0 0
149       13   5   -0.0898570909090909  -30.2328147070136808  13.1592564405922161 -32.0464305214889151 0 0 0
150       13   2    0.0285689090909091  -29.7850147997685610  14.1744104970317704 -31.9901839103414360 0 0 0
151       13   2    0.0285689090909091  -30.3741935199988049  12.8889676846111083 -33.1141073981838829 0 0 0
152       13   2    0.0285689090909091  -29.5318619304690486  12.4289498640417655 -31.5888212560653159 0 0 0
153       13   3   -0.0909210909090909  -32.9285032019835242  14.5059525461595680 -32.2485934716972977 0 0 0
154       13   1    0.0122429090909091  -32.0081509442312111  12.1058596989278282 -31.4055248089436390 0 0 0
155       14   5   -0.0898570909090909   29.9828674123915668 -13.9954641180072041  4.4808679156125546  0 0 0
156       14   4    0.0869789090909091   31.1155557615219784 -13.1582753739192153  3.8913227420960670  0 0 0
157       14   2    0.0285689090909091   29.1668130106491503 -14.1022929444332501  3.7354594270364760  0 0 0
158       14   2    0.0285689090909091   29.5739317457036606 -13.5098639056368679  5.3925567633322009  0 0 0
159       14   2    0.0285689090909091   30.3519019074481626 -15.0092401185800224  4.7457248617569237  0 0 0
160       14   5   -0.0898570909090909   32.2624132668047992 -13.0053104105470165  4.8876981068843683  0 0 0
161       14   2    0.0285689090909091   31.9113155541580866 -12.4945689421711421  5.8097066454324100  0 0 0
162       14   2    0.0285689090909091   33.0776075334598900 -12.4035955602994061  4.4334124698626960  0 0 0
163       14   2    0.0285689090909091   32.6708366269259756 -14.0019810045136737  5.1595929698911487  0 0 0
164       14   3   -0.0909210909090909   30.3736307579954854 -11.2251041597944052  3.3434950566680688  0 0 0
165       14   1    0.0122429090909091   31.4964172854504056 -13.6585709746017319  2.9749188789283947  0 0 0
166       15   5   -0.0898570909090909   21.9705028649076439  5.2317854611806069  -5.4394355824310443  0 0 0
167       15   4    0.0869789090909091   22.7808731279247887  4.4474087441416810  -4.4101228973422284  0 0 0
168       15   2    0.0285689090909091   22.6400873389157091  5.9134526250286843  -6.0051011280484818  0 0 0
169       15   2    0.0285689090909091   21.1850291947578313  5.8362799816938598  -4.9376089301189054  0 0 0
170       15   2    0.0285689090909091   21.4874108375888895  4.5367505679239635  -6.1588979025679613  0 0 0
171       15   5   -0.0898570909090909   21.8902487540804849  3.4877058301399431  -3.6245003247470757  0 0 0
172       15   2    0.0285689090909091   21.1027457571741586  4.0479550856337054  -3.0766080013091264  0 0 0
173       15   2    0.0285689090909091   22.5024058494666832  2.9213003668468480  -2.8914065823647750  0 0 0
174       15   2    0.0285689090909091   21.4057611628571749  2.7625336286429083  -4.3126033567318043  0 0 0
175       15   3   -0.0909210909090909   23.7422556989283038  5.8060757548261641  -3.0619810898351902  0 0 0
176       15   1    0.0122429090909091   23.5664586009048875  3.8635077914429332  -4.9364900420047055  0 0 0
177       16   5   -0.0898570909090909   30.4634272970260582 -14.4336024771778746 -13.0920910015493721 0 0 0
178       16   4    0.0869789090909091   30.7581459599322713 -12.9357775314876768 -13.0590343395443096 0 0 0
179       16   2    0.0285689090909091   29.6139570721212628 -14.6648271145934146 -12.4153883314997682 0 0 0
180       16   2    0.0285689090909091   31.3522922276085652 -15.0124559689444634 -12.7618482559058748 0 0 0
181       16   2    0.0285689090909091   30.1887010741127924 -14.7486429328953257 -14.1213394912277224 0 0 0
182       16   5   -0.0898570909090909   31.9133803821914377 -12.5818794406243502 -13.9926476727346785 0 0 0
183       16   2    0.0285689090909091   32.8390427791467729 -13.1137405248831307 -13.6852405966710702 0 0 0
184       16   2    0.0285689090909091   32.1014883539488665 -11.4880088326780090 -13.9603927904309426 0 0 0
185       16   2    0.0285689090909091   31.6637125989346977 -12.8649295334571008 -15.0374621890250264 0 0 0
186       16   3   -0.0909210909090909   31.2389053605097757 -12.3394338192914255 -11.0587935033997375 0 0 0
187       16   1    0.0122429090909091   29.8502377569766679 -12.3809693364711659 -13.3800293405154349 0 0 0
188       17   5   -0.0898570909090909   32.0393033655526835 -4.2971768593159831  -23.0748474390438254 0 0 0
189       17   4    0.0869789090909091   30.6684612576874720 -4.6768522928394125  -22.5198070066585352 0 0 0
190       17   2    0.0285689090909091   32.1426079881832507 -4.6759362813276990  -24.1135295149364097 0 0 0
191       17   2    0.0285689090909091   32.8469122588808489 -4.7367104853811117  -22.4513167118336376 0 0 0
192       17   2    0.0285689090909091   32.1551314009128149 -3.1924512778814309  -23.0904261343909027 0 0 0
193       17   5   -0.0898570909090909   30.4883399980992920 -4.1562677650021440  -21.0957310373995846 0 0 0
194       17   2    0.0285689090909091   31.2565915036570843 -4.5922431267875981  -20.4219793734875594 0 0 0
195       17   2    0.0285689090909091   29.4817700024280072 -4.4341819566694305  -20.7181619188474286 0 0 0
196       17   2    0.0285689090909091   30.5773747737485984 -3.0491025965407763  -21.0771076926144296 0 0 0
197       17   3   -0.0909210909090909   30.4461494993291772 -6.8070607369191825  -22.5423523779544546 0 0 0
198       17   1    0.0122429090909091   29.8806488140299322 -4.2367724588365254  -23.1685199803397559 0 0 0
199       18   5   -0.0898570909090909   5.0707557175389928  -30.3289496846349529 -21.3686414315003326 0 0 0
200       18   4    0.0869789090909091   4.7949627319082513  -31.0953842581274706 -22.6601319172307605 0 0 0
201       18   2    0.0285689090909091   6.1028096062109434  -29.9196693185083795 -21.3872250904625325 0 0 0
202       18   2    0.0285689090909091   4.9669908863933898  -30.9991497672777037 -20.4887112014008430 0 0 0
203       18   2    0.0285689090909091   4.3588213930800457  -29.4825574398055572 -21.2644918978967077 0 0 0
204       18   5   -0.0898570909090909   3.3758816437265473  -31.6588475072591891 -22.6728722878281808 0 0 0
205       18   2    0.0285689090909091   3.2291200883452191  -32.3628073984630475 -21.8260383525502561 0 0 0
206       18   2    0.0285689090909091   3.1950794611308391  -32.2012315164716583 -23.6247693677266675 0 0 0
207       18   2    0.0285689090909091   2.6346552498050184  -30.8354336818282100 -22.5912522195655256 0 0 0
208       18   3   -0.0909210909090909   6.2069333118445389  -32.6927524885734258 -22.8662208413783574 0 0 0
209       18   1    0.0122429090909091   4.9187457475175052  -30.4065078015595667 -23.5234245799663633 0 0 0
210       19   5   -0.0898570909090909  -5.5988956007786559   4.1876633542611179  -30.5673728859373099 0 0 0
211       19   4    0.0869789090909091  -4.1981350968398470   4.7818269798007629  -30.6949307072995126 0 0 0
212       19   2    0.0285689090909091  -6.0021243591461264   4.3895312334465748  -29.5526576907329535 0 0 0
213       19   2    0.0285689090909091  -5.5718481097196015   3.0890177883489236  -30.7300346654949266 0 0 0
214       19   2    0.0285689090909091  -6.2807773452880173   4.6471365310219328  -31.3143662769001807 0 0 0
215       19   5   -0.0898570909090909  -3.6205195889693389   4.5345369801308193  -32.0865672496950936 0 0 0
216       19   2    0.0285689090909091  -3.5432598876268218   3.4446857696312385  -32.2877673342404421 0 0 0
217       19   2    0.0285689090909091  -2.6080271237629611   4.9846387759255979  -32.1589915185740836 0 0 0
218       19   2    0.0285689090909091  -4.2682209021805999   4.9999995793973220  -32.8598177317825417 0 0 0
219       19   3   -0.0909210909090909  -2.9112869994805251   3.9185644185420134  -29.2162425888811441 0 0 0
220       19   1    0.0122429090909091  -4.2516608237088001   5.8771544269949949  -30.5145422129709729 0 0 0
221       20   5   -0.0898570909090909  -13.0624459669148862  21.5344317869798765  3.3659769935978474  0 0 0
222       20   4    0.0869789090909091  -13.8300620929728701  21.9883311385820761  4.6054011593824384  0 0 0
223       20   2    0.0285689090909091  -13.5501812683591218  20.6377222538697964  2.9289217470275517  0 0 0
224       20   2    0.0285689090909091  -12.0138302612219583  21.2791741498656570  3.6295318100382867  0 0 0
225       20   2    0.0285689090909091  -13.0572026058320532  22.3397601975451963  2.6007998258119152  0 0 0
226       20   5   -0.0898570909090909  -13.1927627337761191  23.2311303402137384  5.2224456927761835  0 0 0
227       20   2    0.0285689090909091  -12.1474534447317524  23.0189141132284227  5.5331206994015458  0 0 0
228       20   2    0.0285689090909091  -13.7737603419605819  23.5485857273955084  6.1138724984272326  0 0 0
229       20   2    0.0285689090909091  -13.1897638968951583  24.0657805305788024  4.4893435189962156  0 0 0
230       20   3   -0.0909210909090909  -13.8696663001018834  20.4061666511214632  6.0486287465273634  0 0 0
231       20   1    0.0122429090909091  -14.8771385997375489  22.2237822981260251  4.3167131455147203  0 0 0
232       21   5   -0.0898570909090909   14.4292984091990455  4.3950985304514472  -5.1144067676155833  0 0 0
233       21   4    0.0869789090909091   13.2084258176912073  5.0045176721740114  -4.4291988968879767  0 0 0
234       21   2    0.0285689090909091   14.9623927630656777  5.1757217381998384  -5.6970119658417495  0 0 0
235       21   2    0.0285689090909091   14.1220295017521718  3.5804342472568464  -5.8044215681839457  0 0 0
236       21   2    0.0285689090909091   15.1292545165776602  3.9825496479403006  -4.3568169662836276  0 0 0
237       21   5   -0.0898570909090909   12.4607044659751178  3.9584897482513566  -3.6056804407730483  0 0 0
238       21   2    0.0285689090909091   12.1034711628108944  3.1327524713427932  -4.2574231147894110  0 0 0
239       21   2    0.0285689090909091   11.5850798127067609  4.4266788365044238  -3.1086308078092397  0 0 0
240       21   2    0.0285689090909091   13.1266473658623077  3.5383880202603279  -2.8220202320545091  0 0 0
241       21   3   -0.0909210909090909   11.8948445495691839  5.8361668371694080  -5.9024886665196608  0 0 0
242       21   1    0.0122429090909091   13.5421191472938620  5.8239580879505475  -3.7566564107425489  0 0 0
243       22   5   -0.0898570909090909  -21.4287192681689653 -31.3119369452653515  14.3349614230559954 0 0 0
244       22   4    0.0869789090909091  -22.1378426859406225 -30.5254761029156825  13.2349365492833666 0 0 0
245       22   2    0.0285689090909091  -20.6668398212323829 -30.6697793860836221  14.8250271095934156 0 0 0
246       22   2    0.0285689090909091  -20.9241412430119027 -32.2060740694196426  13.9105414417430744 0 0 0
247       22   2    0.0285689090909091  -22.1593252631817812 -31.6402971281322429  15.1046833924442687 0 0 0
248       22   5   -0.0898570909090909  -23.2045229372359145 -31.3770017894976760  12.5504356131352388 0 0 0
249       22   2    0.0285689090909091  -22.7449946736121298 -32.2727852585139772  12.0807208613251440 0 0 0
250       22   2    0.0285689090909091  -23.7134173525570482 -30.7814003301117971  11.7635027894251056 0 0 0
251       22   2    0.0285689090909091  -23.9658153512100007 -31.7064947322757078  13.2893246383514541 0 0 0
252       22   3   -0.0909210909090909  -20.7066737044115214 -29.8609575799135953  11.7865273164364925 0 0 0
253       22   1    0.0122429090909091  -22.6214868869442505 -29.6310875403798661  13.6836063777103316 0 0 0
254       23   5   -0.0898570909090909   22.4380032712302224  3.2019773123838786   13.0286180861121199 0 0 0
255       23   4    0.0869789090909091   22.4301066989333577  4.4879232917921410   13.8518507283765526 0 0 0
256       23   2    0.0285689090909091   23.0593033189339458  2.4342655673214204   13.5361571750663856 0 0 0
257       23   2    0.0285689090909091   22.8567675788504161  3.3901587134563043   12.0169675952044308 0 0 0
258       23   2    0.0285689090909091   21.4053611940617117  2.8058639436119446   12.9245893432510037 0 0 0
259       23   5   -0.0898570909090909   21.5702383805301316  5.5607723819488912   13.1877230375246928 0 0 0
260       23   2    0.0285689090909091   21.9669992082221590  5.8088148332152016   12.1801110167156299 0 0 0
261       23   2    0.0285689090909091   21.5705557721190111  6.4810105222734098   13.8091243231322149 0 0 0
262       23   2    0.0285689090909091   20.5225974837541045  5.2054159679552292   13.0864358175219895 0 0 0
263       23   3   -0.0909210909090909   24.4336890185522151  5.2095389248004498   14.0813013627376975 0 0 0
264       23   1    0.0122429090909091   22.0201572623193016  4.2690143787424297   14.8613890268611701 0 0 0
265       24   5   -0.0898570909090909  -13.5915829619967550  30.1497120336360531 -21.3568815103457545 0 0 0
266       24   4    0.0869789090909091  -12.8273629181345363  31.3002226176926719 -22.0078227685503052 0 0 0
267       24   2    0.0285689090909091  -12.9770880266461077  29.6994213376293992 -20.5490292570727533 0 0 0
268       24   2    0.0285689090909091  -13.8271412003858547  29.3651618911744805 -22.1073519568594818 0 0 0
269       24   2    0.0285689090909091  -14.5394556175776923  30.5208947307735698 -20.9120913643806361 0 0 0
270       24   5   -0.0898570909090909  -13.6528003481874833  31.9521044203748659 -23.1146865584537338 0 0 0
271       24   2    0.0285689090909091  -13.8898973978752167  31.2132841788119890 -23.9097688411052403 0 0 0