
                                 *****************
                                 * O   R   C   A *
                                 *****************

           --- An Ab Initio, DFT and Semiempirical electronic structure package ---

                  #######################################################
                  #                        -***-                        #
                  #          Department of theory and spectroscopy      #
                  #               Directorship: Frank Neese             #
                  #        Max Planck Institute fuer Kohlenforschung    #
                  #                Kaiser Wilhelm Platz 1               #
                  #                 D-45470 Muelheim/Ruhr               #
                  #                      Germany                        #
                  #                                                     #
                  #                  All rights reserved                #
                  #                        -***-                        #
                  #######################################################


                         Program Version 4.1.2  - RELEASE  -


 With contributions from (in alphabetic order):
   Daniel Aravena         : Magnetic Properties
   Michael Atanasov       : Ab Initio Ligand Field Theory
   Alexander A. Auer      : GIAO ZORA
   Ute Becker             : Parallelization
   Giovanni Bistoni       : ED, Open-shell LED
   Martin Brehm           : Molecular dynamics
   Dmytro Bykov           : SCF Hessian
   Vijay G. Chilkuri      : MRCI spin determinant printing
   Dipayan Datta          : RHF DLPNO-CCSD density
   Achintya Kumar Dutta   : EOM-CC, STEOM-CC
   Dmitry Ganyushin       : Spin-Orbit,Spin-Spin,Magnetic field MRCI
   Miquel Garcia          : C-PCM Hessian
   Yang Guo               : DLPNO-NEVPT2, CIM, IAO-localization
   Andreas Hansen         : Spin unrestricted coupled pair/coupled cluster methods
   Benjamin Helmich-Paris : CASSCF linear response (MC-RPA)
   Lee Huntington         : MR-EOM, pCC
   Robert Izsak           : Overlap fitted RIJCOSX, COSX-SCS-MP3, EOM
   Christian Kollmar      : KDIIS, OOCD, Brueckner-CCSD(T), CCSD density
   Simone Kossmann        : Meta GGA functionals, TD-DFT gradient, OOMP2, MP2 Hessian
   Martin Krupicka        : AUTO-CI
   Lucas Lang             : DCDCAS
   Dagmar Lenk            : GEPOL surface, SMD
   Dimitrios Liakos       : Extrapolation schemes; parallel MDCI
   Dimitrios Manganas     : ROCIS; embedding schemes
   Dimitrios Pantazis     : SARC Basis sets
   Taras Petrenko         : DFT Hessian,TD-DFT gradient, ASA, ECA, R-Raman, ABS, FL, XAS/XES, NRVS
   Peter Pinski           : DLPNO-MP2, DLPNO-MP2 Gradient
   Christoph Reimann      : Effective Core Potentials
   Marius Retegan         : Local ZFS, SOC
   Christoph Riplinger    : Optimizer, TS searches, QM/MM, DLPNO-CCSD(T), (RO)-DLPNO pert. Triples
   Tobias Risthaus        : Range-separated hybrids, TD-DFT gradient, RPA, STAB
   Michael Roemelt        : Restricted open shell CIS
   Masaaki Saitow         : Open-shell DLPNO
   Barbara Sandhoefer     : DKH picture change effects
   Avijit Sen             : IP-ROCIS
   Kantharuban Sivalingam : CASSCF convergence, NEVPT2, FIC-MRCI
   Bernardo de Souza      : ESD, SOC TD-DFT
   Georgi Stoychev        : AutoAux, RI-MP2 NMR
   Willem Van den Heuvel  : Paramagnetic NMR
   Boris Wezisla          : Elementary symmetry handling
   Frank Wennmohs         : Technical directorship


 We gratefully acknowledge several colleagues who have allowed us to
 interface, adapt or use parts of their codes:
   Stefan Grimme, W. Hujo, H. Kruse,             : VdW corrections, initial TS optimization,
                  C. Bannwarth                     DFT functionals, gCP, sTDA/sTD-DF
   Ed Valeev                                     : LibInt (2-el integral package), F12 methods
   Garnet Chan, S. Sharma, J. Yang, R. Olivares  : DMRG
   Ulf Ekstrom                                   : XCFun DFT Library
   Mihaly Kallay                                 : mrcc  (arbitrary order and MRCC methods)
   Andreas Klamt, Michael Diedenhofen            : otool_cosmo (COSMO solvation model)
   Jiri Pittner, Ondrej Demel                    : Mk-CCSD
   Frank Weinhold                                : gennbo (NPA and NBO analysis)
   Christopher J. Cramer and Donald G. Truhlar   : smd solvation model
   Lars Goerigk                                  : TD-DFT with DH, B97 family of functionals
   V. Asgeirsson, H. Jonsson                     : NEB implementation
   FAccTs GmbH                                   : IRC, NEB, NEB-TS, Multilevel


 Your calculation uses the libint2 library for the computation of 2-el integrals
 For citations please refer to: http://libint.valeyev.net

 This ORCA versions uses:
   CBLAS   interface :  Fast vector & matrix operations
   LAPACKE interface :  Fast linear algebra routines
   SCALAPACK package :  Parallel linear algebra routines


Your calculation utilizes the atom-pairwise dispersion correction
with the zero-damping scheme (D30)
Cite in your paper:
S.Grimme, J.Antony, S.Ehrlich and H.Krieg, J.Chem.Phys., 132, (2010), 154104 
   

XCFun DFT library Copyright 2009-2010 Ulf Ekstrom and contributors.
See http://admol.org/xcfun for more information. This is free soft-
ware; see the source code for copying conditions. There is ABSOLUTELY
NO WARRANTY; not even for MERCHANTABILITY or FITNESS FOR A PARTICULAR
PURPOSE. For details see the documentation. Scientific users of this 
library should cite U. Ekstrom, L. Visscher, R. Bast, A. J. Thorvald-
sen and K. Ruud; J.Chem.Theor.Comp. 2010, DOI: 10.1021/ct100117s
XCFun Version 0.99 
----- Orbital basis set information -----
Your calculation utilizes the basis: def2-TZVP
   F. Weigend and R. Ahlrichs, Phys. Chem. Chem. Phys. 7, 3297 (2005).

================================================================================
                                        WARNINGS
                       Please study these warnings very carefully!
================================================================================


INFO   : the flag for use of LIBINT has been found!

================================================================================
                                       INPUT FILE
================================================================================
NAME = 177.in
|  1> #Run DFT-D3 single point of the dimer
|  2> ! wB97X-D3 def2-TZVP TIGHTSCF  CHELPG PAL8
|  3> 
|  4> %base "177_charges"
|  5> 
|  6> %scf
|  7> MaxIter 1000
|  8> end
|  9> %output
| 10>   Print[ P_Mayer ] 1
| 11>   Print[ P_NatPop ] 1
| 12>   Print[ P_Hirshfeld ] 1
| 13>   Print[ P_Mulliken ] 1
| 14>   Print [ P_Loewdin ] 1
| 15> end
| 16> 
| 17> * xyz 0 1
| 18>   C                      10.622989            0.791532             -4.330609           
| 19>   O                      10.753048            0.025070             -5.518985           
| 20>   H                      11.463735            -0.628013            -5.480460           
| 21>   H                      11.551716            1.299128             -4.014126           
| 22>   H                      9.909588             1.621738             -4.459162           
| 23>   H                      10.250004            0.115130             -3.508875           
| 24> *
| 25> 
| 26>                          ****END OF INPUT****
================================================================================

                       ****************************
                       * Single Point Calculation *
                       ****************************

---------------------------------
CARTESIAN COORDINATES (ANGSTROEM)
---------------------------------
  C     10.622989    0.791532   -4.330609
  O     10.753048    0.025070   -5.518985
  H     11.463735   -0.628013   -5.480460
  H     11.551716    1.299128   -4.014126
  H      9.909588    1.621738   -4.459162
  H     10.250004    0.115130   -3.508875

----------------------------
CARTESIAN COORDINATES (A.U.)
----------------------------
  NO LB      ZA    FRAG     MASS         X           Y           Z
   0 C     6.0000    0    12.011   20.074540    1.495779   -8.183665
   1 O     8.0000    0    15.999   20.320316    0.047375  -10.429370
   2 H     1.0000    0     1.008   21.663320   -1.186773  -10.356568
   3 H     1.0000    0     1.008   21.829580    2.454996   -7.585599
   4 H     1.0000    0     1.008   18.726407    3.064641   -8.426595
   5 H     1.0000    0     1.008   19.369700    0.217564   -6.630813

--------------------------------
INTERNAL COORDINATES (ANGSTROEM)
--------------------------------
 C      0   0   0     0.000000000000     0.00000000     0.00000000
 O      1   0   0     1.420076356504     0.00000000     0.00000000
 H      2   1   0     0.965959415547   113.51065164     0.00000000
 H      1   2   3     1.104694088440   114.25197727    54.69704380
 H      1   2   3     1.102138313936   111.60696779   171.53729135
 H      1   2   3     1.127778454567   108.44075096   291.40111520

---------------------------
INTERNAL COORDINATES (A.U.)
---------------------------
 C      0   0   0     0.000000000000     0.00000000     0.00000000
 O      1   0   0     2.683555403049     0.00000000     0.00000000
 H      2   1   0     1.825398751866   113.51065164     0.00000000
 H      1   2   3     2.087569288913   114.25197727    54.69704380
 H      1   2   3     2.082739575041   111.60696779   171.53729135
 H      1   2   3     2.131192418868   108.44075096   291.40111520

---------------------
BASIS SET INFORMATION
---------------------
There are 3 groups of distinct atoms

 Group   1 Type C   : 11s6p2d1f contracted to 5s3p2d1f pattern {62111/411/11/1}
 Group   2 Type O   : 11s6p2d1f contracted to 5s3p2d1f pattern {62111/411/11/1}
 Group   3 Type H   : 5s1p contracted to 3s1p pattern {311/1}

Atom   0C    basis set group =>   1
Atom   1O    basis set group =>   2
Atom   2H    basis set group =>   3
Atom   3H    basis set group =>   3
Atom   4H    basis set group =>   3
Atom   5H    basis set group =>   3


           ************************************************************
           *        Program running with 8 parallel MPI-processes     *
           *              working on a common directory               *
           ************************************************************
------------------------------------------------------------------------------
                           ORCA GTO INTEGRAL CALCULATION
------------------------------------------------------------------------------

                         BASIS SET STATISTICS AND STARTUP INFO

 # of primitive gaussian shells          ...   64
 # of primitive gaussian functions       ...  124
 # of contracted shells                  ...   38
 # of contracted basis functions         ...   86
 Highest angular momentum                ...    3
 Maximum contraction depth               ...    6
 Integral package used                   ... LIBINT
 Integral threshhold            Thresh   ...  2.500e-11
 Primitive cut-off              TCut     ...  2.500e-12


------------------------------ INTEGRAL EVALUATION ----------------------------


 * One electron integrals 
 Pre-screening matrix                    ... done
 Shell pair data                         ... done (   0.000 sec)



           ************************************************************
           *        Program running with 8 parallel MPI-processes     *
           *              working on a common directory               *
           ************************************************************
-------------------------------------------------------------------------------
                                 ORCA SCF
-------------------------------------------------------------------------------

------------
SCF SETTINGS
------------
Hamiltonian:
 Density Functional     Method          .... DFT(GTOs)
 Exchange Functional    Exchange        .... WB97X-D3
 Correlation Functional Correlation     .... WB97X-D3
 Gradients option       PostSCFGGA      .... off
 Hybrid DFT is turned on
   Fraction HF Exchange ScalHFX         ....  0.195728
   Scaling of DF-GGA-X  ScalDFX         ....  0.000000
   Scaling of DF-GGA-C  ScalDFC         ....  1.000000
   Scaling of DF-LDA-C  ScalLDAC        ....  1.000000
   Perturbative correction              ....  0.000000
   Density functional embedding theory  .... OFF
 Long-range corrected/Screened/Range-Separated Hybrid DFT is turned on
   Amount of maximum screened exact exchange              ....  0.804272
   Range separation parameter mu (erf(mu*r12)/r12)        ....  0.250000


General Settings:
 Integral files         IntName         .... 177_charges
 Hartree-Fock type      HFTyp           .... RHF
 Total Charge           Charge          ....    0
 Multiplicity           Mult            ....    1
 Number of Electrons    NEL             ....   18
 Basis Dimension        Dim             ....   86
 Nuclear Repulsion      ENuc            ....     39.9752063254 Eh

Convergence Acceleration:
 DIIS                   CNVDIIS         .... on
   Start iteration      DIISMaxIt       ....    12
   Startup error        DIISStart       ....  0.200000
   # of expansion vecs  DIISMaxEq       ....     5
   Bias factor          DIISBfac        ....   1.050
   Max. coefficient     DIISMaxC        ....  10.000
 Newton-Raphson         CNVNR           .... off
 SOSCF                  CNVSOSCF        .... on
   Start iteration      SOSCFMaxIt      ....   150
   Startup grad/error   SOSCFStart      ....  0.003300
 Level Shifting         CNVShift        .... on
   Level shift para.    LevelShift      ....    0.2500
   Turn off err/grad.   ShiftErr        ....    0.0010
 Zerner damping         CNVZerner       .... off
 Static damping         CNVDamp         .... on
   Fraction old density DampFac         ....    0.7000
   Max. Damping (<1)    DampMax         ....    0.9800
   Min. Damping (>=0)   DampMin         ....    0.0000
   Turn off err/grad.   DampErr         ....    0.1000
 Fernandez-Rico         CNVRico         .... off

SCF Procedure:
 Maximum # iterations   MaxIter         ....  1000
 SCF integral mode      SCFMode         .... Direct
   Integral package                     .... LIBINT
 Reset frequency        DirectResetFreq ....    20
 Integral Threshold     Thresh          ....  2.500e-11 Eh
 Primitive CutOff       TCut            ....  2.500e-12 Eh

Convergence Tolerance:
 Convergence Check Mode ConvCheckMode   .... Total+1el-Energy
 Convergence forced     ConvForced      .... 0
 Energy Change          TolE            ....  1.000e-08 Eh
 1-El. energy change                    ....  1.000e-05 Eh
 Orbital Gradient       TolG            ....  1.000e-05
 Orbital Rotation angle TolX            ....  1.000e-05
 DIIS Error             TolErr          ....  5.000e-07


Diagonalization of the overlap matrix:
Smallest eigenvalue                        ... 1.785e-03
Time for diagonalization                   ...    0.138 sec
Threshold for overlap eigenvalues          ... 1.000e-08
Number of eigenvalues below threshold      ... 0
Time for construction of square roots      ...    0.093 sec
Total time needed                          ...    0.231 sec

-------------------
DFT GRID GENERATION
-------------------

General Integration Accuracy     IntAcc      ...  4.340
Radial Grid Type                 RadialGrid  ... Gauss-Chebyshev
Angular Grid (max. acc.)         AngularGrid ... Lebedev-110
Angular grid pruning method      GridPruning ... 3 (G Style)
Weight generation scheme         WeightScheme... Becke
Basis function cutoff            BFCut       ...    1.0000e-11
Integration weight cutoff        WCut        ...    1.0000e-14
Grids for H and He will be reduced by one unit

# of grid points (after initial pruning)     ...   6548 (   0.0 sec)
# of grid points (after weights+screening)   ...   6383 (   1.0 sec)
nearest neighbour list constructed           ...    0.0 sec
Grid point re-assignment to atoms done       ...    0.0 sec
Grid point division into batches done        ...    0.0 sec
Reduced shell lists constructed in    0.0 sec

Total number of grid points                  ...     6383
Total number of batches                      ...      102
Average number of points per batch           ...       62
Average number of grid points per atom       ...     1064
Average number of shells per batch           ...    31.79 (83.65%)
Average number of basis functions per batch  ...    73.07 (84.97%)
Average number of large shells per batch     ...    30.21 (95.06%)
Average number of large basis fcns per batch ...    69.21 (94.72%)
Maximum spatial batch extension              ...  19.27, 15.30, 14.58 au
Average spatial batch extension              ...   0.53,  0.44,  0.43 au

Time for grid setup =    3.455 sec

------------------------------
INITIAL GUESS: MODEL POTENTIAL
------------------------------
Loading Hartree-Fock densities                     ... done
Calculating cut-offs                               ... done
Setting up the integral package                    ... done
Initializing the effective Hamiltonian             ... done
Starting the Coulomb interaction                   ... done (   0.0 sec)
Reading the grid                                   ... done
Mapping shells                                     ... done
Starting the XC term evaluation                    ... done (   0.1 sec)
  promolecular density results
     # of electrons  =     17.998738399
     EX              =    -14.416155175
     EC              =     -0.573132017
     EX+EC           =    -14.989287192
Transforming the Hamiltonian                       ... done (   0.0 sec)
Diagonalizing the Hamiltonian                      ... done (   0.1 sec)
Back transforming the eigenvectors                 ... done (   0.0 sec)
Now organizing SCF variables                       ... done
                      ------------------
                      INITIAL GUESS DONE (   4.2 sec)
                      ------------------
--------------
SCF ITERATIONS
--------------
ITER       Energy         Delta-E        Max-DP      RMS-DP      [F,P]     Damp
               ***  Starting incremental Fock matrix formation  ***
  0   -115.6489528218   0.000000000000 0.03721083  0.00146831  0.2537030 0.7000
  1   -115.6855500345  -0.036597212629 0.02203010  0.00103429  0.1260089 0.7000
                               ***Turning on DIIS***
  2   -115.7021840196  -0.016633985130 0.03102662  0.00185271  0.0480919 0.0000
  3   -115.7291757358  -0.026991716198 0.01732423  0.00067951  0.0618396 0.0000
  4   -115.7336919083  -0.004516172518 0.00399234  0.00013119  0.0059908 0.0000
                      *** Initiating the SOSCF procedure ***
                           *** Shutting down DIIS ***
                      *** Re-Reading the Fockian *** 
                      *** Removing any level shift *** 
ITER      Energy       Delta-E        Grad      Rot      Max-DP    RMS-DP
  5   -115.73378113  -0.0000892227  0.000421  0.000421  0.000658  0.000044
               *** Restarting incremental Fock matrix formation ***
  6   -115.73378905  -0.0000079236  0.000155  0.000171  0.000410  0.000026
  7   -115.73378979  -0.0000007402  0.000043  0.000091  0.000195  0.000012
  8   -115.73378985  -0.0000000567  0.000023  0.000019  0.000037  0.000001
  9   -115.73378986  -0.0000000095  0.000011  0.000009  0.000019  0.000001
                  ***Gradient check signals convergence***
              ***Rediagonalizing the Fockian in SOSCF/NRSCF***

               *****************************************************
               *                     SUCCESS                       *
               *           SCF CONVERGED AFTER  10 CYCLES          *
               *****************************************************

Setting up the final grid:

General Integration Accuracy     IntAcc      ...  4.670
Radial Grid Type                 RadialGrid  ... Gauss-Chebyshev
Angular Grid (max. acc.)         AngularGrid ... Lebedev-302
Angular grid pruning method      GridPruning ... 3 (G Style)
Weight generation scheme         WeightScheme... Becke
Basis function cutoff            BFCut       ...    1.0000e-11
Integration weight cutoff        WCut        ...    1.0000e-14
Grids for H and He will be reduced by one unit

# of grid points (after initial pruning)     ...  26000 (   0.0 sec)
# of grid points (after weights+screening)   ...  25245 (   0.4 sec)
nearest neighbour list constructed           ...    0.0 sec
Grid point re-assignment to atoms done       ...    0.0 sec
Grid point division into batches done        ...    0.1 sec
Reduced shell lists constructed in    0.1 sec

Total number of grid points                  ...    25245
Total number of batches                      ...      397
Average number of points per batch           ...       63
Average number of grid points per atom       ...     4208
Average number of shells per batch           ...    31.51 (82.92%)
Average number of basis functions per batch  ...    72.14 (83.88%)
Average number of large shells per batch     ...    29.90 (94.90%)
Average number of large basis fcns per batch ...    68.92 (95.54%)
Maximum spatial batch extension              ...  14.73, 15.46, 14.76 au
Average spatial batch extension              ...   0.30,  0.30,  0.28 au

Final grid set up in    1.1 sec
Final integration                            ... done (   0.2 sec)
Change in XC energy                          ...    -0.000284890
Integrated number of electrons               ...    17.999979851
Previous integrated no of electrons          ...    17.999398653

----------------
TOTAL SCF ENERGY
----------------

Total Energy       :         -115.73407475 Eh           -3149.28428 eV

Components:
Nuclear Repulsion  :           39.97520633 Eh            1087.78067 eV
Electronic Energy  :         -155.70928108 Eh           -4237.06495 eV
One Electron Energy:         -236.41831140 Eh           -6433.26931 eV
Two Electron Energy:           80.70903032 Eh            2196.20437 eV

Virial components:
Potential Energy   :         -230.86964180 Eh           -6282.28234 eV
Kinetic Energy     :          115.13556705 Eh            3132.99806 eV
Virial Ratio       :            2.00519829


DFT components:
N(Alpha)           :        8.999989925575 electrons
N(Beta)            :        8.999989925575 electrons
N(Total)           :       17.999979851150 electrons
E(XC)              :      -10.632473082341 Eh       
DFET-embed. en.    :        0.000000000000 Eh       

---------------
SCF CONVERGENCE
---------------

  Last Energy change         ...   -1.9123e-09  Tolerance :   1.0000e-08
  Last MAX-Density change    ...    3.8617e-06  Tolerance :   1.0000e-07
  Last RMS-Density change    ...    2.0729e-07  Tolerance :   5.0000e-09
  Last Orbital Gradient      ...    2.1068e-06  Tolerance :   1.0000e-05
  Last Orbital Rotation      ...    2.4658e-06  Tolerance :   1.0000e-05

             **** THE GBW FILE WAS UPDATED (177_charges.gbw) ****
             **** DENSITY FILE WAS UPDATED (177_charges.scfp.tmp) ****
             **** ENERGY FILE WAS UPDATED (177_charges.en.tmp) ****
----------------
ORBITAL ENERGIES
----------------

  NO   OCC          E(Eh)            E(eV) 
   0   2.0000     -19.228839      -523.2433 
   1   2.0000     -10.319891      -280.8185 
   2   2.0000      -1.129488       -30.7349 
   3   2.0000      -0.794078       -21.6080 
   4   2.0000      -0.607573       -16.5329 
   5   2.0000      -0.540491       -14.7075 
   6   2.0000      -0.524834       -14.2814 
   7   2.0000      -0.424400       -11.5485 
   8   2.0000      -0.372631       -10.1398 
   9   0.0000       0.116180         3.1614 
  10   0.0000       0.150866         4.1053 
  11   0.0000       0.200206         5.4479 
  12   0.0000       0.204081         5.5533 
  13   0.0000       0.222819         6.0632 
  14   0.0000       0.307615         8.3706 
  15   0.0000       0.314412         8.5556 
  16   0.0000       0.401116        10.9149 
  17   0.0000       0.448907        12.2154 
  18   0.0000       0.469490        12.7755 
  19   0.0000       0.529851        14.4180 
  20   0.0000       0.549512        14.9530 
  21   0.0000       0.565180        15.3793 
  22   0.0000       0.593917        16.1613 
  23   0.0000       0.600564        16.3422 
  24   0.0000       0.669031        18.2053 
  25   0.0000       0.777727        21.1630 
  26   0.0000       0.832414        22.6511 
  27   0.0000       0.876805        23.8591 
  28   0.0000       0.988610        26.9014 
  29   0.0000       1.008384        27.4395 
  30   0.0000       1.107156        30.1272 
  31   0.0000       1.386898        37.7394 
  32   0.0000       1.521002        41.3886 
  33   0.0000       1.549722        42.1701 
  34   0.0000       1.599153        43.5152 
  35   0.0000       1.601737        43.5855 
  36   0.0000       1.625813        44.2406 
  37   0.0000       1.668911        45.4134 
  38   0.0000       1.685119        45.8544 
  39   0.0000       1.763263        47.9808 
  40   0.0000       1.948398        53.0186 
  41   0.0000       2.000876        54.4466 
  42   0.0000       2.047728        55.7215 
  43   0.0000       2.075839        56.4864 
  44   0.0000       2.120555        57.7032 
  45   0.0000       2.268543        61.7302 
  46   0.0000       2.331537        63.4443 
  47   0.0000       2.342165        63.7336 
  48   0.0000       2.385730        64.9190 
  49   0.0000       2.398385        65.2634 
  50   0.0000       2.497644        67.9644 
  51   0.0000       2.563648        69.7604 
  52   0.0000       2.641724        71.8850 
  53   0.0000       2.685254        73.0695 
  54   0.0000       2.830161        77.0126 
  55   0.0000       2.857866        77.7665 
  56   0.0000       2.902829        78.9900 
  57   0.0000       2.982694        81.1632 
  58   0.0000       3.082146        83.8695 
  59   0.0000       3.152744        85.7905 
  60   0.0000       3.254377        88.5561 
  61   0.0000       3.371711        91.7489 
  62   0.0000       3.448612        93.8415 
  63   0.0000       3.510891        95.5362 
  64   0.0000       3.588294        97.6424 
  65   0.0000       3.633767        98.8798 
  66   0.0000       3.673388        99.9580 
  67   0.0000       3.977095       108.2223 
  68   0.0000       4.155614       113.0800 
  69   0.0000       4.277565       116.3985 
  70   0.0000       4.399898       119.7273 
  71   0.0000       4.581753       124.6758 
  72   0.0000       5.328844       145.0052 
  73   0.0000       5.388627       146.6320 
  74   0.0000       5.557789       151.2351 
  75   0.0000       5.812771       158.1736 
  76   0.0000       5.851807       159.2358 
  77   0.0000       5.945871       161.7954 
  78   0.0000       6.360800       173.0862 
  79   0.0000       6.519564       177.4064 
  80   0.0000       6.711853       182.6388 
  81   0.0000       6.806711       185.2200 
  82   0.0000       7.035870       191.4558 
  83   0.0000       7.205026       196.0587 
  84   0.0000      22.319174       607.3356 
  85   0.0000      43.663928      1188.1559 

                    ********************************
                    * MULLIKEN POPULATION ANALYSIS *
                    ********************************

-----------------------
MULLIKEN ATOMIC CHARGES
-----------------------
   0 C :   -0.156209
   1 O :   -0.487123
   2 H :    0.318578
   3 H :    0.100776
   4 H :    0.122010
   5 H :    0.101967
Sum of atomic charges:   -0.0000000

--------------------------------
MULLIKEN REDUCED ORBITAL CHARGES
--------------------------------
  0 C s       :     3.232359  s :     3.232359
      pz      :     0.789815  p :     2.821099
      px      :     1.071810
      py      :     0.959474
      dz2     :     0.029311  d :     0.095298
      dxz     :     0.020818
      dyz     :     0.017629
      dx2y2   :     0.009050
      dxy     :     0.018490
      f0      :     0.001866  f :     0.007453
      f+1     :     0.000826
      f-1     :     0.001640
      f+2     :     0.001015
      f-2     :     0.001454
      f+3     :     0.000282
      f-3     :     0.000369
  1 O s       :     3.786157  s :     3.786157
      pz      :     1.530658  p :     4.670595
      px      :     1.616099
      py      :     1.523838
      dz2     :     0.009564  d :     0.028672
      dxz     :     0.003733
      dyz     :     0.005988
      dx2y2   :     0.001731
      dxy     :     0.007656
      f0      :     0.000149  f :     0.001698
      f+1     :     0.000151
      f-1     :     0.000412
      f+2     :     0.000157
      f-2     :     0.000202
      f+3     :     0.000271
      f-3     :     0.000355
  2 H s       :     0.634338  s :     0.634338
      pz      :     0.011934  p :     0.047083
      px      :     0.017623
      py      :     0.017527
  3 H s       :     0.880003  s :     0.880003
      pz      :     0.003660  p :     0.019221
      px      :     0.009744
      py      :     0.005817
  4 H s       :     0.858027  s :     0.858027
      pz      :     0.002777  p :     0.019962
      px      :     0.008116
      py      :     0.009069
  5 H s       :     0.879602  s :     0.879602
      pz      :     0.007631  p :     0.018432
      px      :     0.004737
      py      :     0.006064


                     *******************************
                     * LOEWDIN POPULATION ANALYSIS *
                     *******************************

----------------------
LOEWDIN ATOMIC CHARGES
----------------------
   0 C :   -0.386857
   1 O :   -0.088528
   2 H :    0.169983
   3 H :    0.094683
   4 H :    0.109824
   5 H :    0.100894

-------------------------------
LOEWDIN REDUCED ORBITAL CHARGES
-------------------------------
  0 C s       :     2.875505  s :     2.875505
      pz      :     0.914436  p :     3.050756
      px      :     1.110401
      py      :     1.025919
      dz2     :     0.117342  d :     0.405784
      dxz     :     0.075078
      dyz     :     0.106238
      dx2y2   :     0.026308
      dxy     :     0.080817
      f0      :     0.011645  f :     0.054811
      f+1     :     0.007553
      f-1     :     0.012012
      f+2     :     0.010259
      f-2     :     0.007304
      f+3     :     0.002320
      f-3     :     0.003719
  1 O s       :     3.366754  s :     3.366754
      pz      :     1.564962  p :     4.648934
      px      :     1.581124
      py      :     1.502848
      dz2     :     0.022627  d :     0.068556
      dxz     :     0.009439
      dyz     :     0.014546
      dx2y2   :     0.004219
      dxy     :     0.017724
      f0      :     0.000766  f :     0.004283
      f+1     :     0.000664
      f-1     :     0.000869
      f+2     :     0.000486
      f-2     :     0.000556
      f+3     :     0.000365
      f-3     :     0.000577
  2 H s       :     0.673428  s :     0.673428
      pz      :     0.033659  p :     0.156589
      px      :     0.066136
      py      :     0.056795
  3 H s       :     0.846189  s :     0.846189
      pz      :     0.011651  p :     0.059127
      px      :     0.029887
      py      :     0.017589
  4 H s       :     0.831459  s :     0.831459
      pz      :     0.009050  p :     0.058717
      px      :     0.023803
      py      :     0.025864
  5 H s       :     0.844076  s :     0.844076
      pz      :     0.022023  p :     0.055030
      px      :     0.014429
      py      :     0.018579


                      *****************************
                      * MAYER POPULATION ANALYSIS *
                      *****************************

  NA   - Mulliken gross atomic population
  ZA   - Total nuclear charge
  QA   - Mulliken gross atomic charge
  VA   - Mayer's total valence
  BVA  - Mayer's bonded valence
  FA   - Mayer's free valence

  ATOM       NA         ZA         QA         VA         BVA        FA
  0 C      6.1562     6.0000    -0.1562     3.9296     3.9296     0.0000
  1 O      8.4871     8.0000    -0.4871     1.8786     1.8786    -0.0000
  2 H      0.6814     1.0000     0.3186     0.9103     0.9103    -0.0000
  3 H      0.8992     1.0000     0.1008     0.9571     0.9571     0.0000
  4 H      0.8780     1.0000     0.1220     0.9553     0.9553    -0.0000
  5 H      0.8980     1.0000     0.1020     0.9632     0.9632    -0.0000

  Mayer bond orders larger than 0.1
B(  0-C ,  1-O ) :   0.9959 B(  0-C ,  3-H ) :   0.9714 B(  0-C ,  4-H ) :   0.9698 
B(  0-C ,  5-H ) :   0.9792 B(  1-O ,  2-H ) :   0.8926 


------------------
HIRSHFELD ANALYSIS
------------------

Total integrated alpha density =      8.999699327
Total integrated beta density  =      8.999699327

  ATOM     CHARGE      SPIN    
   0 C    0.009408    0.000000
   1 O   -0.257456    0.000000
   2 H    0.163094    0.000000
   3 H    0.023960    0.000000
   4 H    0.039341    0.000000
   5 H    0.022255    0.000000

  TOTAL   0.000601    0.000000

-------
TIMINGS
-------

Total SCF time: 0 days 0 hours 0 min 29 sec 

Total time                  ....      29.096 sec
Sum of individual times     ....      25.472 sec  ( 87.5%)

Fock matrix formation       ....      16.372 sec  ( 56.3%)
  XC integration            ....       4.009 sec  ( 24.5% of F)
    Basis function eval.    ....       0.037 sec  (  0.9% of XC)
    Density eval.           ....       0.066 sec  (  1.6% of XC)
    XC-Functional eval.     ....       0.079 sec  (  2.0% of XC)
    XC-Potential eval.      ....       0.046 sec  (  1.2% of XC)
Diagonalization             ....       1.480 sec  (  5.1%)
Density matrix formation    ....       1.168 sec  (  4.0%)
Population analysis         ....       0.066 sec  (  0.2%)
Initial guess               ....       0.771 sec  (  2.7%)
Orbital Transformation      ....       0.000 sec  (  0.0%)
Orbital Orthonormalization  ....       0.000 sec  (  0.0%)
DIIS solution               ....       0.224 sec  (  0.8%)
SOSCF solution              ....       0.813 sec  (  2.8%)
Grid generation             ....       4.577 sec  ( 15.7%)


-------------------------------------------------------------------------------
                          DFT DISPERSION CORRECTION                            
                                                                               
                              DFTD3 V3.1  Rev 1                                
                              USING zero damping                               
-------------------------------------------------------------------------------
The omegaB97X-D3 functional is recognized. Fit by Chai et al.
Active option DFTDOPT                   ...         3   

molecular C6(AA) [au] = 208.837853 


            DFT-D V3
 parameters
 s6 scaling factor         :     1.0000 
 rs6 scaling factor        :     1.2810 
 s8 scaling factor         :     1.0000 
 rs8 scaling factor        :     1.0940 
 Damping factor alpha6     :    14.0000 
 Damping factor alpha8     :    16.0000 
 ad hoc parameters k1-k3   :    16.0000     1.3333    -4.0000 

 Edisp/kcal,au: -0.167551168010  -0.000267009754 
 E6   /kcal   :  -0.035549390 
 E8   /kcal   :  -0.132001778 
 % E8         :  78.782965070 

-------------------------   ----------------
Dispersion correction           -0.000267010
-------------------------   ----------------


-------------------------   --------------------
FINAL SINGLE POINT ENERGY      -115.734341762204
-------------------------   --------------------


                            ***************************************
                            *     ORCA property calculations      *
                            ***************************************

                                    ---------------------
                                    Active property flags
                                    ---------------------
   (+) Dipole Moment


------------------------------------------------------------------------------
                       ORCA ELECTRIC PROPERTIES CALCULATION
------------------------------------------------------------------------------

Dipole Moment Calculation                       ... on
Quadrupole Moment Calculation                   ... off
Polarizability Calculation                      ... off
GBWName                                         ... 177_charges.gbw
Electron density file                           ... 177_charges.scfp.tmp
The origin for moment calculation is the CENTER OF MASS  = (20.237868,  0.727501 -9.313310)

-------------
DIPOLE MOMENT
-------------
                                X             Y             Z
Electronic contribution:      0.09150      -0.89977      -1.60470
Nuclear contribution   :      0.31716       0.80908       2.10305
                        -----------------------------------------
Total Dipole Moment    :      0.40866      -0.09069       0.49835
                        -----------------------------------------
Magnitude (a.u.)       :      0.65083
Magnitude (Debye)      :      1.65428



--------------------
Rotational spectrum 
--------------------
 
Rotational constants in cm-1:     4.275000     0.808694     0.787959 
Rotational constants in MHz : 128161.264138 24244.042392 23622.416366 

 Dipole components along the rotational axes: 
x,y,z [a.u.] :     0.296932    -0.573583    -0.080095 
x,y,z [Debye]:     0.754742    -1.457933    -0.203586 

 
------------------------------------------------------------------------------
                      ORCA CHELPG CHARGES GENERATION
------------------------------------------------------------------------------

GBW file                           ... 177_charges.gbw

Reading the GBW file               ... done

Grid spacing                       ...     0.300000
Point Cut-Off                      ...     2.800000
Van-der-Waals Radii                ...        COSMO
Total charge                       ...            0


Number of points X direction       ...           24
Number of points Y direction       ...           26
Number of points Z direction       ...           25
Maximum number of possible points  ...        15600
Final number of points             ...         6059


CHELPG Charges            
--------------------------------
  0   C   :       0.115209
  1   O   :      -0.620491
  2   H   :       0.409266
  3   H   :       0.009337
  4   H   :       0.077601
  5   H   :       0.009078
--------------------------------
Total charge:    -0.000000
--------------------------------

CHELPG charges calculated...

Timings for individual parts in CHELPG calculation:
Grid generation                 ...        0.001 sec (=   0.000 min)
Potential calculation           ...        0.677 sec (=   0.011 min)
Fit to the potential            ...        0.001 sec (=   0.000 min)
------------------------------------------------------------------------------


Timings for individual modules:

Sum of individual times         ...       38.992 sec (=   0.650 min)
GTO integral calculation        ...        4.697 sec (=   0.078 min)  12.0 %
SCF iterations                  ...       33.558 sec (=   0.559 min)  86.1 %
CHELPG charge generation        ...        0.736 sec (=   0.012 min)   1.9 %
                             ****ORCA TERMINATED NORMALLY****
TOTAL RUN TIME: 0 days 0 hours 0 minutes 41 seconds 71 msec
