
                                 *****************
                                 * O   R   C   A *
                                 *****************

           --- An Ab Initio, DFT and Semiempirical electronic structure package ---

                  #######################################################
                  #                        -***-                        #
                  #          Department of theory and spectroscopy      #
                  #               Directorship: Frank Neese             #
                  #        Max Planck Institute fuer Kohlenforschung    #
                  #                Kaiser Wilhelm Platz 1               #
                  #                 D-45470 Muelheim/Ruhr               #
                  #                      Germany                        #
                  #                                                     #
                  #                  All rights reserved                #
                  #                        -***-                        #
                  #######################################################


                         Program Version 4.1.2  - RELEASE  -


 With contributions from (in alphabetic order):
   Daniel Aravena         : Magnetic Properties
   Michael Atanasov       : Ab Initio Ligand Field Theory
   Alexander A. Auer      : GIAO ZORA
   Ute Becker             : Parallelization
   Giovanni Bistoni       : ED, Open-shell LED
   Martin Brehm           : Molecular dynamics
   Dmytro Bykov           : SCF Hessian
   Vijay G. Chilkuri      : MRCI spin determinant printing
   Dipayan Datta          : RHF DLPNO-CCSD density
   Achintya Kumar Dutta   : EOM-CC, STEOM-CC
   Dmitry Ganyushin       : Spin-Orbit,Spin-Spin,Magnetic field MRCI
   Miquel Garcia          : C-PCM Hessian
   Yang Guo               : DLPNO-NEVPT2, CIM, IAO-localization
   Andreas Hansen         : Spin unrestricted coupled pair/coupled cluster methods
   Benjamin Helmich-Paris : CASSCF linear response (MC-RPA)
   Lee Huntington         : MR-EOM, pCC
   Robert Izsak           : Overlap fitted RIJCOSX, COSX-SCS-MP3, EOM
   Christian Kollmar      : KDIIS, OOCD, Brueckner-CCSD(T), CCSD density
   Simone Kossmann        : Meta GGA functionals, TD-DFT gradient, OOMP2, MP2 Hessian
   Martin Krupicka        : AUTO-CI
   Lucas Lang             : DCDCAS
   Dagmar Lenk            : GEPOL surface, SMD
   Dimitrios Liakos       : Extrapolation schemes; parallel MDCI
   Dimitrios Manganas     : ROCIS; embedding schemes
   Dimitrios Pantazis     : SARC Basis sets
   Taras Petrenko         : DFT Hessian,TD-DFT gradient, ASA, ECA, R-Raman, ABS, FL, XAS/XES, NRVS
   Peter Pinski           : DLPNO-MP2, DLPNO-MP2 Gradient
   Christoph Reimann      : Effective Core Potentials
   Marius Retegan         : Local ZFS, SOC
   Christoph Riplinger    : Optimizer, TS searches, QM/MM, DLPNO-CCSD(T), (RO)-DLPNO pert. Triples
   Tobias Risthaus        : Range-separated hybrids, TD-DFT gradient, RPA, STAB
   Michael Roemelt        : Restricted open shell CIS
   Masaaki Saitow         : Open-shell DLPNO
   Barbara Sandhoefer     : DKH picture change effects
   Avijit Sen             : IP-ROCIS
   Kantharuban Sivalingam : CASSCF convergence, NEVPT2, FIC-MRCI
   Bernardo de Souza      : ESD, SOC TD-DFT
   Georgi Stoychev        : AutoAux, RI-MP2 NMR
   Willem Van den Heuvel  : Paramagnetic NMR
   Boris Wezisla          : Elementary symmetry handling
   Frank Wennmohs         : Technical directorship


 We gratefully acknowledge several colleagues who have allowed us to
 interface, adapt or use parts of their codes:
   Stefan Grimme, W. Hujo, H. Kruse,             : VdW corrections, initial TS optimization,
                  C. Bannwarth                     DFT functionals, gCP, sTDA/sTD-DF
   Ed Valeev                                     : LibInt (2-el integral package), F12 methods
   Garnet Chan, S. Sharma, J. Yang, R. Olivares  : DMRG
   Ulf Ekstrom                                   : XCFun DFT Library
   Mihaly Kallay                                 : mrcc  (arbitrary order and MRCC methods)
   Andreas Klamt, Michael Diedenhofen            : otool_cosmo (COSMO solvation model)
   Jiri Pittner, Ondrej Demel                    : Mk-CCSD
   Frank Weinhold                                : gennbo (NPA and NBO analysis)
   Christopher J. Cramer and Donald G. Truhlar   : smd solvation model
   Lars Goerigk                                  : TD-DFT with DH, B97 family of functionals
   V. Asgeirsson, H. Jonsson                     : NEB implementation
   FAccTs GmbH                                   : IRC, NEB, NEB-TS, Multilevel


 Your calculation uses the libint2 library for the computation of 2-el integrals
 For citations please refer to: http://libint.valeyev.net

 This ORCA versions uses:
   CBLAS   interface :  Fast vector & matrix operations
   LAPACKE interface :  Fast linear algebra routines
   SCALAPACK package :  Parallel linear algebra routines


Your calculation utilizes the atom-pairwise dispersion correction
with the zero-damping scheme (D30)
Cite in your paper:
S.Grimme, J.Antony, S.Ehrlich and H.Krieg, J.Chem.Phys., 132, (2010), 154104 
   

XCFun DFT library Copyright 2009-2010 Ulf Ekstrom and contributors.
See http://admol.org/xcfun for more information. This is free soft-
ware; see the source code for copying conditions. There is ABSOLUTELY
NO WARRANTY; not even for MERCHANTABILITY or FITNESS FOR A PARTICULAR
PURPOSE. For details see the documentation. Scientific users of this 
library should cite U. Ekstrom, L. Visscher, R. Bast, A. J. Thorvald-
sen and K. Ruud; J.Chem.Theor.Comp. 2010, DOI: 10.1021/ct100117s
XCFun Version 0.99 
----- Orbital basis set information -----
Your calculation utilizes the basis: def2-TZVP
   F. Weigend and R. Ahlrichs, Phys. Chem. Chem. Phys. 7, 3297 (2005).

================================================================================
                                        WARNINGS
                       Please study these warnings very carefully!
================================================================================


WARNING: Geometry Optimization
  ===> : Switching off AutoStart
         For restart on a previous wavefunction, please use MOREAD

INFO   : the flag for use of LIBINT has been found!

================================================================================
                                       INPUT FILE
================================================================================
NAME = bonds_angles_[1[6[8][1][1]]]-[6[8[1]][1][1][1]]_6.in
|  1> #Run DFT geometry optimization
|  2> ! wB97X-D3 def2-TZVP TIGHTSCF Grid5 FinalGrid6 Opt CHELPG PAL4
|  3> 
|  4> %base "6_geo_opt"
|  5> %geom MaxIter 500
|  6> end
|  7> 
|  8> %geom
|  9>   Constraints
| 10>     { B 5 0 C }
| 11>   end
| 12> end
| 13> 
| 14> 
| 15> * xyz 0 1
| 16>   C                    3.011260             -1.180815            0.598523            
| 17>   O                    4.394625             -1.127968            0.874339            
| 18>   H                    4.772148             -0.378940            0.412525            
| 19>   H                    2.806386             -1.318883            -0.469318           
| 20>   H                    2.611584             -2.040183            1.135930            
| 21>   H                    2.484805             -0.284573            0.945627            
| 22> *
| 23> 
| 24>                          ****END OF INPUT****
================================================================================

                       *****************************
                       * Geometry Optimization Run *
                       *****************************

Geometry optimization settings:
Update method            Update   .... BFGS
Choice of coordinates    CoordSys .... Z-matrix Internals
Initial Hessian          InHess   .... Almoef's Model

Convergence Tolerances:
Energy Change            TolE     ....  5.0000e-06 Eh
Max. Gradient            TolMAXG  ....  3.0000e-04 Eh/bohr
RMS Gradient             TolRMSG  ....  1.0000e-04 Eh/bohr
Max. Displacement        TolMAXD  ....  4.0000e-03 bohr
RMS Displacement         TolRMSD  ....  2.0000e-03 bohr

------------------------------------------------------------------------------
                        ORCA OPTIMIZATION COORDINATE SETUP
------------------------------------------------------------------------------

The optimization will be done in new redundant internal coordinates
Making redundant internal coordinates   ...  (new redundants) done
Evaluating the initial hessian          ...  (Almloef) done
Evaluating the coordinates              ...  done
Calculating the B-matrix                .... done
Calculating the G-matrix                .... done
Diagonalizing the G-matrix              .... done
Imposing constraints:
 Iter   0:  RMS(Cart)=    0.0000000000 RMS(Int)=    0.0000000000
CONVERGED
The first mode is                       ....    3
The number of degrees of freedom        ....   12
Storing new coordinates                 .... done

    -----------------------------------------------------------------
                    Redundant Internal Coordinates


    -----------------------------------------------------------------
         Definition                    Initial Value    Approx d2E/dq
    -----------------------------------------------------------------
      1. B(O   1,C   0)                  1.4116         0.516942   
      2. B(H   2,O   1)                  0.9575         0.524721   
      3. B(H   3,C   0)                  1.0960         0.352188   
      4. B(H   4,C   0)                  1.0895         0.360731   
      5. B(H   5,C   0)                  1.0958         0.352445 C 
      6. A(O   1,C   0,H   4)          107.0169         0.340286   
      7. A(O   1,C   0,H   3)          112.2263         0.338927   
      8. A(O   1,C   0,H   5)          112.2282         0.338968   
      9. A(H   3,C   0,H   5)          108.7729         0.288853   
     10. A(H   4,C   0,H   5)          108.2172         0.289940   
     11. A(H   3,C   0,H   4)          108.2177         0.289907   
     12. A(C   0,O   1,H   2)          108.7499         0.359342   
     13. D(H   2,O   1,C   0,H   5)    -61.4304         0.021176   
     14. D(H   2,O   1,C   0,H   3)     61.4271         0.021176   
     15. D(H   2,O   1,C   0,H   4)    179.9981         0.021176   
    -----------------------------------------------------------------

Number of atoms                         .... 6
Number of degrees of freedom            .... 15

         *************************************************************
         *                GEOMETRY OPTIMIZATION CYCLE   1            *
         *************************************************************
---------------------------------
CARTESIAN COORDINATES (ANGSTROEM)
---------------------------------
  C      3.011260   -1.180815    0.598523
  O      4.394625   -1.127968    0.874339
  H      4.772148   -0.378940    0.412525
  H      2.806386   -1.318883   -0.469318
  H      2.611584   -2.040183    1.135930
  H      2.484805   -0.284573    0.945627

----------------------------
CARTESIAN COORDINATES (A.U.)
----------------------------
  NO LB      ZA    FRAG     MASS         X           Y           Z
   0 C     6.0000    0    12.011    5.690457   -2.231417    1.131045
   1 O     8.0000    0    15.999    8.304638   -2.131551    1.652261
   2 H     1.0000    0     1.008    9.018053   -0.716093    0.779559
   3 H     1.0000    0     1.008    5.303301   -2.492328   -0.886882
   4 H     1.0000    0     1.008    4.935179   -3.855387    2.146597
   5 H     1.0000    0     1.008    4.695601   -0.537765    1.786976

--------------------------------
INTERNAL COORDINATES (ANGSTROEM)
--------------------------------
 C      0   0   0     0.000000000000     0.00000000     0.00000000
 O      1   0   0     1.411582797603     0.00000000     0.00000000
 H      2   1   0     0.957516961160   108.74991336     0.00000000
 H      1   2   3     1.096047685907   112.22634922    61.42714121
 H      1   2   3     1.089523082844   107.01689638   179.99811740
 H      1   2   3     1.095849340195   112.22815608   298.56956486

---------------------------
INTERNAL COORDINATES (A.U.)
---------------------------
 C      0   0   0     0.000000000000     0.00000000     0.00000000
 O      1   0   0     2.667504902825     0.00000000     0.00000000
 H      2   1   0     1.809444825177   108.74991336     0.00000000
 H      1   2   3     2.071229956081   112.22634922    61.42714121
 H      1   2   3     2.058900243160   107.01689638   179.99811740
 H      1   2   3     2.070855137006   112.22815608   298.56956486

---------------------
BASIS SET INFORMATION
---------------------
There are 3 groups of distinct atoms

 Group   1 Type C   : 11s6p2d1f contracted to 5s3p2d1f pattern {62111/411/11/1}
 Group   2 Type O   : 11s6p2d1f contracted to 5s3p2d1f pattern {62111/411/11/1}
 Group   3 Type H   : 5s1p contracted to 3s1p pattern {311/1}

Atom   0C    basis set group =>   1
Atom   1O    basis set group =>   2
Atom   2H    basis set group =>   3
Atom   3H    basis set group =>   3
Atom   4H    basis set group =>   3
Atom   5H    basis set group =>   3


           ************************************************************
           *        Program running with 4 parallel MPI-processes     *
           *              working on a common directory               *
           ************************************************************
------------------------------------------------------------------------------
                           ORCA GTO INTEGRAL CALCULATION
------------------------------------------------------------------------------

                         BASIS SET STATISTICS AND STARTUP INFO

 # of primitive gaussian shells          ...   64
 # of primitive gaussian functions       ...  124
 # of contracted shells                  ...   38
 # of contracted basis functions         ...   86
 Highest angular momentum                ...    3
 Maximum contraction depth               ...    6
 Integral package used                   ... LIBINT
 Integral threshhold            Thresh   ...  2.500e-11
 Primitive cut-off              TCut     ...  2.500e-12


------------------------------ INTEGRAL EVALUATION ----------------------------


 * One electron integrals 
 Pre-screening matrix                    ... done
 Shell pair data                         ... done (   0.000 sec)



           ************************************************************
           *        Program running with 4 parallel MPI-processes     *
           *              working on a common directory               *
           ************************************************************
-------------------------------------------------------------------------------
                                 ORCA SCF
-------------------------------------------------------------------------------

------------
SCF SETTINGS
------------
Hamiltonian:
 Density Functional     Method          .... DFT(GTOs)
 Exchange Functional    Exchange        .... WB97X-D3
 Correlation Functional Correlation     .... WB97X-D3
 Gradients option       PostSCFGGA      .... off
 Hybrid DFT is turned on
   Fraction HF Exchange ScalHFX         ....  0.195728
   Scaling of DF-GGA-X  ScalDFX         ....  0.000000
   Scaling of DF-GGA-C  ScalDFC         ....  1.000000
   Scaling of DF-LDA-C  ScalLDAC        ....  1.000000
   Perturbative correction              ....  0.000000
   Density functional embedding theory  .... OFF
 Long-range corrected/Screened/Range-Separated Hybrid DFT is turned on
   Amount of maximum screened exact exchange              ....  0.804272
   Range separation parameter mu (erf(mu*r12)/r12)        ....  0.250000


General Settings:
 Integral files         IntName         .... 6_geo_opt
 Hartree-Fock type      HFTyp           .... RHF
 Total Charge           Charge          ....    0
 Multiplicity           Mult            ....    1
 Number of Electrons    NEL             ....   18
 Basis Dimension        Dim             ....   86
 Nuclear Repulsion      ENuc            ....     40.4389251278 Eh

Convergence Acceleration:
 DIIS                   CNVDIIS         .... on
   Start iteration      DIISMaxIt       ....    12
   Startup error        DIISStart       ....  0.200000
   # of expansion vecs  DIISMaxEq       ....     5
   Bias factor          DIISBfac        ....   1.050
   Max. coefficient     DIISMaxC        ....  10.000
 Newton-Raphson         CNVNR           .... off
 SOSCF                  CNVSOSCF        .... on
   Start iteration      SOSCFMaxIt      ....   150
   Startup grad/error   SOSCFStart      ....  0.003300
 Level Shifting         CNVShift        .... on
   Level shift para.    LevelShift      ....    0.2500
   Turn off err/grad.   ShiftErr        ....    0.0010
 Zerner damping         CNVZerner       .... off
 Static damping         CNVDamp         .... on
   Fraction old density DampFac         ....    0.7000
   Max. Damping (<1)    DampMax         ....    0.9800
   Min. Damping (>=0)   DampMin         ....    0.0000
   Turn off err/grad.   DampErr         ....    0.1000
 Fernandez-Rico         CNVRico         .... off

SCF Procedure:
 Maximum # iterations   MaxIter         ....   125
 SCF integral mode      SCFMode         .... Direct
   Integral package                     .... LIBINT
 Reset frequency        DirectResetFreq ....    20
 Integral Threshold     Thresh          ....  2.500e-11 Eh
 Primitive CutOff       TCut            ....  2.500e-12 Eh

Convergence Tolerance:
 Convergence Check Mode ConvCheckMode   .... Total+1el-Energy
 Convergence forced     ConvForced      .... 0
 Energy Change          TolE            ....  1.000e-08 Eh
 1-El. energy change                    ....  1.000e-05 Eh
 Orbital Gradient       TolG            ....  1.000e-05
 Orbital Rotation angle TolX            ....  1.000e-05
 DIIS Error             TolErr          ....  5.000e-07


Diagonalization of the overlap matrix:
Smallest eigenvalue                        ... 1.650e-03
Time for diagonalization                   ...    0.002 sec
Threshold for overlap eigenvalues          ... 1.000e-08
Number of eigenvalues below threshold      ... 0
Time for construction of square roots      ...    0.004 sec
Total time needed                          ...    0.006 sec

-------------------
DFT GRID GENERATION
-------------------

General Integration Accuracy     IntAcc      ...  5.010
Radial Grid Type                 RadialGrid  ... Gauss-Chebyshev
Angular Grid (max. acc.)         AngularGrid ... Lebedev-434
Angular grid pruning method      GridPruning ... 3 (G Style)
Weight generation scheme         WeightScheme... Becke
Basis function cutoff            BFCut       ...    1.0000e-11
Integration weight cutoff        WCut        ...    1.0000e-14
Grids for H and He will be reduced by one unit

# of grid points (after initial pruning)     ...  48308 (   0.0 sec)
# of grid points (after weights+screening)   ...  46676 (   0.0 sec)
nearest neighbour list constructed           ...    0.0 sec
Grid point re-assignment to atoms done       ...    0.0 sec
Grid point division into batches done        ...    0.3 sec
Reduced shell lists constructed in    0.3 sec

Total number of grid points                  ...    46676
Total number of batches                      ...      733
Average number of points per batch           ...       63
Average number of grid points per atom       ...     7779
Average number of shells per batch           ...    33.11 (87.14%)
Average number of basis functions per batch  ...    76.78 (89.28%)
Average number of large shells per batch     ...    30.61 (92.44%)
Average number of large basis fcns per batch ...    72.21 (94.05%)
Maximum spatial batch extension              ...  15.77, 14.99, 16.58 au
Average spatial batch extension              ...   0.41,  0.40,  0.43 au

Time for grid setup =    0.405 sec

------------------------------
INITIAL GUESS: MODEL POTENTIAL
------------------------------
Loading Hartree-Fock densities                     ... done
Calculating cut-offs                               ... done
Setting up the integral package                    ... done
Initializing the effective Hamiltonian             ... done
Starting the Coulomb interaction                   ... done (   0.0 sec)
Reading the grid                                   ... done
Mapping shells                                     ... done
Starting the XC term evaluation                    ... done (   0.1 sec)
  promolecular density results
     # of electrons  =     17.998045197
     EX              =    -14.430322102
     EC              =     -0.575122817
     EX+EC           =    -15.005444919
Transforming the Hamiltonian                       ... done (   0.0 sec)
Diagonalizing the Hamiltonian                      ... done (   0.0 sec)
Back transforming the eigenvectors                 ... done (   0.0 sec)
Now organizing SCF variables                       ... done
                      ------------------
                      INITIAL GUESS DONE (   0.6 sec)
                      ------------------
--------------
SCF ITERATIONS
--------------
ITER       Energy         Delta-E        Max-DP      RMS-DP      [F,P]     Damp
               ***  Starting incremental Fock matrix formation  ***
  0   -115.6511980968   0.000000000000 0.03696768  0.00147475  0.2523674 0.7000
  1   -115.6882696935  -0.037071596683 0.02203055  0.00104087  0.1262600 0.7000
                               ***Turning on DIIS***
  2   -115.7053363148  -0.017066621274 0.03156671  0.00188132  0.0491025 0.0000
  3   -115.7330769159  -0.027740601117 0.01774142  0.00068032  0.0611278 0.0000
  4   -115.7376013924  -0.004524476518 0.00406498  0.00013180  0.0065580 0.0000
                      *** Initiating the SOSCF procedure ***
                           *** Shutting down DIIS ***
                      *** Re-Reading the Fockian *** 
                      *** Removing any level shift *** 
ITER      Energy       Delta-E        Grad      Rot      Max-DP    RMS-DP
  5   -115.73769558  -0.0000941846  0.000489  0.000489  0.000678  0.000043
               *** Restarting incremental Fock matrix formation ***
  6   -115.73770372  -0.0000081420  0.000152  0.000202  0.000490  0.000026
  7   -115.73770444  -0.0000007221  0.000056  0.000109  0.000208  0.000011
  8   -115.73770450  -0.0000000574  0.000019  0.000017  0.000030  0.000001
  9   -115.73770450  -0.0000000056  0.000010  0.000008  0.000015  0.000001
 10   -115.73770451  -0.0000000015  0.000003  0.000003  0.000003  0.000000
                  ***Gradient check signals convergence***
              ***Rediagonalizing the Fockian in SOSCF/NRSCF***

               *****************************************************
               *                     SUCCESS                       *
               *           SCF CONVERGED AFTER  11 CYCLES          *
               *****************************************************

Setting up the final grid:

General Integration Accuracy     IntAcc      ...  5.340
Radial Grid Type                 RadialGrid  ... Gauss-Chebyshev
Angular Grid (max. acc.)         AngularGrid ... Lebedev-590
Angular grid pruning method      GridPruning ... 3 (G Style)
Weight generation scheme         WeightScheme... Becke
Basis function cutoff            BFCut       ...    1.0000e-11
Integration weight cutoff        WCut        ...    1.0000e-14
Grids for H and He will be reduced by one unit

# of grid points (after initial pruning)     ...  77324 (   0.0 sec)
# of grid points (after weights+screening)   ...  74512 (   0.0 sec)
nearest neighbour list constructed           ...    0.0 sec
Grid point re-assignment to atoms done       ...    0.0 sec
Grid point division into batches done        ...    0.8 sec
Reduced shell lists constructed in    0.8 sec

Total number of grid points                  ...    74512
Total number of batches                      ...     1167
Average number of points per batch           ...       63
Average number of grid points per atom       ...    12419
Average number of shells per batch           ...    32.93 (86.65%)
Average number of basis functions per batch  ...    76.35 (88.78%)
Average number of large shells per batch     ...    30.32 (92.08%)
Average number of large basis fcns per batch ...    71.53 (93.68%)
Maximum spatial batch extension              ...  13.18, 14.25, 15.48 au
Average spatial batch extension              ...   0.34,  0.36,  0.37 au

Final grid set up in    0.9 sec
Final integration                            ... done (   0.2 sec)
Change in XC energy                          ...    -0.000107581
Integrated number of electrons               ...    18.000000747
Previous integrated no of electrons          ...    18.000002276

----------------
TOTAL SCF ENERGY
----------------

Total Energy       :         -115.73781209 Eh           -3149.38598 eV

Components:
Nuclear Repulsion  :           40.43892513 Eh            1100.39910 eV
Electronic Energy  :         -156.17673721 Eh           -4249.78507 eV
One Electron Energy:         -237.29702499 Eh           -6457.18033 eV
Two Electron Energy:           81.12028777 Eh            2207.39525 eV

Virial components:
Potential Energy   :         -230.98868852 Eh           -6285.52176 eV
Kinetic Energy     :          115.25087644 Eh            3136.13579 eV
Virial Ratio       :            2.00422501


DFT components:
N(Alpha)           :        9.000000373501 electrons
N(Beta)            :        9.000000373501 electrons
N(Total)           :       18.000000747002 electrons
E(XC)              :      -10.655674109725 Eh       
DFET-embed. en.    :        0.000000000000 Eh       

---------------
SCF CONVERGENCE
---------------

  Last Energy change         ...   -7.0273e-11  Tolerance :   1.0000e-08
  Last MAX-Density change    ...    1.8666e-06  Tolerance :   1.0000e-07
  Last RMS-Density change    ...    7.8122e-08  Tolerance :   5.0000e-09
  Last Orbital Gradient      ...    1.3503e-06  Tolerance :   1.0000e-05
  Last Orbital Rotation      ...    7.8065e-07  Tolerance :   1.0000e-05

             **** THE GBW FILE WAS UPDATED (6_geo_opt.gbw) ****
             **** DENSITY FILE WAS UPDATED (6_geo_opt.scfp.tmp) ****
             **** ENERGY FILE WAS UPDATED (6_geo_opt.en.tmp) ****
----------------
ORBITAL ENERGIES
----------------

  NO   OCC          E(Eh)            E(eV) 
   0   2.0000     -19.228082      -523.2227 
   1   2.0000     -10.315094      -280.6880 
   2   2.0000      -1.136797       -30.9338 
   3   2.0000      -0.795358       -21.6428 
   4   2.0000      -0.611598       -16.6424 
   5   2.0000      -0.541790       -14.7429 
   6   2.0000      -0.526321       -14.3219 
   7   2.0000      -0.433799       -11.8043 
   8   2.0000      -0.373610       -10.1664 
   9   0.0000       0.116645         3.1741 
  10   0.0000       0.156684         4.2636 
  11   0.0000       0.202573         5.5123 
  12   0.0000       0.205130         5.5819 
  13   0.0000       0.226373         6.1599 
  14   0.0000       0.304330         8.2812 
  15   0.0000       0.313359         8.5269 
  16   0.0000       0.404502        11.0071 
  17   0.0000       0.452632        12.3167 
  18   0.0000       0.485003        13.1976 
  19   0.0000       0.535880        14.5820 
  20   0.0000       0.543640        14.7932 
  21   0.0000       0.567656        15.4467 
  22   0.0000       0.598579        16.2882 
  23   0.0000       0.603539        16.4231 
  24   0.0000       0.671329        18.2678 
  25   0.0000       0.779012        21.1980 
  26   0.0000       0.832200        22.6453 
  27   0.0000       0.861303        23.4372 
  28   0.0000       0.989577        26.9278 
  29   0.0000       1.013924        27.5903 
  30   0.0000       1.109761        30.1981 
  31   0.0000       1.382642        37.6236 
  32   0.0000       1.512884        41.1677 
  33   0.0000       1.553569        42.2748 
  34   0.0000       1.602820        43.6150 
  35   0.0000       1.613039        43.8930 
  36   0.0000       1.624207        44.1969 
  37   0.0000       1.660415        45.1822 
  38   0.0000       1.688025        45.9335 
  39   0.0000       1.774623        48.2899 
  40   0.0000       1.952086        53.1190 
  41   0.0000       2.030682        55.2577 
  42   0.0000       2.055229        55.9256 
  43   0.0000       2.094203        56.9862 
  44   0.0000       2.114654        57.5427 
  45   0.0000       2.268552        61.7304 
  46   0.0000       2.333501        63.4978 
  47   0.0000       2.345590        63.8268 
  48   0.0000       2.380986        64.7899 
  49   0.0000       2.429546        66.1113 
  50   0.0000       2.497691        67.9656 
  51   0.0000       2.596369        70.6508 
  52   0.0000       2.639965        71.8371 
  53   0.0000       2.707211        73.6670 
  54   0.0000       2.841966        77.3338 
  55   0.0000       2.871291        78.1318 
  56   0.0000       2.888407        78.5976 
  57   0.0000       2.992873        81.4402 
  58   0.0000       3.096097        84.2491 
  59   0.0000       3.173053        86.3432 
  60   0.0000       3.299325        89.7792 
  61   0.0000       3.408425        92.7479 
  62   0.0000       3.441837        93.6571 
  63   0.0000       3.488366        94.9233 
  64   0.0000       3.612607        98.3040 
  65   0.0000       3.645302        99.1937 
  66   0.0000       3.667024        99.7848 
  67   0.0000       4.005540       108.9963 
  68   0.0000       4.223974       114.9402 
  69   0.0000       4.273454       116.2866 
  70   0.0000       4.455891       121.2510 
  71   0.0000       4.564384       124.2032 
  72   0.0000       5.346095       145.4746 
  73   0.0000       5.425372       147.6319 
  74   0.0000       5.554368       151.1420 
  75   0.0000       5.826152       158.5377 
  76   0.0000       5.834107       158.7541 
  77   0.0000       5.985583       162.8760 
  78   0.0000       6.379598       173.5977 
  79   0.0000       6.530934       177.7158 
  80   0.0000       6.745001       183.5408 
  81   0.0000       6.804030       185.1471 
  82   0.0000       7.039409       191.5521 
  83   0.0000       7.215918       196.3551 
  84   0.0000      22.406391       609.7089 
  85   0.0000      43.664289      1188.1657 

                    ********************************
                    * MULLIKEN POPULATION ANALYSIS *
                    ********************************

-----------------------
MULLIKEN ATOMIC CHARGES
-----------------------
   0 C :   -0.150833
   1 O :   -0.477655
   2 H :    0.313004
   3 H :    0.098617
   4 H :    0.118217
   5 H :    0.098651
Sum of atomic charges:   -0.0000000

--------------------------------
MULLIKEN REDUCED ORBITAL CHARGES
--------------------------------
  0 C s       :     3.223062  s :     3.223062
      pz      :     1.047262  p :     2.826109
      px      :     0.702192
      py      :     1.076655
      dz2     :     0.011107  d :     0.094242
      dxz     :     0.032493
      dyz     :     0.002645
      dx2y2   :     0.012741
      dxy     :     0.035257
      f0      :     0.001356  f :     0.007420
      f+1     :     0.000956
      f-1     :     0.000175
      f+2     :     0.001464
      f-2     :     0.000123
      f+3     :     0.001361
      f-3     :     0.001986
  1 O s       :     3.792782  s :     3.792782
      pz      :     1.759406  p :     4.652611
      px      :     1.313638
      py      :     1.579567
      dz2     :     0.003136  d :     0.030577
      dxz     :     0.006477
      dyz     :     0.005835
      dx2y2   :     0.008936
      dxy     :     0.006192
      f0      :     0.000269  f :     0.001685
      f+1     :     0.000233
      f-1     :     0.000087
      f+2     :     0.000287
      f-2     :     0.000235
      f+3     :     0.000367
      f-3     :     0.000206
  2 H s       :     0.639304  s :     0.639304
      pz      :     0.017006  p :     0.047693
      px      :     0.012720
      py      :     0.017967
  3 H s       :     0.882018  s :     0.882018
      pz      :     0.012072  p :     0.019365
      px      :     0.003007
      py      :     0.004286
  4 H s       :     0.861564  s :     0.861564
      pz      :     0.006297  p :     0.020219
      px      :     0.004194
      py      :     0.009729
  5 H s       :     0.881979  s :     0.881979
      pz      :     0.004932  p :     0.019370
      px      :     0.004978
      py      :     0.009460


                     *******************************
                     * LOEWDIN POPULATION ANALYSIS *
                     *******************************

----------------------
LOEWDIN ATOMIC CHARGES
----------------------
   0 C :   -0.385131
   1 O :   -0.076105
   2 H :    0.165781
   3 H :    0.093400
   4 H :    0.108695
   5 H :    0.093360

-------------------------------
LOEWDIN REDUCED ORBITAL CHARGES
-------------------------------
  0 C s       :     2.862896  s :     2.862896
      pz      :     1.096638  p :     3.052263
      px      :     0.846057
      py      :     1.109568
      dz2     :     0.072413  d :     0.412949
      dxz     :     0.114038
      dyz     :     0.020709
      dx2y2   :     0.082147
      dxy     :     0.123642
      f0      :     0.007822  f :     0.057022
      f+1     :     0.007163
      f-1     :     0.000855
      f+2     :     0.012527
      f-2     :     0.004831
      f+3     :     0.011735
      f-3     :     0.012091
  1 O s       :     3.366279  s :     3.366279
      pz      :     1.699041  p :     4.633616
      px      :     1.381194
      py      :     1.553381
      dz2     :     0.006131  d :     0.071566
      dxz     :     0.017863
      dyz     :     0.008086
      dx2y2   :     0.019338
      dxy     :     0.020147
      f0      :     0.000483  f :     0.004645
      f+1     :     0.000622
      f-1     :     0.000072
      f+2     :     0.001050
      f-2     :     0.000560
      f+3     :     0.000890
      f-3     :     0.000966
  2 H s       :     0.675137  s :     0.675137
      pz      :     0.055755  p :     0.159082
      px      :     0.033905
      py      :     0.069423
  3 H s       :     0.846777  s :     0.846777
      pz      :     0.036181  p :     0.059823
      px      :     0.009713
      py      :     0.013929
  4 H s       :     0.831711  s :     0.831711
      pz      :     0.019211  p :     0.059593
      px      :     0.011608
      py      :     0.028774
  5 H s       :     0.846784  s :     0.846784
      pz      :     0.015617  p :     0.059856
      px      :     0.015212
      py      :     0.029028


                      *****************************
                      * MAYER POPULATION ANALYSIS *
                      *****************************

  NA   - Mulliken gross atomic population
  ZA   - Total nuclear charge
  QA   - Mulliken gross atomic charge
  VA   - Mayer's total valence
  BVA  - Mayer's bonded valence
  FA   - Mayer's free valence

  ATOM       NA         ZA         QA         VA         BVA        FA
  0 C      6.1508     6.0000    -0.1508     3.9350     3.9350    -0.0000
  1 O      8.4777     8.0000    -0.4777     1.8880     1.8880     0.0000
  2 H      0.6870     1.0000     0.3130     0.9136     0.9136    -0.0000
  3 H      0.9014     1.0000     0.0986     0.9596     0.9596    -0.0000
  4 H      0.8818     1.0000     0.1182     0.9598     0.9598    -0.0000
  5 H      0.9013     1.0000     0.0987     0.9596     0.9596    -0.0000

  Mayer bond orders larger than 0.1
B(  0-C ,  1-O ) :   0.9986 B(  0-C ,  3-H ) :   0.9755 B(  0-C ,  4-H ) :   0.9749 
B(  0-C ,  5-H ) :   0.9755 B(  1-O ,  2-H ) :   0.9002 

-------
TIMINGS
-------

Total SCF time: 0 days 0 hours 0 min 8 sec 

Total time                  ....       8.677 sec
Sum of individual times     ....       8.303 sec  ( 95.7%)

Fock matrix formation       ....       6.745 sec  ( 77.7%)
  XC integration            ....       1.978 sec  ( 29.3% of F)
    Basis function eval.    ....       0.407 sec  ( 20.6% of XC)
    Density eval.           ....       0.259 sec  ( 13.1% of XC)
    XC-Functional eval.     ....       0.689 sec  ( 34.8% of XC)
    XC-Potential eval.      ....       0.271 sec  ( 13.7% of XC)
Diagonalization             ....       0.042 sec  (  0.5%)
Density matrix formation    ....       0.002 sec  (  0.0%)
Population analysis         ....       0.011 sec  (  0.1%)
Initial guess               ....       0.176 sec  (  2.0%)
Orbital Transformation      ....       0.000 sec  (  0.0%)
Orbital Orthonormalization  ....       0.000 sec  (  0.0%)
DIIS solution               ....       0.026 sec  (  0.3%)
SOSCF solution              ....       0.017 sec  (  0.2%)
Grid generation             ....       1.284 sec  ( 14.8%)


-------------------------------------------------------------------------------
                          DFT DISPERSION CORRECTION                            
                                                                               
                              DFTD3 V3.1  Rev 1                                
                              USING zero damping                               
-------------------------------------------------------------------------------
The omegaB97X-D3 functional is recognized. Fit by Chai et al.
Active option DFTDOPT                   ...         3   

molecular C6(AA) [au] = 208.715480 


            DFT-D V3
 parameters
 s6 scaling factor         :     1.0000 
 rs6 scaling factor        :     1.2810 
 s8 scaling factor         :     1.0000 
 rs8 scaling factor        :     1.0940 
 Damping factor alpha6     :    14.0000 
 Damping factor alpha8     :    16.0000 
 ad hoc parameters k1-k3   :    16.0000     1.3333    -4.0000 

 Edisp/kcal,au: -0.150119982096  -0.000239231394 
 E6   /kcal   :  -0.029604404 
 E8   /kcal   :  -0.120515578 
 % E8         :  80.279504435 

-------------------------   ----------------
Dispersion correction           -0.000239231
-------------------------   ----------------


-------------------------   --------------------
FINAL SINGLE POINT ENERGY      -115.738051318395
-------------------------   --------------------



           ************************************************************
           *        Program running with 4 parallel MPI-processes     *
           *              working on a common directory               *
           ************************************************************
------------------------------------------------------------------------------
                         ORCA SCF GRADIENT CALCULATION
------------------------------------------------------------------------------

Gradient of the Kohn-Sham DFT energy:
Kohn-Sham wavefunction type      ... RKS
Hartree-Fock exchange scaling    ...    0.196
Number of operators              ...    1
Number of atoms                  ...    6
Basis set dimensions             ...   86
Integral neglect threshold       ... 2.5e-11
Integral primitive cutoff        ... 2.5e-12

Nuclear repulsion gradient       ... done
One Electron Gradient            ... done
Pre-screening matrix             ... done
Starting the two electron gradient:
Two electron gradient done
Exchange-correlation gradient    ... done
Dispersion correction            ... done

------------------
CARTESIAN GRADIENT
------------------

   1   C   :   -0.000145540    0.000128104   -0.000007742
   2   O   :    0.000026800   -0.000032037    0.000029416
   3   H   :    0.000000228    0.000009984   -0.000009219
   4   H   :    0.000008522    0.000008338    0.000002013
   5   H   :    0.000039300   -0.000012214    0.000016916
   6   H   :    0.000070690   -0.000102173   -0.000031383

Difference to translation invariance:
           :    0.0000000000    0.0000000000    0.0000000000

Norm of the cartesian gradient     ...    0.0002428873
RMS gradient                       ...    0.0000572491
MAX gradient                       ...    0.0001455396

-------
TIMINGS
-------

Total SCF gradient time            ...        1.791 sec

One electron gradient       ....       0.005 sec  (  0.3%)
Prescreening matrices       ....       0.025 sec  (  1.4%)
Two electron gradient       ....       0.841 sec  ( 46.9%)
XC gradient                 ....       0.623 sec  ( 34.8%)
------------------------------------------------------------------------------
                         ORCA GEOMETRY RELAXATION STEP
------------------------------------------------------------------------------

Reading the OPT-File                    .... done
Getting information on internals        .... done
Copying old internal coords+grads       .... done
Making the new internal coordinates     .... (new redundants).... done
Validating the new internal coordinates .... (new redundants).... done
Calculating the B-matrix                .... done
Calculating the G,G- and P matrices     .... done
Transforming gradient to internals      .... done
Projecting the internal gradient        .... done
Number of atoms                         ....   6
Number of internal coordinates          ....  15
Current Energy                          ....  -115.738051318 Eh
Current gradient norm                   ....     0.000242887 Eh/bohr
Maximum allowed component of the step   ....  0.300
Current trust radius                    ....  0.300
Evaluating the initial hessian          ....  (Almloef) done
Projecting the Hessian                  .... done
Forming the augmented Hessian           .... done
Diagonalizing the augmented Hessian     .... done
Last element of RFO vector              ....  0.999999966
Lowest eigenvalues of augmented Hessian:
 -0.000000020  0.021176451  0.181860427  0.192349335  0.313400742
Length of the computed step             ....  0.000261114
The final length of the internal step   ....  0.000261114
Converting the step to cartesian space:
 Initial RMS(Int)=    0.0000674193
Transforming coordinates:
 Iter   0:  RMS(Cart)=    0.0000641298 RMS(Int)=    0.0000674204
 Iter   1:  RMS(Cart)=    0.0000000058 RMS(Int)=    0.0000000063
Imposing constraints:
 Iter   0:  RMS(Cart)=    0.0000000006 RMS(Int)=    0.0000000000
CONVERGED
done
Storing new coordinates                 .... done

                                .--------------------.
          ----------------------|Geometry convergence|-------------------------
          Item                value                   Tolerance       Converged
          ---------------------------------------------------------------------
          RMS gradient        0.0000212873            0.0001000000      YES
          MAX gradient        0.0000627161            0.0003000000      YES
          RMS step            0.0000674193            0.0020000000      YES
          MAX step            0.0001996455            0.0040000000      YES
          ........................................................
          Max(Bonds)      0.0000      Max(Angles)    0.01
          Max(Dihed)        0.01      Max(Improp)    0.00
          ---------------------------------------------------------------------

                    ***********************HURRAY********************
                    ***        THE OPTIMIZATION HAS CONVERGED     ***
                    *************************************************


    ---------------------------------------------------------------------------
                         Redundant Internal Coordinates

                          --- Optimized Parameters ---  
                            (Angstroem and degrees)

        Definition                    OldVal   dE/dq     Step     FinalVal
    ----------------------------------------------------------------------------
     1. B(O   1,C   0)                1.4116  0.000030 -0.0000    1.4116   
     2. B(H   2,O   1)                0.9575  0.000012 -0.0000    0.9575   
     3. B(H   3,C   0)                1.0960 -0.000004  0.0000    1.0961   
     4. B(H   4,C   0)                1.0895  0.000003 -0.0000    1.0895   
     5. B(H   5,C   0)                1.0958 -0.000127  0.0000    1.0958 C 
     6. A(O   1,C   0,H   4)          107.02 -0.000063    0.01    107.03   
     7. A(O   1,C   0,H   3)          112.23 -0.000000   -0.00    112.23   
     8. A(O   1,C   0,H   5)          112.23 -0.000002    0.00    112.23   
     9. A(H   3,C   0,H   5)          108.77  0.000014   -0.00    108.77   
    10. A(H   4,C   0,H   5)          108.22  0.000024   -0.00    108.21   
    11. A(H   3,C   0,H   4)          108.22  0.000029   -0.00    108.21   
    12. A(C   0,O   1,H   2)          108.75 -0.000009    0.00    108.75   
    13. D(H   2,O   1,C   0,H   5)    -61.43 -0.000010    0.01    -61.43   
    14. D(H   2,O   1,C   0,H   3)     61.43  0.000006    0.00     61.43   
    15. D(H   2,O   1,C   0,H   4)    180.00  0.000001    0.00    180.00   
    ----------------------------------------------------------------------------
                 *******************************************************
                 *** FINAL ENERGY EVALUATION AT THE STATIONARY POINT ***
                 ***               (AFTER    1 CYCLES)               ***
                 *******************************************************
---------------------------------
CARTESIAN COORDINATES (ANGSTROEM)
---------------------------------
  C      3.011306   -1.180842    0.598556
  O      4.394649   -1.127946    0.874312
  H      4.772139   -0.378904    0.412518
  H      2.806394   -1.318899   -0.469286
  H      2.611484   -2.040175    1.135901
  H      2.484835   -0.284596    0.945626

----------------------------
CARTESIAN COORDINATES (A.U.)
----------------------------
  NO LB      ZA    FRAG     MASS         X           Y           Z
   0 C     6.0000    0    12.011    5.690543   -2.231468    1.131107
   1 O     8.0000    0    15.999    8.304684   -2.131510    1.652210
   2 H     1.0000    0     1.008    9.018036   -0.716025    0.779547
   3 H     1.0000    0     1.008    5.303317   -2.492358   -0.886822
   4 H     1.0000    0     1.008    4.934990   -3.855372    2.146541
   5 H     1.0000    0     1.008    4.695658   -0.537808    1.786974

--------------------------------
INTERNAL COORDINATES (ANGSTROEM)
--------------------------------
 C      0   0   0     0.000000000000     0.00000000     0.00000000
 O      1   0   0     1.411552146691     0.00000000     0.00000000
 H      2   1   0     0.957505081995   108.75130958     0.00000000
 H      1   2   3     1.096054238844   112.22629175    61.42773683
 H      1   2   3     1.089518072915   107.02833501   179.99993056
 H      1   2   3     1.095849341779   112.22854939   298.57457445

---------------------------
INTERNAL COORDINATES (A.U.)
---------------------------
 C      0   0   0     0.000000000000     0.00000000     0.00000000
 O      1   0   0     2.667446980994     0.00000000     0.00000000
 H      2   1   0     1.809422376808   108.75130958     0.00000000
 H      1   2   3     2.071242339339   112.22629175    61.42773683
 H      1   2   3     2.058890775767   107.02833501   179.99993056
 H      1   2   3     2.070855140000   112.22854939   298.57457445

---------------------
BASIS SET INFORMATION
---------------------
There are 3 groups of distinct atoms

 Group   1 Type C   : 11s6p2d1f contracted to 5s3p2d1f pattern {62111/411/11/1}
 Group   2 Type O   : 11s6p2d1f contracted to 5s3p2d1f pattern {62111/411/11/1}
 Group   3 Type H   : 5s1p contracted to 3s1p pattern {311/1}

Atom   0C    basis set group =>   1
Atom   1O    basis set group =>   2
Atom   2H    basis set group =>   3
Atom   3H    basis set group =>   3
Atom   4H    basis set group =>   3
Atom   5H    basis set group =>   3


           ************************************************************
           *        Program running with 4 parallel MPI-processes     *
           *              working on a common directory               *
           ************************************************************
------------------------------------------------------------------------------
                           ORCA GTO INTEGRAL CALCULATION
------------------------------------------------------------------------------

                         BASIS SET STATISTICS AND STARTUP INFO

 # of primitive gaussian shells          ...   64
 # of primitive gaussian functions       ...  124
 # of contracted shells                  ...   38
 # of contracted basis functions         ...   86
 Highest angular momentum                ...    3
 Maximum contraction depth               ...    6
 Integral package used                   ... LIBINT
 Integral threshhold            Thresh   ...  2.500e-11
 Primitive cut-off              TCut     ...  2.500e-12


------------------------------ INTEGRAL EVALUATION ----------------------------


 * One electron integrals 
 Pre-screening matrix                    ... done
 Shell pair data                         ... done (   0.000 sec)



           ************************************************************
           *        Program running with 4 parallel MPI-processes     *
           *              working on a common directory               *
           ************************************************************
-------------------------------------------------------------------------------
                                 ORCA SCF
-------------------------------------------------------------------------------

------------
SCF SETTINGS
------------
Hamiltonian:
 Density Functional     Method          .... DFT(GTOs)
 Exchange Functional    Exchange        .... WB97X-D3
 Correlation Functional Correlation     .... WB97X-D3
 Gradients option       PostSCFGGA      .... off
 Hybrid DFT is turned on
   Fraction HF Exchange ScalHFX         ....  0.195728
   Scaling of DF-GGA-X  ScalDFX         ....  0.000000
   Scaling of DF-GGA-C  ScalDFC         ....  1.000000
   Scaling of DF-LDA-C  ScalLDAC        ....  1.000000
   Perturbative correction              ....  0.000000
   Density functional embedding theory  .... OFF
 Long-range corrected/Screened/Range-Separated Hybrid DFT is turned on
   Amount of maximum screened exact exchange              ....  0.804272
   Range separation parameter mu (erf(mu*r12)/r12)        ....  0.250000


General Settings:
 Integral files         IntName         .... 6_geo_opt
 Hartree-Fock type      HFTyp           .... RHF
 Total Charge           Charge          ....    0
 Multiplicity           Mult            ....    1
 Number of Electrons    NEL             ....   18
 Basis Dimension        Dim             ....   86
 Nuclear Repulsion      ENuc            ....     40.4393279342 Eh

Convergence Acceleration:
 DIIS                   CNVDIIS         .... on
   Start iteration      DIISMaxIt       ....    12
   Startup error        DIISStart       ....  0.200000
   # of expansion vecs  DIISMaxEq       ....     5
   Bias factor          DIISBfac        ....   1.050
   Max. coefficient     DIISMaxC        ....  10.000
 Newton-Raphson         CNVNR           .... off
 SOSCF                  CNVSOSCF        .... on
   Start iteration      SOSCFMaxIt      ....   150
   Startup grad/error   SOSCFStart      ....  0.003300
 Level Shifting         CNVShift        .... on
   Level shift para.    LevelShift      ....    0.2500
   Turn off err/grad.   ShiftErr        ....    0.0010
 Zerner damping         CNVZerner       .... off
 Static damping         CNVDamp         .... on
   Fraction old density DampFac         ....    0.7000
   Max. Damping (<1)    DampMax         ....    0.9800
   Min. Damping (>=0)   DampMin         ....    0.0000
   Turn off err/grad.   DampErr         ....    0.1000
 Fernandez-Rico         CNVRico         .... off

SCF Procedure:
 Maximum # iterations   MaxIter         ....   125
 SCF integral mode      SCFMode         .... Direct
   Integral package                     .... LIBINT
 Reset frequency        DirectResetFreq ....    20
 Integral Threshold     Thresh          ....  2.500e-11 Eh
 Primitive CutOff       TCut            ....  2.500e-12 Eh

Convergence Tolerance:
 Convergence Check Mode ConvCheckMode   .... Total+1el-Energy
 Convergence forced     ConvForced      .... 0
 Energy Change          TolE            ....  1.000e-08 Eh
 1-El. energy change                    ....  1.000e-05 Eh
 Orbital Gradient       TolG            ....  1.000e-05
 Orbital Rotation angle TolX            ....  1.000e-05
 DIIS Error             TolErr          ....  5.000e-07


Diagonalization of the overlap matrix:
Smallest eigenvalue                        ... 1.650e-03
Time for diagonalization                   ...    0.002 sec
Threshold for overlap eigenvalues          ... 1.000e-08
Number of eigenvalues below threshold      ... 0
Time for construction of square roots      ...    0.004 sec
Total time needed                          ...    0.007 sec

---------------------
INITIAL GUESS: MOREAD
---------------------
Guess MOs are being read from file: 6_geo_opt.gbw
Input Geometry matches current geometry (good)
Input basis set matches current basis set (good)
MOs were renormalized
MOs were reorthogonalized (Cholesky)
                      ------------------
                      INITIAL GUESS DONE (   0.0 sec)
                      ------------------
-------------------
DFT GRID GENERATION
-------------------

General Integration Accuracy     IntAcc      ...  5.010
Radial Grid Type                 RadialGrid  ... Gauss-Chebyshev
Angular Grid (max. acc.)         AngularGrid ... Lebedev-434
Angular grid pruning method      GridPruning ... 3 (G Style)
Weight generation scheme         WeightScheme... Becke
Basis function cutoff            BFCut       ...    1.0000e-11
Integration weight cutoff        WCut        ...    1.0000e-14
Grids for H and He will be reduced by one unit

# of grid points (after initial pruning)     ...  48308 (   0.0 sec)
# of grid points (after weights+screening)   ...  46677 (   0.0 sec)
nearest neighbour list constructed           ...    0.0 sec
Grid point re-assignment to atoms done       ...    0.0 sec
Grid point division into batches done        ...    0.3 sec
Reduced shell lists constructed in    0.3 sec

Total number of grid points                  ...    46677
Total number of batches                      ...      733
Average number of points per batch           ...       63
Average number of grid points per atom       ...     7780
Average number of shells per batch           ...    33.14 (87.21%)
Average number of basis functions per batch  ...    76.85 (89.36%)
Average number of large shells per batch     ...    30.60 (92.33%)
Average number of large basis fcns per batch ...    72.26 (94.04%)
Maximum spatial batch extension              ...  15.77, 14.99, 16.58 au
Average spatial batch extension              ...   0.40,  0.41,  0.42 au

Time for grid setup =    0.399 sec

--------------
SCF ITERATIONS
--------------
ITER       Energy         Delta-E        Max-DP      RMS-DP      [F,P]     Damp
               ***  Starting incremental Fock matrix formation  ***
                      *** Initiating the SOSCF procedure ***
                      *** Re-Reading the Fockian *** 
                      *** Removing any level shift *** 
ITER      Energy       Delta-E        Grad      Rot      Max-DP    RMS-DP
  0   -115.73770450 -115.7377045029  0.000008  0.000008  0.000010  0.000001
               *** Restarting incremental Fock matrix formation ***
  1   -115.73770451  -0.0000000022  0.000004  0.000004  0.000005  0.000000
  2   -115.73770451  -0.0000000003  0.000003  0.000002  0.000003  0.000000
                 **** Energy Check signals convergence ****
              ***Rediagonalizing the Fockian in SOSCF/NRSCF***

               *****************************************************
               *                     SUCCESS                       *
               *           SCF CONVERGED AFTER   3 CYCLES          *
               *****************************************************

Setting up the final grid:

General Integration Accuracy     IntAcc      ...  5.340
Radial Grid Type                 RadialGrid  ... Gauss-Chebyshev
Angular Grid (max. acc.)         AngularGrid ... Lebedev-590
Angular grid pruning method      GridPruning ... 3 (G Style)
Weight generation scheme         WeightScheme... Becke
Basis function cutoff            BFCut       ...    1.0000e-11
Integration weight cutoff        WCut        ...    1.0000e-14
Grids for H and He will be reduced by one unit

# of grid points (after initial pruning)     ...  77324 (   0.0 sec)
# of grid points (after weights+screening)   ...  74512 (   0.0 sec)
nearest neighbour list constructed           ...    0.0 sec
Grid point re-assignment to atoms done       ...    0.0 sec
Grid point division into batches done        ...    0.8 sec
Reduced shell lists constructed in    0.8 sec

Total number of grid points                  ...    74512
Total number of batches                      ...     1167
Average number of points per batch           ...       63
Average number of grid points per atom       ...    12419
Average number of shells per batch           ...    32.92 (86.64%)
Average number of basis functions per batch  ...    76.37 (88.80%)
Average number of large shells per batch     ...    30.30 (92.04%)
Average number of large basis fcns per batch ...    71.50 (93.63%)
Maximum spatial batch extension              ...  13.18, 14.25, 15.48 au
Average spatial batch extension              ...   0.34,  0.36,  0.37 au

Final grid set up in    0.9 sec
Final integration                            ... done (   0.2 sec)
Change in XC energy                          ...    -0.000107598
Integrated number of electrons               ...    18.000000747
Previous integrated no of electrons          ...    18.000002275

----------------
TOTAL SCF ENERGY
----------------

Total Energy       :         -115.73781210 Eh           -3149.38598 eV

Components:
Nuclear Repulsion  :           40.43932793 Eh            1100.41006 eV
Electronic Energy  :         -156.17714004 Eh           -4249.79604 eV
One Electron Energy:         -237.29781288 Eh           -6457.20177 eV
Two Electron Energy:           81.12067284 Eh            2207.40573 eV

Virial components:
Potential Energy   :         -230.98877479 Eh           -6285.52411 eV
Kinetic Energy     :          115.25096269 Eh            3136.13813 eV
Virial Ratio       :            2.00422425


DFT components:
N(Alpha)           :        9.000000373481 electrons
N(Beta)            :        9.000000373481 electrons
N(Total)           :       18.000000746963 electrons
E(XC)              :      -10.655691600010 Eh       
DFET-embed. en.    :        0.000000000000 Eh       

---------------
SCF CONVERGENCE
---------------

  Last Energy change         ...   -6.6805e-11  Tolerance :   1.0000e-08
  Last MAX-Density change    ...    6.4000e-07  Tolerance :   1.0000e-07
  Last RMS-Density change    ...    4.9838e-08  Tolerance :   5.0000e-09
  Last Orbital Gradient      ...    5.2175e-07  Tolerance :   1.0000e-05
  Last Orbital Rotation      ...    5.7456e-07  Tolerance :   1.0000e-05

             **** THE GBW FILE WAS UPDATED (6_geo_opt.gbw) ****
             **** DENSITY FILE WAS UPDATED (6_geo_opt.scfp.tmp) ****
             **** ENERGY FILE WAS UPDATED (6_geo_opt.en.tmp) ****
----------------
ORBITAL ENERGIES
----------------

  NO   OCC          E(Eh)            E(eV) 
   0   2.0000     -19.228077      -523.2226 
   1   2.0000     -10.315087      -280.6878 
   2   2.0000      -1.136807       -30.9341 
   3   2.0000      -0.795359       -21.6428 
   4   2.0000      -0.611603       -16.6426 
   5   2.0000      -0.541787       -14.7428 
   6   2.0000      -0.526334       -14.3223 
   7   2.0000      -0.433792       -11.8041 
   8   2.0000      -0.373606       -10.1663 
   9   0.0000       0.116647         3.1741 
  10   0.0000       0.156682         4.2635 
  11   0.0000       0.202582         5.5125 
  12   0.0000       0.205132         5.5819 
  13   0.0000       0.226376         6.1600 
  14   0.0000       0.304343         8.2816 
  15   0.0000       0.313358         8.5269 
  16   0.0000       0.404516        11.0074 
  17   0.0000       0.452642        12.3170 
  18   0.0000       0.484990        13.1973 
  19   0.0000       0.535876        14.5819 
  20   0.0000       0.543644        14.7933 
  21   0.0000       0.567666        15.4470 
  22   0.0000       0.598580        16.2882 
  23   0.0000       0.603556        16.4236 
  24   0.0000       0.671323        18.2676 
  25   0.0000       0.779015        21.1981 
  26   0.0000       0.832191        22.6451 
  27   0.0000       0.861316        23.4376 
  28   0.0000       0.989580        26.9278 
  29   0.0000       1.013913        27.5900 
  30   0.0000       1.109772        30.1984 
  31   0.0000       1.382650        37.6238 
  32   0.0000       1.512891        41.1679 
  33   0.0000       1.553576        42.2750 
  34   0.0000       1.602816        43.6148 
  35   0.0000       1.613037        43.8930 
  36   0.0000       1.624232        44.1976 
  37   0.0000       1.660404        45.1819 
  38   0.0000       1.688035        45.9338 
  39   0.0000       1.774640        48.2904 
  40   0.0000       1.952101        53.1194 
  41   0.0000       2.030640        55.2565 
  42   0.0000       2.055232        55.9257 
  43   0.0000       2.094218        56.9866 
  44   0.0000       2.114631        57.5420 
  45   0.0000       2.268544        61.7302 
  46   0.0000       2.333516        63.4982 
  47   0.0000       2.345613        63.8274 
  48   0.0000       2.381023        64.7909 
  49   0.0000       2.429578        66.1122 
  50   0.0000       2.497724        67.9665 
  51   0.0000       2.596338        70.6500 
  52   0.0000       2.639977        71.8374 
  53   0.0000       2.707252        73.6681 
  54   0.0000       2.842043        77.3359 
  55   0.0000       2.871315        78.1325 
  56   0.0000       2.888361        78.5963 
  57   0.0000       2.992847        81.4395 
  58   0.0000       3.096107        84.2494 
  59   0.0000       3.173064        86.3434 
  60   0.0000       3.299242        89.7769 
  61   0.0000       3.408347        92.7458 
  62   0.0000       3.441921        93.6594 
  63   0.0000       3.488384        94.9238 
  64   0.0000       3.612611        98.3041 
  65   0.0000       3.645338        99.1947 
  66   0.0000       3.667042        99.7853 
  67   0.0000       4.005594       108.9978 
  68   0.0000       4.223991       114.9406 
  69   0.0000       4.273489       116.2876 
  70   0.0000       4.455805       121.2486 
  71   0.0000       4.564378       124.2030 
  72   0.0000       5.346110       145.4750 
  73   0.0000       5.425386       147.6323 
  74   0.0000       5.554389       151.1426 
  75   0.0000       5.826204       158.5391 
  76   0.0000       5.834145       158.7552 
  77   0.0000       5.985631       162.8773 
  78   0.0000       6.379633       173.5986 
  79   0.0000       6.530941       177.7159 
  80   0.0000       6.744998       183.5407 
  81   0.0000       6.804051       185.1477 
  82   0.0000       7.039405       191.5519 
  83   0.0000       7.215930       196.3554 
  84   0.0000      22.406488       609.7115 
  85   0.0000      43.664283      1188.1655 

                    ********************************
                    * MULLIKEN POPULATION ANALYSIS *
                    ********************************

-----------------------
MULLIKEN ATOMIC CHARGES
-----------------------
   0 C :   -0.150839
   1 O :   -0.477650
   2 H :    0.313012
   3 H :    0.098612
   4 H :    0.118217
   5 H :    0.098648
Sum of atomic charges:   -0.0000000

--------------------------------
MULLIKEN REDUCED ORBITAL CHARGES
--------------------------------
  0 C s       :     3.223049  s :     3.223049
      pz      :     1.047271  p :     2.826122
      px      :     0.702191
      py      :     1.076660
      dz2     :     0.011108  d :     0.094248
      dxz     :     0.032496
      dyz     :     0.002645
      dx2y2   :     0.012739
      dxy     :     0.035261
      f0      :     0.001356  f :     0.007420
      f+1     :     0.000956
      f-1     :     0.000175
      f+2     :     0.001464
      f-2     :     0.000123
      f+3     :     0.001361
      f-3     :     0.001986
  1 O s       :     3.792771  s :     3.792771
      pz      :     1.759419  p :     4.652616
      px      :     1.313653
      py      :     1.579545
      dz2     :     0.003136  d :     0.030577
      dxz     :     0.006477
      dyz     :     0.005835
      dx2y2   :     0.008938
      dxy     :     0.006192
      f0      :     0.000269  f :     0.001685
      f+1     :     0.000233
      f-1     :     0.000087
      f+2     :     0.000287
      f-2     :     0.000235
      f+3     :     0.000367
      f-3     :     0.000206
  2 H s       :     0.639294  s :     0.639294
      pz      :     0.017007  p :     0.047694
      px      :     0.012720
      py      :     0.017967
  3 H s       :     0.882023  s :     0.882023
      pz      :     0.012072  p :     0.019365
      px      :     0.003007
      py      :     0.004286
  4 H s       :     0.861563  s :     0.861563
      pz      :     0.006297  p :     0.020220
      px      :     0.004194
      py      :     0.009728
  5 H s       :     0.881982  s :     0.881982
      pz      :     0.004932  p :     0.019370
      px      :     0.004979
      py      :     0.009460


                     *******************************
                     * LOEWDIN POPULATION ANALYSIS *
                     *******************************

----------------------
LOEWDIN ATOMIC CHARGES
----------------------
   0 C :   -0.385158
   1 O :   -0.076076
   2 H :    0.165782
   3 H :    0.093400
   4 H :    0.108692
   5 H :    0.093360

-------------------------------
LOEWDIN REDUCED ORBITAL CHARGES
-------------------------------
  0 C s       :     2.862882  s :     2.862882
      pz      :     1.096640  p :     3.052275
      px      :     0.846067
      py      :     1.109568
      dz2     :     0.072414  d :     0.412975
      dxz     :     0.114050
      dyz     :     0.020705
      dx2y2   :     0.082148
      dxy     :     0.123658
      f0      :     0.007823  f :     0.057027
      f+1     :     0.007163
      f-1     :     0.000855
      f+2     :     0.012526
      f-2     :     0.004831
      f+3     :     0.011736
      f-3     :     0.012092
  1 O s       :     3.366250  s :     3.366250
      pz      :     1.699042  p :     4.633612
      px      :     1.381213
      py      :     1.553357
      dz2     :     0.006131  d :     0.071569
      dxz     :     0.017864
      dyz     :     0.008086
      dx2y2   :     0.019341
      dxy     :     0.020147
      f0      :     0.000483  f :     0.004645
      f+1     :     0.000622
      f-1     :     0.000072
      f+2     :     0.001051
      f-2     :     0.000560
      f+3     :     0.000890
      f-3     :     0.000966
  2 H s       :     0.675131  s :     0.675131
      pz      :     0.055756  p :     0.159086
      px      :     0.033905
      py      :     0.069426
  3 H s       :     0.846777  s :     0.846777
      pz      :     0.036180  p :     0.059822
      px      :     0.009713
      py      :     0.013929
  4 H s       :     0.831713  s :     0.831713
      pz      :     0.019211  p :     0.059595
      px      :     0.011611
      py      :     0.028774
  5 H s       :     0.846784  s :     0.846784
      pz      :     0.015616  p :     0.059856
      px      :     0.015212
      py      :     0.029028


                      *****************************
                      * MAYER POPULATION ANALYSIS *
                      *****************************

  NA   - Mulliken gross atomic population
  ZA   - Total nuclear charge
  QA   - Mulliken gross atomic charge
  VA   - Mayer's total valence
  BVA  - Mayer's bonded valence
  FA   - Mayer's free valence

  ATOM       NA         ZA         QA         VA         BVA        FA
  0 C      6.1508     6.0000    -0.1508     3.9350     3.9350    -0.0000
  1 O      8.4776     8.0000    -0.4776     1.8881     1.8881    -0.0000
  2 H      0.6870     1.0000     0.3130     0.9136     0.9136    -0.0000
  3 H      0.9014     1.0000     0.0986     0.9596     0.9596     0.0000
  4 H      0.8818     1.0000     0.1182     0.9598     0.9598     0.0000
  5 H      0.9014     1.0000     0.0986     0.9596     0.9596     0.0000

  Mayer bond orders larger than 0.1
B(  0-C ,  1-O ) :   0.9987 B(  0-C ,  3-H ) :   0.9755 B(  0-C ,  4-H ) :   0.9749 
B(  0-C ,  5-H ) :   0.9755 B(  1-O ,  2-H ) :   0.9002 

-------
TIMINGS
-------

Total SCF time: 0 days 0 hours 0 min 4 sec 

Total time                  ....       4.204 sec
Sum of individual times     ....       3.887 sec  ( 92.5%)

Fock matrix formation       ....       2.546 sec  ( 60.6%)
  XC integration            ....       0.785 sec  ( 30.8% of F)
    Basis function eval.    ....       0.171 sec  ( 21.7% of XC)
    Density eval.           ....       0.108 sec  ( 13.7% of XC)
    XC-Functional eval.     ....       0.270 sec  ( 34.3% of XC)
    XC-Potential eval.      ....       0.101 sec  ( 12.8% of XC)
Diagonalization             ....       0.002 sec  (  0.0%)
Density matrix formation    ....       0.001 sec  (  0.0%)
Population analysis         ....       0.011 sec  (  0.3%)
Initial guess               ....       0.008 sec  (  0.2%)
Orbital Transformation      ....       0.000 sec  (  0.0%)
Orbital Orthonormalization  ....       0.002 sec  (  0.0%)
DIIS solution               ....       0.000 sec  (  0.0%)
SOSCF solution              ....       0.007 sec  (  0.2%)
Grid generation             ....       1.311 sec  ( 31.2%)


-------------------------------------------------------------------------------
                          DFT DISPERSION CORRECTION                            
                                                                               
                              DFTD3 V3.1  Rev 1                                
                              USING zero damping                               
-------------------------------------------------------------------------------
The omegaB97X-D3 functional is recognized. Fit by Chai et al.
Active option DFTDOPT                   ...         3   

molecular C6(AA) [au] = 208.715451 


            DFT-D V3
 parameters
 s6 scaling factor         :     1.0000 
 rs6 scaling factor        :     1.2810 
 s8 scaling factor         :     1.0000 
 rs8 scaling factor        :     1.0940 
 Damping factor alpha6     :    14.0000 
 Damping factor alpha8     :    16.0000 
 ad hoc parameters k1-k3   :    16.0000     1.3333    -4.0000 

 Edisp/kcal,au: -0.150119011790  -0.000239229847 
 E6   /kcal   :  -0.029606233 
 E8   /kcal   :  -0.120512778 
 % E8         :  80.278158632 

-------------------------   ----------------
Dispersion correction           -0.000239230
-------------------------   ----------------


-------------------------   --------------------
FINAL SINGLE POINT ENERGY      -115.738051332922
-------------------------   --------------------

                                *** OPTIMIZATION RUN DONE ***

                            ***************************************
                            *     ORCA property calculations      *
                            ***************************************

                                    ---------------------
                                    Active property flags
                                    ---------------------
   (+) Dipole Moment


------------------------------------------------------------------------------
                       ORCA ELECTRIC PROPERTIES CALCULATION
------------------------------------------------------------------------------

Dipole Moment Calculation                       ... on
Quadrupole Moment Calculation                   ... off
Polarizability Calculation                      ... off
GBWName                                         ... 6_geo_opt.gbw
Electron density file                           ... 6_geo_opt.scfp.tmp
The origin for moment calculation is the CENTER OF MASS  = ( 7.033249, -2.139896  1.369336)

-------------
DIPOLE MOMENT
-------------
                                X             Y             Z
Electronic contribution:      1.75591      -0.02805       0.41990
Nuclear contribution   :     -2.06575       0.47569      -0.81750
                        -----------------------------------------
Total Dipole Moment    :     -0.30985       0.44764      -0.39760
                        -----------------------------------------
Magnitude (a.u.)       :      0.67414
Magnitude (Debye)      :      1.71354



--------------------
Rotational spectrum 
--------------------
 
Rotational constants in cm-1:     4.293441     0.833831     0.804933 
Rotational constants in MHz : 128714.109829 24997.618139 24131.283948 

 Dipole components along the rotational axes: 
x,y,z [a.u.] :    -0.332898     0.586216    -0.000199 
x,y,z [Debye]:    -0.846160     1.490043    -0.000505 

 
------------------------------------------------------------------------------
                      ORCA CHELPG CHARGES GENERATION
------------------------------------------------------------------------------

GBW file                           ... 6_geo_opt.gbw

Reading the GBW file               ... done

Grid spacing                       ...     0.300000
Point Cut-Off                      ...     2.800000
Van-der-Waals Radii                ...        COSMO
Total charge                       ...            0


Number of points X direction       ...           26
Number of points Y direction       ...           24
Number of points Z direction       ...           24
Maximum number of possible points  ...        14976
Final number of points             ...         5948


CHELPG Charges            
--------------------------------
  0   C   :       0.093943
  1   O   :      -0.606963
  2   H   :       0.403874
  3   H   :       0.014288
  4   H   :       0.080996
  5   H   :       0.013862
--------------------------------
Total charge:    -0.000000
--------------------------------

CHELPG charges calculated...

Timings for individual parts in CHELPG calculation:
Grid generation                 ...        0.002 sec (=   0.000 min)
Potential calculation           ...        0.754 sec (=   0.013 min)
Fit to the potential            ...        0.001 sec (=   0.000 min)
------------------------------------------------------------------------------


Timings for individual modules:

Sum of individual times         ...       30.777 sec (=   0.513 min)
GTO integral calculation        ...        5.739 sec (=   0.096 min)  18.6 %
SCF iterations                  ...       17.027 sec (=   0.284 min)  55.3 %
SCF Gradient evaluation         ...        2.406 sec (=   0.040 min)   7.8 %
Geometry relaxation             ...        3.079 sec (=   0.051 min)  10.0 %
CHELPG charge generation        ...        2.525 sec (=   0.042 min)   8.2 %
                             ****ORCA TERMINATED NORMALLY****
TOTAL RUN TIME: 0 days 0 hours 0 minutes 35 seconds 433 msec
