LAMMPS data file via vdw_self_gen.py, on 2021-08-05 13:22:39.160609

11000 atoms
6 atom types
10500 bonds
5 bond types
19500 angles
8 angle types
24000 dihedrals
7 dihedral types

-54.9257871053734519  54.9257871053734448 xlo xhi
-54.9257871053734519  54.9257871053734448 ylo yhi
-54.9257871053734519  54.9257871053734448 zlo zhi

Masses

1  1.007940
2  1.007940
3  12.011000
4  12.011000
5  12.011000
6  15.999400

Atoms

1         0    4   -0.1529710000000000   44.8826454364657508 -30.0881098553631183  19.6522102123589733 0 0 0
2         0    3    0.3122780000000000   43.8267356257176601 -30.9186175915620218  18.9238763140130963 0 0 0
3         0    4   -0.1529710000000000   43.4710048890999161 -32.1552247909754669  19.7433461169248545 0 0 0
4         0    5    0.0781420000000000   42.5730414851974004 -30.0863725616842288  18.6439891902133859 0 0 0
5         0    6   -0.3681440000000000   42.2456506767148596 -29.1496939714938286  19.3809893448945552 0 0 0
6         0    3    0.3122780000000000   41.7405313505641118 -30.4596720006114445  17.4157457461317620 0 0 0
7         0    4   -0.1529710000000000   40.2670033955467090 -30.1153578786100447  17.6283884981188450 0 0 0
8         0    4   -0.1529710000000000   42.2727733533326244 -29.7469987181969202  16.1764995497198143 0 0 0
9         0    1    0.0285690000000000   45.7773029854181104 -30.6857339746372411  19.8565363718794323 0 0 0
10        0    1    0.0285690000000000   44.5081501739326200 -29.7066797427716018  20.6089207487536896 0 0 0
11        0    1    0.0285690000000000   45.1820700226769745 -29.2263762649108827  19.0462775709222036 0 0 0
12        0    2   -0.0327490000000000   44.2499904298561191 -31.2314207586712094  17.9623946502668872 0 0 0
13        0    1    0.0285690000000000   43.0055213244305605 -31.8828873581499614  20.6971613647609942 0 0 0
14        0    1    0.0285690000000000   44.3671589736909695 -32.7468762365955399  19.9618162168617737 0 0 0
15        0    1    0.0285690000000000   42.7686559917529792 -32.7994044653717083  19.2049539114739467 0 0 0
16        0    2   -0.0327490000000000   41.8182822636739431 -31.5431287261704405  17.2702650235202562 0 0 0
17        0    1    0.0285690000000000   40.1261451842669103 -29.0428241767067625  17.8050987623840982 0 0 0
18        0    1    0.0285690000000000   39.8637322108446455 -30.6486230158347155  18.4956802693295224 0 0 0
19        0    1    0.0285690000000000   39.6710701642290502 -30.3913211477377487  16.7520560710093385 0 0 0
20        0    1    0.0285690000000000   42.1646981469423565 -28.6599233935806836  16.2636864941221049 0 0 0
21        0    1    0.0285690000000000   41.7252615527063426 -30.0681759858904876  15.2832467714471321 0 0 0
22        0    1    0.0285690000000000   43.3338203882184345 -29.9617531168161051  16.0159662402985887 0 0 0
23        1    4   -0.1529710000000000   29.2274982590945207 -4.4944852788630936  -16.7526591794099069 0 0 0
24        1    3    0.3122780000000000   29.4012512905525583 -5.6412913155228450  -17.7475484667880998 0 0 0
25        1    4   -0.1529710000000000   28.3372609106373261 -5.5593681971793920  -18.8377253123635029 0 0 0
26        1    5    0.0781420000000000   30.8008724137221570 -5.6214524279823328  -18.3667291511756332 0 0 0
27        1    6   -0.3681440000000000   31.4299357761501348 -4.5658377293299450  -18.4996864557505667 0 0 0
28        1    3    0.3122780000000000   31.3908879941488124 -6.9600847678352871  -18.8150065506211099 0 0 0
29        1    4   -0.1529710000000000   32.3513160682738175 -6.7691960740807202  -19.9881191666257365 0 0 0
30        1    4   -0.1529710000000000   32.1091867471962331 -7.6397444388864804  -17.6535309696392666 0 0 0
31        1    1    0.0285690000000000   28.2241769956972526 -4.5064267052339950  -16.3138884624618257 0 0 0
32        1    1    0.0285690000000000   29.3732936030925735 -3.5189822075240911  -17.2303286868904060 0 0 0
33        1    1    0.0285690000000000   29.9545427489437515 -4.5763724997769089  -15.9377389240898584 0 0 0
34        1    2   -0.0327490000000000   29.2846490218285211 -6.5827559020554327  -17.1984712558847228 0 0 0
35        1    1    0.0285690000000000   28.4474793528329144 -4.6485578292236980  -19.4367933568495914 0 0 0
36        1    1    0.0285690000000000   27.3326719302739249 -5.5559668969015163  -18.3999329269924914 0 0 0
37        1    1    0.0285690000000000   28.4014136874214564 -6.4131540109095306  -19.5196797088623057 0 0 0
38        1    2   -0.0327490000000000   30.5659934164165570 -7.5980413408186411  -19.1521247315536378 0 0 0
39        1    1    0.0285690000000000   33.1895506280351782 -6.1161131899476153  -19.7193410719564248 0 0 0
40        1    1    0.0285690000000000   31.8380816494605199 -6.3134105734667072  -20.8413743337213830 0 0 0
41        1    1    0.0285690000000000   32.7658752718161708 -7.7291145668149657  -20.3136154322957694 0 0 0
42        1    1    0.0285690000000000   32.9737508607083996 -7.0540928808563841  -17.3210317649727763 0 0 0
43        1    1    0.0285690000000000   32.4695879268568319 -8.6308449342083371  -17.9512814236641489 0 0 0
44        1    1    0.0285690000000000   31.4458991791823870 -7.7677413790506193  -16.7924981068361738 0 0 0
45        2    4   -0.1529710000000000   28.8814542202682318 -44.4736334805716496 -17.3481541026634787 0 0 0
46        2    3    0.3122780000000000   29.6103805636578805 -43.6861692352430495 -18.4361455291194289 0 0 0
47        2    4   -0.1529710000000000   28.6297897189373387 -43.2570537203986234 -19.5231478063341868 0 0 0
48        2    5    0.0781420000000000   30.3192855936877237 -42.4647516824609355 -17.8459672425363536 0 0 0
49        2    6   -0.3681440000000000   29.8907746801254177 -41.8998452634859433 -16.8335543398336824 0 0 0
50        2    3    0.3122780000000000   31.5795549015468033 -41.9701717566686412 -18.5587922715383371 0 0 0
51        2    4   -0.1529710000000000   31.7566412043367734 -40.4635944226216537 -18.3746212458582256 0 0 0
52        2    4   -0.1529710000000000   32.8083804776394885 -42.7105799376361048 -18.0404301187947738 0 0 0
53        2    1    0.0285690000000000   28.3703675745811985 -45.3445169413202009 -17.7720271210250971 0 0 0
54        2    1    0.0285690000000000   28.1307447026334820 -43.8592392855320057 -16.8382661972036693 0 0 0
55        2    1    0.0285690000000000   29.5874095833967239 -44.8306326385786917 -16.5908081736770008 0 0 0
56        2    2   -0.0327490000000000   30.3707186293591143 -44.3431898263291586 -18.8739210526866579 0 0 0
57        2    1    0.0285690000000000   27.8765441641315377 -42.5642297860882763 -19.1317116256967523 0 0 0
58        2    1    0.0285690000000000   28.1062278756043895 -44.1256465000019418 -19.9382409771124998 0 0 0
59        2    1    0.0285690000000000   29.1458219406845629 -42.7533155004744430 -20.3466076689299520 0 0 0
60        2    2   -0.0327490000000000   31.4632630515658889 -42.1697313907238041 -19.6301187761034868 0 0 0
61        2    1    0.0285690000000000   31.8537659342150725 -40.1965939837430142 -17.3160025008018756 0 0 0
62        2    1    0.0285690000000000   30.8953813815447411 -39.9184594024052046 -18.7749382437209889 0 0 0
63        2    1    0.0285690000000000   32.6541041520434874 -40.1096344339198723 -18.8928135352564794 0 0 0
64        2    1    0.0285690000000000   32.9872969136941236 -42.4946683668354623 -16.9810030673165144 0 0 0
65        2    1    0.0285690000000000   33.7020170445683007 -42.4112452578034791 -18.5995696100643428 0 0 0
66        2    1    0.0285690000000000   32.6952514241197179 -43.7943432124369068 -18.1422642331315629 0 0 0
67        3    4   -0.1529710000000000   4.8898160227190886   7.7301267500916211   32.1094067889724215 0 0 0
68        3    3    0.3122780000000000   5.8561323018428348   6.6134303278100885   31.7164935097821363 0 0 0
69        3    4   -0.1529710000000000   5.7424468756831724   5.4490071899225452   32.6955067172165599 0 0 0
70        3    5    0.0781420000000000   5.5884803126817841   6.1356744107250138   30.2872177189746630 0 0 0
71        3    6   -0.3681440000000000   4.4597020111741319   6.2022721201612896   29.7880734092371497 0 0 0
72        3    3    0.3122780000000000   6.7734327511413479   5.5720109937602995   29.5003385514626579 0 0 0
73        3    4   -0.1529710000000000   6.3091564561679894   4.5291198064983851   28.4845239609702503 0 0 0
74        3    4   -0.1529710000000000   7.5245136531832291   6.6957697276319523   28.7932602821493226 0 0 0
75        3    1    0.0285690000000000   5.0787177994465438   8.0678840341253011   33.1338832567994714 0 0 0
76        3    1    0.0285690000000000   3.8461304925072093   7.4008582039533790   32.0516709989426829 0 0 0
77        3    1    0.0285690000000000   5.0029156311048304   8.5914492173512098   31.4425287523893751 0 0 0
78        3    2   -0.0327490000000000   6.8731557984440670   7.0203796903376743   31.7551311080432832 0 0 0
79        3    1    0.0285690000000000   4.7491907231734505   4.9880884139000301   32.6554785932100486 0 0 0
80        3    1    0.0285690000000000   5.9162694903157300   5.7877019608776008   33.7230982273848809 0 0 0
81        3    1    0.0285690000000000   6.4776665110295086   4.6695095355587899   32.4719824723512716 0 0 0
82        3    2   -0.0327490000000000   7.4471821952421013   5.0782468045121947   30.2098080245833032 0 0 0
83        3    1    0.0285690000000000   5.6092978509740608   4.9586792049283650   27.7585261986758454 0 0 0
84        3    1    0.0285690000000000   5.7985188931662872   3.6991890736769633   28.9841824737269000 0 0 0
85        3    1    0.0285690000000000   7.1592752165485427   4.1201376616524108   27.9283923548317290 0 0 0
86        3    1    0.0285690000000000   6.8969954068201798   7.1817885787170237   28.0376009000389672 0 0 0
87        3    1    0.0285690000000000   8.4154310877587690   6.3050043203090400   28.2888863571600311 0 0 0
88        3    1    0.0285690000000000   7.8486076653435184   7.4667071199671966   29.4991850754390725 0 0 0
89        4    4   -0.1529710000000000   6.5955763055629806   32.9042703745009888 -19.1507079927183135 0 0 0
90        4    3    0.3122780000000000   6.4515734358635344   31.7833412356594103 -18.1221459211765854 0 0 0
91        4    4   -0.1529710000000000   5.7040740424191911   32.2890979277144936 -16.8922161240979669 0 0 0
92        4    5    0.0781420000000000   5.7292096866547961   30.5763172818411491 -18.7254711887877008 0 0 0
93        4    6   -0.3681440000000000   4.9054063090854072   30.7100479922274907 -19.6371645818781779 0 0 0
94        4    3    0.3122780000000000   6.0668504710159858   29.1971818880623637 -18.1553906509138088 0 0 0
95        4    4   -0.1529710000000000   4.8728152491517278   28.2505186946523352 -18.2701184853320981 0 0 0
96        4    4   -0.1529710000000000   7.2760128232414107   28.6067448197531249 -18.8738795976813094 0 0 0
97        4    1    0.0285690000000000   7.1080227058419574   33.7693714985013145 -18.7167556573236666 0 0 0
98        4    1    0.0285690000000000   5.6206314397176813   33.2421744926028779 -19.5199423335259894 0 0 0
99        4    1    0.0285690000000000   7.1771494505242828   32.5641155712504897 -20.0141091836981779 0 0 0
100       4    2   -0.0327490000000000   7.4586795870226368   31.4659916251890053 -17.8280985349753571 0 0 0
101       4    1    0.0285690000000000   4.6762611679210249   32.5775680008456305 -17.1391814358798555 0 0 0
102       4    1    0.0285690000000000   6.2069333394218784   33.1641095621038531 -16.4651799100584242 0 0 0
103       4    1    0.0285690000000000   5.6537109334624471   31.5203747148141709 -16.1146199740275016 0 0 0
104       4    2   -0.0327490000000000   6.3027181607261626   29.3185794673364661 -17.0920386950698493 0 0 0
105       4    1    0.0285690000000000   4.5717021683990691   28.1078236908620589 -19.3143239935501576 0 0 0
106       4    1    0.0285690000000000   4.0078160172835959   28.6473220955264409 -17.7283456904057637 0 0 0
107       4    1    0.0285690000000000   5.1130589755410600   27.2666330817649509 -17.8535819112071223 0 0 0
108       4    1    0.0285690000000000   7.0609816016917701   28.4230905215667278 -19.9326747843989978 0 0 0
109       4    1    0.0285690000000000   7.5650734042219945   27.6523292868436243 -18.4196114983564208 0 0 0
110       4    1    0.0285690000000000   8.1387778716977870   29.2781719087230528 -18.8235472943420845 0 0 0
111       5    4   -0.1529710000000000   31.4646438032374718  18.4962590827530313 -28.1215392038578571 0 0 0
112       5    3    0.3122780000000000   31.3125245462398780  18.8507699069131540 -29.6001671837783711 0 0 0
113       5    4   -0.1529710000000000   32.6840546144039479  19.0384418128255284 -30.2412264699236459 0 0 0
114       5    5    0.0781420000000000   30.5204873392715257  17.7720724040500073 -30.3430038750467652 0 0 0
115       5    6   -0.3681440000000000   30.5359814039727411  16.5931899982201365 -29.9719015199157255 0 0 0
116       5    3    0.3122780000000000   29.7086534025198965  18.2104455824188207 -31.5635620133282515 0 0 0
117       5    4   -0.1529710000000000   29.5888764185167119  17.0738430554839056 -32.5778804833702154 0 0 0
118       5    4   -0.1529710000000000   28.3220289894367703  18.6825534541844718 -31.1377653637890717 0 0 0
119       5    1    0.0285690000000000   32.0357507374115826  19.2660628601581116 -27.5918648592544109 0 0 0
120       5    1    0.0285690000000000   31.9836096567805832  17.5405733247928737 -27.9860037554010255 0 0 0
121       5    1    0.0285690000000000   30.4839058369699352  18.4117462351694634 -27.6415341519940867 0 0 0
122       5    2   -0.0327490000000000   30.7517850582328194  19.7903993491251526 -29.6642388484823947 0 0 0
123       5    1    0.0285690000000000   33.2602353496830787  18.1064744035342926 -30.2335673830210574 0 0 0
124       5    1    0.0285690000000000   33.2630448207706308  19.7977121734771373 -29.7034982659325841 0 0 0
125       5    1    0.0285690000000000   32.5941381530952583  19.3627487100846558 -31.2827962754459996 0 0 0
126       5    2   -0.0327490000000000   30.2403513846650611  19.0395437384115489 -32.0441676987005906 0 0 0
127       5    1    0.0285690000000000   29.0850489705593773  16.2012825257157758 -32.1463806346152481 0 0 0
128       5    1    0.0285690000000000   30.5780218313735794  16.7493675322185211 -32.9177353912733963 0 0 0
129       5    1    0.0285690000000000   29.0152490908742209  17.3918665006040030 -33.4548431064253080 0 0 0
130       5    1    0.0285690000000000   27.7396556702007722  17.8652516112160988 -30.6974545764779236 0 0 0
131       5    1    0.0285690000000000   27.7645157433766485  19.0653743862306477 -32.0000017869670828 0 0 0
132       5    1    0.0285690000000000   28.3826129107495255  19.4831267918179449 -30.3940428853411184 0 0 0
133       6    4   -0.1529710000000000  -41.0647544011241266 -19.0043856513352942  16.4539794435716615 0 0 0
134       6    3    0.3122780000000000  -41.9238667685220889 -19.1850753714186979  17.7047536282429228 0 0 0
135       6    4   -0.1529710000000000  -41.1311180423211766 -19.9084303492533401  18.7889950744386880 0 0 0
136       6    5    0.0781420000000000  -42.4265150158553723 -17.8355323293400687  18.2232089366639336 0 0 0
137       6    6   -0.3681440000000000  -41.7820477261983143 -16.7966558971804005  18.0412242613055938 0 0 0
138       6    3    0.3122780000000000  -43.7584573350514958 -17.8229429085590390  18.9760560115196739 0 0 0
139       6    4   -0.1529710000000000  -43.7939818113926691 -16.6947977460732453  20.0061435285494653 0 0 0
140       6    4   -0.1529710000000000  -44.9201749521015046 -17.6778858166431405  17.9981569826723415 0 0 0
141       6    1    0.0285690000000000  -40.7014007079897127 -19.9699650642875035  16.0866289457246836 0 0 0
142       6    1    0.0285690000000000  -40.1927243013984921 -18.3703186208163558  16.6503291033151655 0 0 0
143       6    1    0.0285690000000000  -41.6434196486545787 -18.5330727115416245  15.6524778067775827 0 0 0
144       6    2   -0.0327490000000000  -42.7951151830682051 -19.7903868625674093  17.4291422367254576 0 0 0
145       6    1    0.0285690000000000  -40.2728121544382702 -19.3137995442029009  19.1211567245589364 0 0 0
146       6    1    0.0285690000000000  -40.7537662283905178 -20.8682753917736257  18.4186224730323644 0 0 0
147       6    1    0.0285690000000000  -41.7527699055398926 -20.1104034539647962  19.6669947437608990 0 0 0
148       6    2   -0.0327490000000000  -43.8540648947589915 -18.7744336023846685  19.5114184825521448 0 0 0
149       6    1    0.0285690000000000  -43.6772225973778703 -15.7135182360262995  19.5319559032315269 0 0 0
150       6    1    0.0285690000000000  -42.9847039529182737 -16.8075633796524819  20.7352166600435375 0 0 0
151       6    1    0.0285690000000000  -44.7442954534094213 -16.6926429645846284  20.5503401875006020 0 0 0
152       6    1    0.0285690000000000  -44.8870245872807061 -16.7133608252332309  17.4789198796471652 0 0 0
153       6    1    0.0285690000000000  -45.8780086395201394 -17.7418489477944519  18.5266339264450615 0 0 0
154       6    1    0.0285690000000000  -44.9030017179672143 -18.4638097647721615  17.2367504991258365 0 0 0
155       7    4   -0.1529710000000000  -20.8499242809269134 -18.7553159647711567 -30.4379018774240002 0 0 0
156       7    3    0.3122780000000000  -19.3957706719811966 -18.8545342114326644 -29.9788246323773997 0 0 0
157       7    4   -0.1529710000000000  -19.0545370594500980 -20.2965050602042894 -29.6161234144695591 0 0 0
158       7    5    0.0781420000000000  -18.4438730587668296 -18.3378061713711560 -31.0603054026044880 0 0 0
159       7    6   -0.3681440000000000  -18.7362841142551915 -18.4049259778737486 -32.2593514638561913 0 0 0
160       7    3    0.3122780000000000  -17.1155515603916228 -17.7348730862419544 -30.5987414903335875 0 0 0
161       7    4   -0.1529710000000000  -16.0288323229166849 -17.9324010298761145 -31.6547139327702105 0 0 0
162       7    4   -0.1529710000000000  -17.2844481254146487 -16.2505287856117633 -30.2903394154214674 0 0 0
163       7    1    0.0285690000000000  -21.5299766708487574 -19.1298935079842067 -29.6655442475775466 0 0 0
164       7    1    0.0285690000000000  -21.0264658306426426 -19.3356506592447666 -31.3506315233291772 0 0 0
165       7    1    0.0285690000000000  -21.1181559363928599 -17.7148434564996187 -30.6497106785564100 0 0 0
166       7    2   -0.0327490000000000  -19.2797658624198398 -18.2213606254321938 -29.0916541107470188 0 0 0
167       7    1    0.0285690000000000  -19.1189401698331203 -20.9548062115254723 -30.4896782134617013 0 0 0
168       7    1    0.0285690000000000  -19.7433821139359367 -20.6783262625059905 -28.8541668399961218 0 0 0
169       7    1    0.0285690000000000  -18.0383049181625346 -20.3754038194103373 -29.2171562300923959 0 0 0
170       7    2   -0.0327490000000000  -16.8035176095050609 -18.2593588608569597 -29.6884460399326677 0 0 0
171       7    1    0.0285690000000000  -16.2957014178754775 -17.4491171827745752 -32.6016108142660812 0 0 0
172       7    1    0.0285690000000000  -15.8738036550875474 -18.9969213990637513 -31.8595476876440991 0 0 0
173       7    1    0.0285690000000000  -15.0765643941415703 -17.5083122917120519 -31.3191767531779099 0 0 0
174       7    1    0.0285690000000000  -17.5476944352496353 -15.6831252486490325 -31.1902111737851016 0 0 0
175       7    1    0.0285690000000000  -16.3538425601333053 -15.8325393217780022 -29.8902361475125780 0 0 0
176       7    1    0.0285690000000000  -18.0737686710738963 -16.0825563045855375 -29.5511036430064173 0 0 0
177       8    4   -0.1529710000000000  -16.2296650976341716 -42.9349275762897236 -16.7934624945449293 0 0 0
178       8    3    0.3122780000000000  -17.0283846988628689 -43.0062179675543348 -18.0942789975638689 0 0 0
179       8    4   -0.1529710000000000  -16.7179851611919474 -44.3042775952914596 -18.8331739903420363 0 0 0
180       8    5    0.0781420000000000  -18.5302983731580113 -42.8948377496627131 -17.8212087651552942 0 0 0
181       8    6   -0.3681440000000000  -19.0200115454452927 -43.2818659232980423 -16.7543859342687327 0 0 0
182       8    3    0.3122780000000000  -19.4020543156144001 -42.2855658474028218 -18.9211346168419325 0 0 0
183       8    4   -0.1529710000000000  -20.8178285920796746 -42.8589276777124013 -18.8776237165606240 0 0 0
184       8    4   -0.1529710000000000  -19.4460948246864724 -40.7669453878411829 -18.7841374429240417 0 0 0
185       8    1    0.0285690000000000  -15.1555256223340002 -43.0197509182532514 -16.9892820174735171 0 0 0
186       8    1    0.0285690000000000  -16.5092981840452637 -43.7383263452835749 -16.1025309220550312 0 0 0
187       8    1    0.0285690000000000  -16.4066968093091212 -41.9823042194967826 -16.2830090266813023 0 0 0
188       8    2   -0.0327490000000000  -16.7311936806492128 -42.1551957160148589 -18.7178782810607274 0 0 0
189       8    1    0.0285690000000000  -17.0399158402687725 -45.1792301204296010 -18.2574788714435563 0 0 0
190       8    1    0.0285690000000000  -15.6417446982875816 -44.3983518868494826 -19.0168292507493177 0 0 0
191       8    1    0.0285690000000000  -17.2264522557089279 -44.3407589504427904 -19.8018111349528461 0 0 0
192       8    2   -0.0327490000000000  -18.9592713122264449 -42.5479268053461226 -19.8887080047344504 0 0 0
193       8    1    0.0285690000000000  -21.3070523089821862 -42.6498043472402770 -17.9193316512838976 0 0 0
194       8    1    0.0285690000000000  -20.8020043382424902 -43.9458617238755735 -19.0099805965549891 0 0 0
195       8    1    0.0285690000000000  -21.4379977663393539 -42.4285913788234197 -19.6710035310609612 0 0 0
196       8    1    0.0285690000000000  -19.9298816077801142 -40.4642489060034691 -17.8485415027410035 0 0 0
197       8    1    0.0285690000000000  -20.0092158101027593 -40.3222509899446635 -19.6123681977642974 0 0 0
198       8    1    0.0285690000000000  -18.4405325964562294 -40.3350779922224802 -18.7909464926479863 0 0 0
199       9    4   -0.1529710000000000  -16.2484644262991971  6.0566365423638047  -32.0691485546038422 0 0 0
200       9    3    0.3122780000000000  -17.5935697657527150  5.5926132894450769  -31.5118937275055266 0 0 0
201       9    4   -0.1529710000000000  -17.6042976372141489  4.0751617219452729  -31.3553749312978240 0 0 0
202       9    5    0.0781420000000000  -17.8933370867485095  6.2684328282382067  -30.1716978112125247 0 0 0
203       9    6   -0.3681440000000000  -16.9840491239933726  6.6285328928819691  -29.4158908947105928 0 0 0
204       9    3    0.3122780000000000  -19.3633016872748200  6.4806627835070501  -29.8040429831657612 0 0 0
205       9    4   -0.1529710000000000  -19.5568130060753198  6.4586837250318307  -28.2884163539180911 0 0 0
206       9    4   -0.1529710000000000  -19.8697081021981852  7.7997155337618853  -30.3789936569366823 0 0 0
207       9    1    0.0285690000000000  -16.0324530840665460  5.5688317301514552  -33.0255488173125542 0 0 0
208       9    1    0.0285690000000000  -15.4255512925143670  5.8280437278606438  -31.3824244598598554 0 0 0
209       9    1    0.0285690000000000  -16.2513013265045316  7.1392979226584670  -32.2341652728953463 0 0 0
210       9    2   -0.0327490000000000  -18.3722289619076982  5.8881583812103466  -32.2244808416724311 0 0 0
211       9    1    0.0285690000000000  -16.8651033001867638  3.7437619359879952  -30.6175591905643252 0 0 0
212       9    1    0.0285690000000000  -17.3734756066890697  3.5852185587268601  -32.3080289335671864 0 0 0
213       9    1    0.0285690000000000  -18.5844893500177015  3.7173355260328815  -31.0247509559570993 0 0 0
214       9    2   -0.0327490000000000  -19.9423149035271123  5.6544613982366014  -30.2320888775303196 0 0 0
215       9    1    0.0285690000000000  -18.9795003896155308  7.2507878223843019  -27.7978275885210664 0 0 0
216       9    1    0.0285690000000000  -19.2288375119844481  5.5022777472362359  -27.8678048320684262 0 0 0
217       9    1    0.0285690000000000  -20.6106286299216030  6.6017367449458453  -28.0271518723463728 0 0 0
218       9    1    0.0285690000000000  -19.3476050478328681  8.6552162249266900  -29.9356635959900395 0 0 0
219       9    1    0.0285690000000000  -20.9405545471909704  7.9201135229509010  -30.1799540868869869 0 0 0
220       9    1    0.0285690000000000  -19.7215206518898611  7.8473545859840499  -31.4622674938193470 0 0 0
221       10   4   -0.1529710000000000  -8.1480551077337182   31.9055164676198046  41.9814508239260462 0 0 0
222       10   3    0.3122780000000000  -6.7708125682690792   31.2578829396302922  41.8438546876690154 0 0 0
223       10   4   -0.1529710000000000  -5.7823763063513391   32.2456899864345843  41.2318877972983984 0 0 0
224       10   5    0.0781420000000000  -6.2601328059513532   30.7642702540576565  43.1996829536381526 0 0 0
225       10   6   -0.3681440000000000  -6.6000224770469647   31.3138365035389050  44.2533302853927708 0 0 0
226       10   3    0.3122780000000000  -5.3118656633709005   29.5635217517652293  43.1995652897683229 0 0 0
227       10   4   -0.1529710000000000  -4.3561729292983742   29.6210644120468416  44.3905287774910633 0 0 0
228       10   4   -0.1529710000000000  -6.1045450593434456   28.2604733463072613  43.2248658932010486 0 0 0
229       10   1    0.0285690000000000  -8.5104682362019979   32.2629024029854392  41.0117870085670191 0 0 0
230       10   1    0.0285690000000000  -8.1265608671232048   32.7599764678898211  42.6673566399526720 0 0 0
231       10   1    0.0285690000000000  -8.8761843058122061   31.1861477142065553  42.3709770710754086 0 0 0
232       10   2   -0.0327490000000000  -6.8722688005499926   30.3905334945442931  41.1813978865564110 0 0 0
233       10   1    0.0285690000000000  -5.6225221648869734   33.1094581402276376  41.8868361794245274 0 0 0
234       10   1    0.0285690000000000  -6.1502743909953024   32.6161059184125719  40.2683963351399612 0 0 0
235       10   1    0.0285690000000000  -4.8083442436657959   31.7769837571065921  41.0595404594898739 0 0 0
236       10   2   -0.0327490000000000  -4.7136821557229718   29.6042751657165333  42.2821755297811492 0 0 0
237       10   1    0.0285690000000000  -4.8990409268639352   29.6087867776461486  45.3426525571608536 0 0 0
238       10   1    0.0285690000000000  -3.7561067929357264   30.5367237534403735  44.3643950079665501 0 0 0
239       10   1    0.0285690000000000  -3.6722480539236324   28.7658122907903717  44.3841070308486607 0 0 0
240       10   1    0.0285690000000000  -6.6778990954355955   28.1597991841460313  44.1533832259794892 0 0 0
241       10   1    0.0285690000000000  -5.4311075672907725   27.3991531251332496  43.1511505223848459 0 0 0
242       10   1    0.0285690000000000  -6.8123446276952704   28.2062618786957948  42.3919240625667726 0 0 0
243       11   4   -0.1529710000000000  -41.8977722884716357  31.2238286247547947 -32.8561641931831758 0 0 0
244       11   3    0.3122780000000000  -41.7696563543790589  30.8557476173556076 -31.3785777912345090 0 0 0
245       11   4   -0.1529710000000000  -40.8346678156380349  31.8317818230297078 -30.6711697461310742 0 0 0
246       11   5    0.0781420000000000  -43.1400810218339217  30.8420984615680744 -30.6970592506374693 0 0 0
247       11   6   -0.3681440000000000  -44.0620660698185063  31.5637462406125131 -31.0931511655929320 0 0 0
248       11   3    0.3122780000000000  -43.3239519798567514  29.8998915154881182 -29.5056545776340258 0 0 0
249       11   4   -0.1529710000000000  -44.3546864715678808  30.4547155022829621 -28.5234068797115015 0 0 0
250       11   4   -0.1529710000000000  -43.7470865300732470  28.5146317233633297 -29.9841191562973641 0 0 0
251       11   1    0.0285690000000000  -40.9163166493943677  31.2382831916207415 -33.3418099399164376 0 0 0
252       11   1    0.0285690000000000  -42.3524707797359667  32.2120894651165059 -32.9889063355100092 0 0 0
253       11   1    0.0285690000000000  -42.5254261073533044  30.4968932040763612 -33.3824814050491199 0 0 0
254       11   2   -0.0327490000000000  -41.3494046572117568  29.8451370743906743 -31.3194822603027880 0 0 0
255       11   1    0.0285690000000000  -41.2421524357391291  32.8489145160619458 -30.6730465641999110 0 0 0
256       11   1    0.0285690000000000  -39.8566451810641880  31.8590242239654486 -31.1647306226726712 0 0 0
257       11   1    0.0285690000000000  -40.6742298877535333  31.5420506763432584 -29.6278849684524737 0 0 0
258       11   2   -0.0327490000000000  -42.3637989057000723  29.8234113563111300 -28.9828303425992182 0 0 0
259       11   1    0.0285690000000000  -45.3354831611832552  30.5782579115838899 -28.9968741136819688 0 0 0
260       11   1    0.0285690000000000  -44.0445835516305308  31.4347204972759009 -28.1457552409818135 0 0 0
261       11   1    0.0285690000000000  -44.4786075765869811  29.7837060695263141 -27.6668786748154645 0 0 0
262       11   1    0.0285690000000000  -44.7296137139919665  28.5424004304890069 -30.4687672829473399 0 0 0
263       11   1    0.0285690000000000  -43.8086874125006531  27.8184331358773669 -29.1401183310212701 0 0 0
264       11   1    0.0285690000000000  -43.0338574737942707  28.1054124712483286 -30.7063068897696532 0 0 0
265       12   4   -0.1529710000000000  -20.3415373869836813 -19.0421366259333986 -4.6911937317221790  0 0 0
266       12   3    0.3122780000000000  -19.6146980710453498 -18.4239626915592858 -5.8848119669493180  0 0 0
267       12   4   -0.1529710000000000  -20.2632075823458671 -17.0972730726308377 -6.2676990903685628  0 0 0
268       12   5    0.0781420000000000  -18.1293284601484821 -18.2212505493880350 -5.5761009431091626  0 0 0
269       12   6   -0.3681440000000000  -17.7337954192443519 -18.0248008746497739 -4.4216825225837635  0 0 0
270       12   3    0.3122780000000000  -17.1529650074307227 -18.2711459005849441 -6.7530599124135229  0 0 0
271       12   4   -0.1529710000000000  -15.9314396022201024 -17.3920789787791605 -6.4881621581535791  0 0 0