
                                 *****************
                                 * O   R   C   A *
                                 *****************

           --- An Ab Initio, DFT and Semiempirical electronic structure package ---

                  #######################################################
                  #                        -***-                        #
                  #          Department of theory and spectroscopy      #
                  #               Directorship: Frank Neese             #
                  #        Max Planck Institute fuer Kohlenforschung    #
                  #                Kaiser Wilhelm Platz 1               #
                  #                 D-45470 Muelheim/Ruhr               #
                  #                      Germany                        #
                  #                                                     #
                  #                  All rights reserved                #
                  #                        -***-                        #
                  #######################################################


                         Program Version 4.1.2  - RELEASE  -


 With contributions from (in alphabetic order):
   Daniel Aravena         : Magnetic Properties
   Michael Atanasov       : Ab Initio Ligand Field Theory
   Alexander A. Auer      : GIAO ZORA
   Ute Becker             : Parallelization
   Giovanni Bistoni       : ED, Open-shell LED
   Martin Brehm           : Molecular dynamics
   Dmytro Bykov           : SCF Hessian
   Vijay G. Chilkuri      : MRCI spin determinant printing
   Dipayan Datta          : RHF DLPNO-CCSD density
   Achintya Kumar Dutta   : EOM-CC, STEOM-CC
   Dmitry Ganyushin       : Spin-Orbit,Spin-Spin,Magnetic field MRCI
   Miquel Garcia          : C-PCM Hessian
   Yang Guo               : DLPNO-NEVPT2, CIM, IAO-localization
   Andreas Hansen         : Spin unrestricted coupled pair/coupled cluster methods
   Benjamin Helmich-Paris : CASSCF linear response (MC-RPA)
   Lee Huntington         : MR-EOM, pCC
   Robert Izsak           : Overlap fitted RIJCOSX, COSX-SCS-MP3, EOM
   Christian Kollmar      : KDIIS, OOCD, Brueckner-CCSD(T), CCSD density
   Simone Kossmann        : Meta GGA functionals, TD-DFT gradient, OOMP2, MP2 Hessian
   Martin Krupicka        : AUTO-CI
   Lucas Lang             : DCDCAS
   Dagmar Lenk            : GEPOL surface, SMD
   Dimitrios Liakos       : Extrapolation schemes; parallel MDCI
   Dimitrios Manganas     : ROCIS; embedding schemes
   Dimitrios Pantazis     : SARC Basis sets
   Taras Petrenko         : DFT Hessian,TD-DFT gradient, ASA, ECA, R-Raman, ABS, FL, XAS/XES, NRVS
   Peter Pinski           : DLPNO-MP2, DLPNO-MP2 Gradient
   Christoph Reimann      : Effective Core Potentials
   Marius Retegan         : Local ZFS, SOC
   Christoph Riplinger    : Optimizer, TS searches, QM/MM, DLPNO-CCSD(T), (RO)-DLPNO pert. Triples
   Tobias Risthaus        : Range-separated hybrids, TD-DFT gradient, RPA, STAB
   Michael Roemelt        : Restricted open shell CIS
   Masaaki Saitow         : Open-shell DLPNO
   Barbara Sandhoefer     : DKH picture change effects
   Avijit Sen             : IP-ROCIS
   Kantharuban Sivalingam : CASSCF convergence, NEVPT2, FIC-MRCI
   Bernardo de Souza      : ESD, SOC TD-DFT
   Georgi Stoychev        : AutoAux, RI-MP2 NMR
   Willem Van den Heuvel  : Paramagnetic NMR
   Boris Wezisla          : Elementary symmetry handling
   Frank Wennmohs         : Technical directorship


 We gratefully acknowledge several colleagues who have allowed us to
 interface, adapt or use parts of their codes:
   Stefan Grimme, W. Hujo, H. Kruse,             : VdW corrections, initial TS optimization,
                  C. Bannwarth                     DFT functionals, gCP, sTDA/sTD-DF
   Ed Valeev                                     : LibInt (2-el integral package), F12 methods
   Garnet Chan, S. Sharma, J. Yang, R. Olivares  : DMRG
   Ulf Ekstrom                                   : XCFun DFT Library
   Mihaly Kallay                                 : mrcc  (arbitrary order and MRCC methods)
   Andreas Klamt, Michael Diedenhofen            : otool_cosmo (COSMO solvation model)
   Jiri Pittner, Ondrej Demel                    : Mk-CCSD
   Frank Weinhold                                : gennbo (NPA and NBO analysis)
   Christopher J. Cramer and Donald G. Truhlar   : smd solvation model
   Lars Goerigk                                  : TD-DFT with DH, B97 family of functionals
   V. Asgeirsson, H. Jonsson                     : NEB implementation
   FAccTs GmbH                                   : IRC, NEB, NEB-TS, Multilevel


 Your calculation uses the libint2 library for the computation of 2-el integrals
 For citations please refer to: http://libint.valeyev.net

 This ORCA versions uses:
   CBLAS   interface :  Fast vector & matrix operations
   LAPACKE interface :  Fast linear algebra routines
   SCALAPACK package :  Parallel linear algebra routines


Your calculation utilizes the atom-pairwise dispersion correction
with the zero-damping scheme (D30)
Cite in your paper:
S.Grimme, J.Antony, S.Ehrlich and H.Krieg, J.Chem.Phys., 132, (2010), 154104 
   

XCFun DFT library Copyright 2009-2010 Ulf Ekstrom and contributors.
See http://admol.org/xcfun for more information. This is free soft-
ware; see the source code for copying conditions. There is ABSOLUTELY
NO WARRANTY; not even for MERCHANTABILITY or FITNESS FOR A PARTICULAR
PURPOSE. For details see the documentation. Scientific users of this 
library should cite U. Ekstrom, L. Visscher, R. Bast, A. J. Thorvald-
sen and K. Ruud; J.Chem.Theor.Comp. 2010, DOI: 10.1021/ct100117s
XCFun Version 0.99 
----- Orbital basis set information -----
Your calculation utilizes the basis: def2-TZVP
   F. Weigend and R. Ahlrichs, Phys. Chem. Chem. Phys. 7, 3297 (2005).

================================================================================
                                        WARNINGS
                       Please study these warnings very carefully!
================================================================================


INFO   : the flag for use of LIBINT has been found!

================================================================================
                                       INPUT FILE
================================================================================
NAME = 17.in
|  1> #Run DFT-D3 single point of the dimer
|  2> ! wB97X-D3 def2-TZVP TIGHTSCF  CHELPG PAL8
|  3> 
|  4> %base "17_charges"
|  5> 
|  6> %scf
|  7> MaxIter 1000
|  8> end
|  9> %output
| 10>   Print[ P_Mayer ] 1
| 11>   Print[ P_NatPop ] 1
| 12>   Print[ P_Hirshfeld ] 1
| 13>   Print[ P_Mulliken ] 1
| 14>   Print [ P_Loewdin ] 1
| 15> end
| 16> 
| 17> * xyz 0 1
| 18>   C                      -1.804335            6.645059             1.523067            
| 19>   O                      -2.370496            5.559634             2.191601            
| 20>   H                      -3.314504            5.702586             2.088402            
| 21>   H                      -2.219584            6.543093             0.540295            
| 22>   H                      -2.086437            7.610948             2.029899            
| 23>   H                      -0.770762            6.590160             1.422351            
| 24> *
| 25> 
| 26>                          ****END OF INPUT****
================================================================================

                       ****************************
                       * Single Point Calculation *
                       ****************************

---------------------------------
CARTESIAN COORDINATES (ANGSTROEM)
---------------------------------
  C     -1.804335    6.645059    1.523067
  O     -2.370496    5.559634    2.191601
  H     -3.314504    5.702586    2.088402
  H     -2.219584    6.543093    0.540295
  H     -2.086437    7.610948    2.029899
  H     -0.770762    6.590160    1.422351

----------------------------
CARTESIAN COORDINATES (A.U.)
----------------------------
  NO LB      ZA    FRAG     MASS         X           Y           Z
   0 C     6.0000    0    12.011   -3.409699   12.557342    2.878180
   1 O     8.0000    0    15.999   -4.479588   10.506186    4.141526
   2 H     1.0000    0     1.008   -6.263505   10.776326    3.946508
   3 H     1.0000    0     1.008   -4.194406   12.364654    1.021010
   4 H     1.0000    0     1.008   -3.942795   14.382607    3.835953
   5 H     1.0000    0     1.008   -1.456529   12.453598    2.687854

--------------------------------
INTERNAL COORDINATES (ANGSTROEM)
--------------------------------
 C      0   0   0     0.000000000000     0.00000000     0.00000000
 O      1   0   0     1.394856056266     0.00000000     0.00000000
 H      2   1   0     0.960331407364   103.39441150     0.00000000
 H      1   2   3     1.071760048304   102.01663238   302.65977687
 H      1   2   3     1.126677316249   110.47980596    63.51233712
 H      1   2   3     1.039918631041   114.12655791   187.72330378

---------------------------
INTERNAL COORDINATES (A.U.)
---------------------------
 C      0   0   0     0.000000000000     0.00000000     0.00000000
 O      1   0   0     2.635895942584     0.00000000     0.00000000
 H      2   1   0     1.814763357720   103.39441150     0.00000000
 H      1   2   3     2.025332972573   102.01663238   302.65977687
 H      1   2   3     2.129111569011   110.47980596    63.51233712
 H      1   2   3     1.965161414230   114.12655791   187.72330378

---------------------
BASIS SET INFORMATION
---------------------
There are 3 groups of distinct atoms

 Group   1 Type C   : 11s6p2d1f contracted to 5s3p2d1f pattern {62111/411/11/1}
 Group   2 Type O   : 11s6p2d1f contracted to 5s3p2d1f pattern {62111/411/11/1}
 Group   3 Type H   : 5s1p contracted to 3s1p pattern {311/1}

Atom   0C    basis set group =>   1
Atom   1O    basis set group =>   2
Atom   2H    basis set group =>   3
Atom   3H    basis set group =>   3
Atom   4H    basis set group =>   3
Atom   5H    basis set group =>   3


           ************************************************************
           *        Program running with 8 parallel MPI-processes     *
           *              working on a common directory               *
           ************************************************************
------------------------------------------------------------------------------
                           ORCA GTO INTEGRAL CALCULATION
------------------------------------------------------------------------------

                         BASIS SET STATISTICS AND STARTUP INFO

 # of primitive gaussian shells          ...   64
 # of primitive gaussian functions       ...  124
 # of contracted shells                  ...   38
 # of contracted basis functions         ...   86
 Highest angular momentum                ...    3
 Maximum contraction depth               ...    6
 Integral package used                   ... LIBINT
 Integral threshhold            Thresh   ...  2.500e-11
 Primitive cut-off              TCut     ...  2.500e-12


------------------------------ INTEGRAL EVALUATION ----------------------------


 * One electron integrals 
 Pre-screening matrix                    ... done
 Shell pair data                         ... done (   0.000 sec)



           ************************************************************
           *        Program running with 8 parallel MPI-processes     *
           *              working on a common directory               *
           ************************************************************
-------------------------------------------------------------------------------
                                 ORCA SCF
-------------------------------------------------------------------------------

------------
SCF SETTINGS
------------
Hamiltonian:
 Density Functional     Method          .... DFT(GTOs)
 Exchange Functional    Exchange        .... WB97X-D3
 Correlation Functional Correlation     .... WB97X-D3
 Gradients option       PostSCFGGA      .... off
 Hybrid DFT is turned on
   Fraction HF Exchange ScalHFX         ....  0.195728
   Scaling of DF-GGA-X  ScalDFX         ....  0.000000
   Scaling of DF-GGA-C  ScalDFC         ....  1.000000
   Scaling of DF-LDA-C  ScalLDAC        ....  1.000000
   Perturbative correction              ....  0.000000
   Density functional embedding theory  .... OFF
 Long-range corrected/Screened/Range-Separated Hybrid DFT is turned on
   Amount of maximum screened exact exchange              ....  0.804272
   Range separation parameter mu (erf(mu*r12)/r12)        ....  0.250000


General Settings:
 Integral files         IntName         .... 17_charges
 Hartree-Fock type      HFTyp           .... RHF
 Total Charge           Charge          ....    0
 Multiplicity           Mult            ....    1
 Number of Electrons    NEL             ....   18
 Basis Dimension        Dim             ....   86
 Nuclear Repulsion      ENuc            ....     41.0258283572 Eh

Convergence Acceleration:
 DIIS                   CNVDIIS         .... on
   Start iteration      DIISMaxIt       ....    12
   Startup error        DIISStart       ....  0.200000
   # of expansion vecs  DIISMaxEq       ....     5
   Bias factor          DIISBfac        ....   1.050
   Max. coefficient     DIISMaxC        ....  10.000
 Newton-Raphson         CNVNR           .... off
 SOSCF                  CNVSOSCF        .... on
   Start iteration      SOSCFMaxIt      ....   150
   Startup grad/error   SOSCFStart      ....  0.003300
 Level Shifting         CNVShift        .... on
   Level shift para.    LevelShift      ....    0.2500
   Turn off err/grad.   ShiftErr        ....    0.0010
 Zerner damping         CNVZerner       .... off
 Static damping         CNVDamp         .... on
   Fraction old density DampFac         ....    0.7000
   Max. Damping (<1)    DampMax         ....    0.9800
   Min. Damping (>=0)   DampMin         ....    0.0000
   Turn off err/grad.   DampErr         ....    0.1000
 Fernandez-Rico         CNVRico         .... off

SCF Procedure:
 Maximum # iterations   MaxIter         ....  1000
 SCF integral mode      SCFMode         .... Direct
   Integral package                     .... LIBINT
 Reset frequency        DirectResetFreq ....    20
 Integral Threshold     Thresh          ....  2.500e-11 Eh
 Primitive CutOff       TCut            ....  2.500e-12 Eh

Convergence Tolerance:
 Convergence Check Mode ConvCheckMode   .... Total+1el-Energy
 Convergence forced     ConvForced      .... 0
 Energy Change          TolE            ....  1.000e-08 Eh
 1-El. energy change                    ....  1.000e-05 Eh
 Orbital Gradient       TolG            ....  1.000e-05
 Orbital Rotation angle TolX            ....  1.000e-05
 DIIS Error             TolErr          ....  5.000e-07


Diagonalization of the overlap matrix:
Smallest eigenvalue                        ... 1.600e-03
Time for diagonalization                   ...    0.002 sec
Threshold for overlap eigenvalues          ... 1.000e-08
Number of eigenvalues below threshold      ... 0
Time for construction of square roots      ...    0.004 sec
Total time needed                          ...    0.006 sec

-------------------
DFT GRID GENERATION
-------------------

General Integration Accuracy     IntAcc      ...  4.340
Radial Grid Type                 RadialGrid  ... Gauss-Chebyshev
Angular Grid (max. acc.)         AngularGrid ... Lebedev-110
Angular grid pruning method      GridPruning ... 3 (G Style)
Weight generation scheme         WeightScheme... Becke
Basis function cutoff            BFCut       ...    1.0000e-11
Integration weight cutoff        WCut        ...    1.0000e-14
Grids for H and He will be reduced by one unit

# of grid points (after initial pruning)     ...   6548 (   0.0 sec)
# of grid points (after weights+screening)   ...   6375 (   0.0 sec)
nearest neighbour list constructed           ...    0.0 sec
Grid point re-assignment to atoms done       ...    0.0 sec
Grid point division into batches done        ...    0.0 sec
Reduced shell lists constructed in    0.0 sec

Total number of grid points                  ...     6375
Total number of batches                      ...      102
Average number of points per batch           ...       62
Average number of grid points per atom       ...     1062
Average number of shells per batch           ...    31.57 (83.08%)
Average number of basis functions per batch  ...    72.29 (84.05%)
Average number of large shells per batch     ...    30.71 (97.29%)
Average number of large basis fcns per batch ...    70.14 (97.04%)
Maximum spatial batch extension              ...  11.33, 15.16, 17.60 au
Average spatial batch extension              ...   0.36,  0.41,  0.49 au

Time for grid setup =    3.430 sec

------------------------------
INITIAL GUESS: MODEL POTENTIAL
------------------------------
Loading Hartree-Fock densities                     ... done
Calculating cut-offs                               ... done
Setting up the integral package                    ... done
Initializing the effective Hamiltonian             ... done
Starting the Coulomb interaction                   ... done (   0.0 sec)
Reading the grid                                   ... done
Mapping shells                                     ... done
Starting the XC term evaluation                    ... done (   0.1 sec)
  promolecular density results
     # of electrons  =     18.000313253
     EX              =    -14.445663262
     EC              =     -0.577739938
     EX+EC           =    -15.023403201
Transforming the Hamiltonian                       ... done (   0.0 sec)
Diagonalizing the Hamiltonian                      ... done (   0.8 sec)
Back transforming the eigenvectors                 ... done (   0.0 sec)
Now organizing SCF variables                       ... done
                      ------------------
                      INITIAL GUESS DONE (   4.8 sec)
                      ------------------
--------------
SCF ITERATIONS
--------------
ITER       Energy         Delta-E        Max-DP      RMS-DP      [F,P]     Damp
               ***  Starting incremental Fock matrix formation  ***
  0   -115.6374809085   0.000000000000 0.03535671  0.00154144  0.2469268 0.7000
  1   -115.6761756472  -0.038694738693 0.02261361  0.00109398  0.1264582 0.7000
                               ***Turning on DIIS***
  2   -115.6940974311  -0.017921783898 0.03497438  0.00197553  0.0538887 0.0000
  3   -115.7231754258  -0.029077994718 0.01736022  0.00071895  0.0583379 0.0000
  4   -115.7279055210  -0.004730095225 0.00422269  0.00014146  0.0065358 0.0000
                      *** Initiating the SOSCF procedure ***
                           *** Shutting down DIIS ***
                      *** Re-Reading the Fockian *** 
                      *** Removing any level shift *** 
ITER      Energy       Delta-E        Grad      Rot      Max-DP    RMS-DP
  5   -115.72800544  -0.0000999223  0.000549  0.000549  0.000798  0.000050
               *** Restarting incremental Fock matrix formation ***
  6   -115.72801443  -0.0000089841  0.000125  0.000194  0.000474  0.000031
  7   -115.72801526  -0.0000008292  0.000049  0.000111  0.000232  0.000014
  8   -115.72801533  -0.0000000697  0.000020  0.000016  0.000032  0.000001
  9   -115.72801533  -0.0000000087  0.000010  0.000008  0.000016  0.000001
 10   -115.72801534  -0.0000000018  0.000003  0.000003  0.000004  0.000000
                  ***Gradient check signals convergence***
              ***Rediagonalizing the Fockian in SOSCF/NRSCF***

               *****************************************************
               *                     SUCCESS                       *
               *           SCF CONVERGED AFTER  11 CYCLES          *
               *****************************************************

Setting up the final grid:

General Integration Accuracy     IntAcc      ...  4.670
Radial Grid Type                 RadialGrid  ... Gauss-Chebyshev
Angular Grid (max. acc.)         AngularGrid ... Lebedev-302
Angular grid pruning method      GridPruning ... 3 (G Style)
Weight generation scheme         WeightScheme... Becke
Basis function cutoff            BFCut       ...    1.0000e-11
Integration weight cutoff        WCut        ...    1.0000e-14
Grids for H and He will be reduced by one unit

# of grid points (after initial pruning)     ...  26000 (   0.0 sec)
# of grid points (after weights+screening)   ...  25157 (   0.0 sec)
nearest neighbour list constructed           ...    0.0 sec
Grid point re-assignment to atoms done       ...    0.0 sec
Grid point division into batches done        ...    0.1 sec
Reduced shell lists constructed in    0.1 sec

Total number of grid points                  ...    25157
Total number of batches                      ...      396
Average number of points per batch           ...       63
Average number of grid points per atom       ...     4193
Average number of shells per batch           ...    30.82 (81.11%)
Average number of basis functions per batch  ...    70.04 (81.44%)
Average number of large shells per batch     ...    29.37 (95.29%)
Average number of large basis fcns per batch ...    67.41 (96.25%)
Maximum spatial batch extension              ...  13.98, 15.46, 16.05 au
Average spatial batch extension              ...   0.31,  0.30,  0.33 au

Final grid set up in    0.4 sec
Final integration                            ... done (   0.2 sec)
Change in XC energy                          ...    -0.000323287
Integrated number of electrons               ...    17.999993593
Previous integrated no of electrons          ...    18.002085110

----------------
TOTAL SCF ENERGY
----------------

Total Energy       :         -115.72833862 Eh           -3149.12819 eV

Components:
Nuclear Repulsion  :           41.02582836 Eh            1116.36954 eV
Electronic Energy  :         -156.75416698 Eh           -4265.49774 eV
One Electron Energy:         -238.41791317 Eh           -6487.68124 eV
Two Electron Energy:           81.66374618 Eh            2222.18351 eV

Virial components:
Potential Energy   :         -231.10826188 Eh           -6288.77552 eV
Kinetic Energy     :          115.37992326 Eh            3139.64733 eV
Virial Ratio       :            2.00301972


DFT components:
N(Alpha)           :        8.999996796535 electrons
N(Beta)            :        8.999996796535 electrons
N(Total)           :       17.999993593069 electrons
E(XC)              :      -10.678175996568 Eh       
DFET-embed. en.    :        0.000000000000 Eh       

---------------
SCF CONVERGENCE
---------------

  Last Energy change         ...   -2.5871e-10  Tolerance :   1.0000e-08
  Last MAX-Density change    ...    2.1559e-06  Tolerance :   1.0000e-07
  Last RMS-Density change    ...    1.0674e-07  Tolerance :   5.0000e-09
  Last Orbital Gradient      ...    1.2233e-06  Tolerance :   1.0000e-05
  Last Orbital Rotation      ...    8.6297e-07  Tolerance :   1.0000e-05

             **** THE GBW FILE WAS UPDATED (17_charges.gbw) ****
             **** DENSITY FILE WAS UPDATED (17_charges.scfp.tmp) ****
             **** ENERGY FILE WAS UPDATED (17_charges.en.tmp) ****
----------------
ORBITAL ENERGIES
----------------

  NO   OCC          E(Eh)            E(eV) 
   0   2.0000     -19.226287      -523.1739 
   1   2.0000     -10.306464      -280.4531 
   2   2.0000      -1.144386       -31.1403 
   3   2.0000      -0.794857       -21.6292 
   4   2.0000      -0.607450       -16.5296 
   5   2.0000      -0.552047       -15.0220 
   6   2.0000      -0.539924       -14.6921 
   7   2.0000      -0.431892       -11.7524 
   8   2.0000      -0.368998       -10.0409 
   9   0.0000       0.114071         3.1040 
  10   0.0000       0.161811         4.4031 
  11   0.0000       0.200287         5.4501 
  12   0.0000       0.212895         5.7932 
  13   0.0000       0.219350         5.9688 
  14   0.0000       0.303443         8.2571 
  15   0.0000       0.316765         8.6196 
  16   0.0000       0.402637        10.9563 
  17   0.0000       0.444015        12.0823 
  18   0.0000       0.481873        13.1124 
  19   0.0000       0.531644        14.4668 
  20   0.0000       0.549892        14.9633 
  21   0.0000       0.581253        15.8167 
  22   0.0000       0.590529        16.0691 
  23   0.0000       0.636933        17.3318 
  24   0.0000       0.669596        18.2206 
  25   0.0000       0.792947        21.5772 
  26   0.0000       0.805081        21.9074 
  27   0.0000       0.873132        23.7591 
  28   0.0000       0.983036        26.7498 
  29   0.0000       1.011587        27.5267 
  30   0.0000       1.111269        30.2392 
  31   0.0000       1.369424        37.2639 
  32   0.0000       1.492280        40.6070 
  33   0.0000       1.543439        41.9991 
  34   0.0000       1.617851        44.0240 
  35   0.0000       1.626585        44.2616 
  36   0.0000       1.639257        44.6064 
  37   0.0000       1.649953        44.8975 
  38   0.0000       1.734980        47.2112 
  39   0.0000       1.791704        48.7547 
  40   0.0000       1.960552        53.3493 
  41   0.0000       1.998999        54.3955 
  42   0.0000       2.040305        55.5195 
  43   0.0000       2.103822        57.2479 
  44   0.0000       2.153268        58.5934 
  45   0.0000       2.267488        61.7015 
  46   0.0000       2.343866        63.7798 
  47   0.0000       2.357052        64.1386 
  48   0.0000       2.404862        65.4396 
  49   0.0000       2.409684        65.5708 
  50   0.0000       2.550605        69.4055 
  51   0.0000       2.580457        70.2178 
  52   0.0000       2.660869        72.4059 
  53   0.0000       2.742710        74.6329 
  54   0.0000       2.821118        76.7665 
  55   0.0000       2.863444        77.9183 
  56   0.0000       2.948476        80.2321 
  57   0.0000       2.981913        81.1420 
  58   0.0000       3.115641        84.7809 
  59   0.0000       3.184303        86.6493 
  60   0.0000       3.324373        90.4608 
  61   0.0000       3.429421        93.3193 
  62   0.0000       3.462178        94.2107 
  63   0.0000       3.469664        94.4144 
  64   0.0000       3.636257        98.9476 
  65   0.0000       3.680965       100.1641 
  66   0.0000       3.681988       100.1920 
  67   0.0000       4.045385       110.0805 
  68   0.0000       4.188187       113.9664 
  69   0.0000       4.366422       118.8164 
  70   0.0000       4.471195       121.6674 
  71   0.0000       4.556843       123.9980 
  72   0.0000       5.377503       146.3293 
  73   0.0000       5.494436       149.5112 
  74   0.0000       5.549720       151.0156 
  75   0.0000       5.790690       157.5727 
  76   0.0000       5.861721       159.5055 
  77   0.0000       6.049168       164.6062 
  78   0.0000       6.359174       173.0419 
  79   0.0000       6.539539       177.9499 
  80   0.0000       6.770727       184.2409 
  81   0.0000       6.842794       186.2019 
  82   0.0000       7.020527       191.0382 
  83   0.0000       7.223763       196.5686 
  84   0.0000      22.515605       612.6808 
  85   0.0000      43.678153      1188.5430 

                    ********************************
                    * MULLIKEN POPULATION ANALYSIS *
                    ********************************

-----------------------
MULLIKEN ATOMIC CHARGES
-----------------------
   0 C :   -0.163598
   1 O :   -0.469564
   2 H :    0.315679
   3 H :    0.101608
   4 H :    0.092960
   5 H :    0.122916
Sum of atomic charges:    0.0000000

--------------------------------
MULLIKEN REDUCED ORBITAL CHARGES
--------------------------------
  0 C s       :     3.228597  s :     3.228597
      pz      :     0.949736  p :     2.828937
      px      :     1.054329
      py      :     0.824872
      dz2     :     0.025546  d :     0.098083
      dxz     :     0.011816
      dyz     :     0.015542
      dx2y2   :     0.032358
      dxy     :     0.012821
      f0      :     0.000531  f :     0.007982
      f+1     :     0.000826
      f-1     :     0.001965
      f+2     :     0.001286
      f-2     :     0.000847
      f+3     :     0.001248
      f-3     :     0.001279
  1 O s       :     3.798850  s :     3.798850
      pz      :     1.791134  p :     4.636772
      px      :     1.284072
      py      :     1.561565
      dz2     :     0.005585  d :     0.032241
      dxz     :     0.002827
      dyz     :     0.007044
      dx2y2   :     0.011506
      dxy     :     0.005279
      f0      :     0.000239  f :     0.001701
      f+1     :     0.000288
      f-1     :     0.000238
      f+2     :     0.000196
      f-2     :     0.000217
      f+3     :     0.000348
      f-3     :     0.000174
  2 H s       :     0.637312  s :     0.637312
      pz      :     0.015711  p :     0.047009
      px      :     0.018363
      py      :     0.012935
  3 H s       :     0.877886  s :     0.877886
      pz      :     0.011277  p :     0.020507
      px      :     0.005211
      py      :     0.004018
  4 H s       :     0.888785  s :     0.888785
      pz      :     0.004881  p :     0.018255
      px      :     0.003699
      py      :     0.009676
  5 H s       :     0.855714  s :     0.855714
      pz      :     0.004792  p :     0.021371
      px      :     0.012965
      py      :     0.003614


                     *******************************
                     * LOEWDIN POPULATION ANALYSIS *
                     *******************************

----------------------
LOEWDIN ATOMIC CHARGES
----------------------
   0 C :   -0.393029
   1 O :   -0.069144
   2 H :    0.173184
   3 H :    0.094717
   4 H :    0.100254
   5 H :    0.094018

-------------------------------
LOEWDIN REDUCED ORBITAL CHARGES
-------------------------------
  0 C s       :     2.853803  s :     2.853803
      pz      :     1.025037  p :     3.052375
      px      :     1.084566
      py      :     0.942772
      dz2     :     0.107344  d :     0.424796
      dxz     :     0.040543
      dyz     :     0.087910
      dx2y2   :     0.136057
      dxy     :     0.052941
      f0      :     0.004705  f :     0.062056
      f+1     :     0.007979
      f-1     :     0.012201
      f+2     :     0.008543
      f-2     :     0.010660
      f+3     :     0.009701
      f-3     :     0.008267
  1 O s       :     3.363197  s :     3.363197
      pz      :     1.729817  p :     4.625285
      px      :     1.303773
      py      :     1.591695
      dz2     :     0.013620  d :     0.075517
      dxz     :     0.006362
      dyz     :     0.015094
      dx2y2   :     0.028398
      dxy     :     0.012043
      f0      :     0.000319  f :     0.005145
      f+1     :     0.000594
      f-1     :     0.000887
      f+2     :     0.000735
      f-2     :     0.000647
      f+3     :     0.001011
      f-3     :     0.000952
  2 H s       :     0.670421  s :     0.670421
      pz      :     0.043852  p :     0.156395
      px      :     0.073987
      py      :     0.038556
  3 H s       :     0.841670  s :     0.841670
      pz      :     0.033604  p :     0.063614
      px      :     0.017630
      py      :     0.012380
  4 H s       :     0.845212  s :     0.845212
      pz      :     0.014649  p :     0.054533
      px      :     0.012338
      py      :     0.027546
  5 H s       :     0.837663  s :     0.837663
      pz      :     0.015555  p :     0.068318
      px      :     0.040474
      py      :     0.012289


                      *****************************
                      * MAYER POPULATION ANALYSIS *
                      *****************************

  NA   - Mulliken gross atomic population
  ZA   - Total nuclear charge
  QA   - Mulliken gross atomic charge
  VA   - Mayer's total valence
  BVA  - Mayer's bonded valence
  FA   - Mayer's free valence

  ATOM       NA         ZA         QA         VA         BVA        FA
  0 C      6.1636     6.0000    -0.1636     3.9421     3.9421     0.0000
  1 O      8.4696     8.0000    -0.4696     1.8724     1.8724     0.0000
  2 H      0.6843     1.0000     0.3157     0.9094     0.9094     0.0000
  3 H      0.8984     1.0000     0.1016     0.9681     0.9681     0.0000
  4 H      0.9070     1.0000     0.0930     0.9622     0.9622    -0.0000
  5 H      0.8771     1.0000     0.1229     0.9562     0.9562     0.0000

  Mayer bond orders larger than 0.1
B(  0-C ,  1-O ) :   0.9918 B(  0-C ,  3-H ) :   0.9955 B(  0-C ,  4-H ) :   0.9752 
B(  0-C ,  5-H ) :   0.9712 B(  1-O ,  2-H ) :   0.9016 


------------------
HIRSHFELD ANALYSIS
------------------

Total integrated alpha density =      9.001042555
Total integrated beta density  =      9.001042555

  ATOM     CHARGE      SPIN    
   0 C    0.003235    0.000000
   1 O   -0.252475    0.000000
   2 H    0.160237    0.000000
   3 H    0.022015    0.000000
   4 H    0.024597    0.000000
   5 H    0.040306    0.000000

  TOTAL  -0.002085    0.000000

-------
TIMINGS
-------

Total SCF time: 0 days 0 hours 0 min 29 sec 

Total time                  ....      29.532 sec
Sum of individual times     ....      26.298 sec  ( 89.0%)

Fock matrix formation       ....      17.757 sec  ( 60.1%)
  XC integration            ....       3.853 sec  ( 21.7% of F)
    Basis function eval.    ....       0.043 sec  (  1.1% of XC)
    Density eval.           ....       0.050 sec  (  1.3% of XC)
    XC-Functional eval.     ....       0.085 sec  (  2.2% of XC)
    XC-Potential eval.      ....       0.050 sec  (  1.3% of XC)
Diagonalization             ....       1.396 sec  (  4.7%)
Density matrix formation    ....       1.061 sec  (  3.6%)
Population analysis         ....       0.062 sec  (  0.2%)
Initial guess               ....       1.391 sec  (  4.7%)
Orbital Transformation      ....       0.000 sec  (  0.0%)
Orbital Orthonormalization  ....       0.000 sec  (  0.0%)
DIIS solution               ....       0.307 sec  (  1.0%)
SOSCF solution              ....       0.490 sec  (  1.7%)
Grid generation             ....       3.834 sec  ( 13.0%)


-------------------------------------------------------------------------------
                          DFT DISPERSION CORRECTION                            
                                                                               
                              DFTD3 V3.1  Rev 1                                
                              USING zero damping                               
-------------------------------------------------------------------------------
The omegaB97X-D3 functional is recognized. Fit by Chai et al.
Active option DFTDOPT                   ...         3   

molecular C6(AA) [au] = 208.631808 


            DFT-D V3
 parameters
 s6 scaling factor         :     1.0000 
 rs6 scaling factor        :     1.2810 
 s8 scaling factor         :     1.0000 
 rs8 scaling factor        :     1.0940 
 Damping factor alpha6     :    14.0000 
 Damping factor alpha8     :    16.0000 
 ad hoc parameters k1-k3   :    16.0000     1.3333    -4.0000 

 Edisp/kcal,au: -0.123436479905  -0.000196708531 
 E6   /kcal   :  -0.024011891 
 E8   /kcal   :  -0.099424589 
 % E8         :  80.547167952 

-------------------------   ----------------
Dispersion correction           -0.000196709
-------------------------   ----------------


-------------------------   --------------------
FINAL SINGLE POINT ENERGY      -115.728535332429
-------------------------   --------------------


                            ***************************************
                            *     ORCA property calculations      *
                            ***************************************

                                    ---------------------
                                    Active property flags
                                    ---------------------
   (+) Dipole Moment


------------------------------------------------------------------------------
                       ORCA ELECTRIC PROPERTIES CALCULATION
------------------------------------------------------------------------------

Dipole Moment Calculation                       ... on
Quadrupole Moment Calculation                   ... off
Polarizability Calculation                      ... off
GBWName                                         ... 17_charges.gbw
Electron density file                           ... 17_charges.scfp.tmp
The origin for moment calculation is the CENTER OF MASS  = (-4.013698, 11.525239  3.508312)

-------------
DIPOLE MOMENT
-------------
                                X             Y             Z
Electronic contribution:     -0.43902      -1.43371       0.91511
Nuclear contribution   :      0.09443       1.91642      -1.25701
                        -----------------------------------------
Total Dipole Moment    :     -0.34459       0.48271      -0.34190
                        -----------------------------------------
Magnitude (a.u.)       :      0.68458
Magnitude (Debye)      :      1.74005



--------------------
Rotational spectrum 
--------------------
 
Rotational constants in cm-1:     4.283419     0.863024     0.839242 
Rotational constants in MHz : 128413.685624 25872.810842 25159.853677 

 Dipole components along the rotational axes: 
x,y,z [a.u.] :     0.367905     0.567227    -0.107442 
x,y,z [Debye]:     0.935140     1.441776    -0.273096 

 
------------------------------------------------------------------------------
                      ORCA CHELPG CHARGES GENERATION
------------------------------------------------------------------------------

GBW file                           ... 17_charges.gbw

Reading the GBW file               ... done

Grid spacing                       ...     0.300000
Point Cut-Off                      ...     2.800000
Van-der-Waals Radii                ...        COSMO
Total charge                       ...            0


Number of points X direction       ...           27
Number of points Y direction       ...           25
Number of points Z direction       ...           24
Maximum number of possible points  ...        16200
Final number of points             ...         5865


CHELPG Charges            
--------------------------------
  0   C   :       0.100446
  1   O   :      -0.592075
  2   H   :       0.398988
  3   H   :       0.005865
  4   H   :       0.000400
  5   H   :       0.086376
--------------------------------
Total charge:     0.000000
--------------------------------

CHELPG charges calculated...

Timings for individual parts in CHELPG calculation:
Grid generation                 ...        0.002 sec (=   0.000 min)
Potential calculation           ...        0.786 sec (=   0.013 min)
Fit to the potential            ...        0.001 sec (=   0.000 min)
------------------------------------------------------------------------------


Timings for individual modules:

Sum of individual times         ...       39.332 sec (=   0.656 min)
GTO integral calculation        ...        5.175 sec (=   0.086 min)  13.2 %
SCF iterations                  ...       33.122 sec (=   0.552 min)  84.2 %
CHELPG charge generation        ...        1.035 sec (=   0.017 min)   2.6 %
                             ****ORCA TERMINATED NORMALLY****
TOTAL RUN TIME: 0 days 0 hours 0 minutes 41 seconds 451 msec
