LAMMPS data file via vdw_self_gen.py, on 2021-08-05 13:24:52.756992

2000 atoms
3 atom types
1500 bonds
2 bond types
1500 angles
2 angle types

-25.1982099965528938  25.1982099965528903 xlo xhi
-25.1982099965528938  25.1982099965528903 ylo yhi
-25.1982099965528938  25.1982099965528903 zlo zhi

Masses

1  1.007940
2  12.011000
3  15.999400

Atoms

1         0    2    0.1921650000000000  -14.0095677727197820 -19.6041290369364596 -14.0022041161407387 0 0 0
2         0    3   -0.3375490000000000  -12.9612465015029219 -19.0563905634311084 -13.6848727099479515 0 0 0
3         0    1    0.0726920000000000  -14.8305143948307752 -19.0604372444190098 -14.4963517281897225 0 0 0
4         0    1    0.0726920000000000  -14.1946935455085104 -20.6734742556002047 -13.8125936602835750 0 0 0
5         1    2    0.1921650000000000   8.3947823376577944   13.9963374579867477  19.6097344673912843 0 0 0
6         1    3   -0.3375490000000000   8.8532357039581999   14.2609350159422021  18.5054234660642898 0 0 0
7         1    1    0.0726920000000000   8.0274850732216070   14.7762070820143041  20.2957607592757974 0 0 0
8         1    1    0.0726920000000000   8.3221102138995828   12.9625426586187213  19.9835124076554109 0 0 0
9         2    2    0.1921650000000000   2.7961430403359340  -2.7895451531219915  -14.0048115385558773 0 0 0
10        2    3   -0.3375490000000000   3.1589442903690772  -3.8073677734998759  -13.4285247082174788 0 0 0
11        2    1    0.0726920000000000   3.0200550123201291  -2.6044033464884864  -15.0675071320061527 0 0 0
12        2    1    0.0726920000000000   2.2240620998872505  -1.9978881698020494  -13.4951788357824789 0 0 0
13        3    2    0.1921650000000000   13.9960761761738475  2.8111943196737559   19.6023345892627674 0 0 0
14        3    3   -0.3375490000000000   14.2868684321443737  1.6804800331032990   19.2327142294163060 0 0 0
15        3    1    0.0726920000000000   13.0361853624737289  3.2855747503197801   19.3428951610830460 0 0 0
16        3    1    0.0726920000000000   14.6768922437700269  3.4219553398155549   20.2164871206246595 0 0 0
17        4    2    0.1921650000000000  -8.3878532039788762   19.5962720795211496  8.4030659365673319  0 0 0
18        4    3   -0.3375490000000000  -9.5340726038624641   19.8282924589898890  8.0396904073393962  0 0 0
19        4    1    0.0726920000000000  -7.6441343976685951   19.1281791559231387  7.7386057525699155  0 0 0
20        4    1    0.0726920000000000  -8.0315531232272619   19.8416874059526016  9.4162512322605405  0 0 0
21        5    2    0.1921650000000000  -13.9984969934273984 -2.7949957979567985   8.3880487761855083  0 0 0
22        5    3   -0.3375490000000000  -14.0492037963847913 -3.2718046830654326   9.5148922664783235  0 0 0
23        5    1    0.0726920000000000  -13.5378824583359325 -3.3314255399999699   7.5431740126767552  0 0 0
24        5    1    0.0726920000000000  -14.4104389664138655 -1.8009784218902003   8.1514982733965944  0 0 0
25        6    2    0.1921650000000000  -2.7884565462140394  -19.6022470688003771  13.9957912102278144 0 0 0
26        6    3   -0.3375490000000000  -3.9143463607753204  -19.2410497867794703  14.3145431409323471 0 0 0
27        6    1    0.0726920000000000  -2.3104383429603916  -20.4922909785066736  14.4351730717706896 0 0 0
28        6    1    0.0726920000000000  -2.1859631929626495  -19.0588432663002614  13.2505147916311241 0 0 0
29        7    2    0.1921650000000000   19.6019641998962406  14.0028094706036423 -14.0102545640215244 0 0 0
30        7    3   -0.3375490000000000   19.2686679244417753  13.6254480868828143 -12.8939185378876022 0 0 0
31        7    1    0.0726920000000000   19.9777373686939903  13.3074718296184802 -14.7777414204177013 0 0 0
32        7    1    0.0726920000000000   19.5460616073547762  15.0602928274570385 -14.3141076922351633 0 0 0
33        8    2    0.1921650000000000  -19.6061567016460714 -2.7901209118886419  -13.9977473546774345 0 0 0
34        8    3   -0.3375490000000000  -18.8570636663282336 -3.7507992846708884  -14.1228506436300343 0 0 0
35        8    1    0.0726920000000000  -19.3055989430787633 -1.8766944233626655  -13.4601107972112413 0 0 0
36        8    1    0.0726920000000000  -20.6256117893337141 -2.7815898229902061  -14.4153134190432812 0 0 0
37        9    2    0.1921650000000000  -2.7955532358442889   19.5904125135536731 -2.7916115531415815  0 0 0
38        9    3   -0.3375490000000000  -3.2169295242305989   20.4038656581920961 -3.6042800891780344  0 0 0
39        9    1    0.0726920000000000  -2.6876558552534617   18.5208375394871148 -3.0326582585995898  0 0 0
40        9    1    0.0726920000000000  -2.4990658275840509   19.8793153891538985 -1.7706545419931972  0 0 0
41        10   2    0.1921650000000000  -2.8070815275878576   8.3926296923374295   19.6059145486543684 0 0 0
42        10   3   -0.3375490000000000  -2.0847423724089094   9.0650269592994697   18.8807923488305498 0 0 0
43        10   1    0.0726920000000000  -2.4191020664149723   7.8533980721237562   20.4847986033337861 0 0 0
44        10   1    0.0726920000000000  -3.8882784765006662   8.2865586049765287   19.4229255995680816 0 0 0
45        11   2    0.1921650000000000   8.3978685555685058   19.6084163988722828  19.5912789984853788 0 0 0
46        11   3   -0.3375490000000000   8.5503093363116971   18.6351491136813436  20.3187449731834775 0 0 0
47        11   1    0.0726920000000000   7.4233995945494327   19.8603396120022104  19.1433047550330357 0 0 0
48        11   1    0.0726920000000000   9.2260358423075441   20.2905259758309491  19.3411023736848939 0 0 0
49        12   2    0.1921650000000000   19.6063594930152760  2.8077141439495610   2.8052389761913767  0 0 0
50        12   3   -0.3375490000000000   18.8372601056767905  2.0222553255246889   2.2655773031459798  0 0 0
51        12   1    0.0726920000000000   19.3137993266746086  3.4086181538757483   3.6810579666370891  0 0 0
52        12   1    0.0726920000000000   20.6370121750201108  2.9606168195623881   2.4473301969379482  0 0 0
53        13   2    0.1921650000000000   8.3889662020982332   2.8020761868024784   2.8059789704442402  0 0 0
54        13   3   -0.3375490000000000   9.4248758658594234   2.5763280749481474   2.1930979845094747  0 0 0
55        13   1    0.0726920000000000   7.4852086244048843   2.1847598612882924   2.6799679426906691  0 0 0
56        13   1    0.0726920000000000   8.2985626363746423   3.6360403198734685   3.5201595452680112  0 0 0
57        14   2    0.1921650000000000   8.3953566415576688   8.4104800478772397  -14.0026395969368824 0 0 0
58        14   3   -0.3375490000000000   8.7967227449826488   7.3111727547617553  -13.6419141185956079 0 0 0
59        14   1    0.0726920000000000   8.6459461911811957   8.8330068313152132  -14.9887491136727427 0 0 0
60        14   1    0.0726920000000000   7.7595877510156628   9.0429536947829732  -13.3627193853567583 0 0 0
61        15   2    0.1921650000000000  -19.5909655548919766  14.0067597436414424 -19.5927987636470853 0 0 0
62        15   3   -0.3375490000000000  -20.3494839786269566  13.2374266125916495 -20.1694012946194263 0 0 0
63        15   1    0.0726920000000000  -18.5111426686339193  13.8086006653935893 -19.5008667337485058 0 0 0
64        15   1    0.0726920000000000  -19.9428388982339300  14.9432351929352993 -19.1313643083717686 0 0 0
65        16   2    0.1921650000000000  -19.6006862086124869  8.4086563846253597  -14.0069009156267068 0 0 0
66        16   3   -0.3375490000000000  -19.3943376137879788  7.4902447960184029  -13.2235526177882665 0 0 0
67        16   1    0.0726920000000000  -19.3125717615436798  9.4481209757891449  -13.7827594129839905 0 0 0
68        16   1    0.0726920000000000  -20.0868355164426333  8.2505911723042740  -14.9828092681630309 0 0 0
69        17   2    0.1921650000000000  -2.7883695177145591   2.8043990180045562   19.5979343242077988 0 0 0
70        17   3   -0.3375490000000000  -3.9229326744249411   2.3483316103155301   19.6647408169998172 0 0 0
71        17   1    0.0726920000000000  -2.0040232536814222   2.3403808863554465   18.9788833604753080 0 0 0
72        17   1    0.0726920000000000  -2.4838789970914816   3.7060929282368624   20.1528725987038584 0 0 0
73        18   2    0.1921650000000000   19.5990560327275389 -19.5862786605448385  19.5983477641094801 0 0 0
74        18   3   -0.3375490000000000   19.5543627716367610 -20.8098079329805792  19.6242856959067851 0 0 0
75        18   1    0.0726920000000000   19.8114281371843006 -19.0254745941931525  18.6741546714540441 0 0 0
76        18   1    0.0726920000000000   19.4295841588381748 -18.9728699126682123  20.4976429689164767 0 0 0
77        19   2    0.1921650000000000   8.4090139614903805   8.3930987444580989   19.6030981630747689 0 0 0
78        19   3   -0.3375490000000000   7.4551066572892850   9.0185745508322004   19.1575254809762683 0 0 0
79        19   1    0.0726920000000000   9.1491308582810245   8.8520280818427395   20.2778920771497866 0 0 0
80        19   1    0.0726920000000000   8.5843618516764888   7.3339119516041382   19.3559153791859586 0 0 0
81        20   2    0.1921650000000000   2.7908084929867027  -8.4035665661633772   19.5912541423044964 0 0 0
82        20   3   -0.3375490000000000   3.6830705367932808  -7.9903774627569275   20.3212112331038597 0 0 0
83        20   1    0.0726920000000000   2.9135385881851574  -9.3001325908186594   18.9628890642914030 0 0 0
84        20   1    0.0726920000000000   1.8117868249472442  -7.9035367089982298   19.5190766606870305 0 0 0
85        21   2    0.1921650000000000  -19.5959209425154555  2.8084552486998402  -2.8081774125908758  0 0 0
86        21   3   -0.3375490000000000  -19.8627160708732688  1.9495114491821097  -1.9770757021158156  0 0 0
87        21   1    0.0726920000000000  -18.5620553333595524  3.1334202503244422  -3.0063077586356255  0 0 0
88        21   1    0.0726920000000000  -20.3737387536385128  3.3078174947059926  -3.4076435695700900  0 0 0
89        22   2    0.1921650000000000  -2.7966532317945383  -13.9890267378388859  8.4059447158045266  0 0 0
90        22   3   -0.3375490000000000  -3.1088156697322158  -14.9794075906093873  7.7567956395467181  0 0 0
91        22   1    0.0726920000000000  -3.4178103887949112  -13.6082997067599774  9.2323506077323678  0 0 0
92        22   1    0.0726920000000000  -1.8759251525907308  -13.4192881793537442  8.2025223656535662  0 0 0
93        23   2    0.1921650000000000  -14.0001114551977572 -8.4006371624953786   13.9867772973969000 0 0 0
94        23   3   -0.3375490000000000  -13.8905866795272708 -8.2780873804101436   15.2003175805458266 0 0 0
95        23   1    0.0726920000000000  -13.7329990979827219 -9.3327795722285050   13.4638074123175162 0 0 0
96        23   1    0.0726920000000000  -14.3723249818542449 -7.5861092136031640   13.3451199243017378 0 0 0
97        24   2    0.1921650000000000   2.7894987206312551  -2.8048790836751158  -8.3948921732099606  0 0 0
98        24   3   -0.3375490000000000   3.8118704646637460  -2.3007419016743693  -8.8424364314999035  0 0 0
99        24   1    0.0726920000000000   2.7459648732979467  -3.8572492668947129  -8.0718476163656945  0 0 0
100       24   1    0.0726920000000000   1.8518703843194437  -2.2363341906681966  -8.2884371076616361  0 0 0
101       25   2    0.1921650000000000   2.7964957284397527  -13.9974538013726182 -19.5868204039276463 0 0 0
102       25   3   -0.3375490000000000   3.1247381356249386  -14.1515454187129226 -20.7565241441929800 0 0 0
103       25   1    0.0726920000000000   1.7971513777981445  -14.2751802874196194 -19.2154515146966247 0 0 0
104       25   1    0.0726920000000000   3.4808192010495618  -13.5718427070568328 -18.8356350375695314 0 0 0
105       26   2    0.1921650000000000  -13.9913342302983672  13.9909444186539638  13.9936722144276420 0 0 0
106       26   3   -0.3375490000000000  -14.7526200490592458  14.7908040212283822  14.5231650498117091 0 0 0
107       26   1    0.0726920000000000  -13.1493059699623682  14.3121601122644293  13.3599965315472957 0 0 0
108       26   1    0.0726920000000000  -14.1027619652420082  12.9021136624151982  14.1191884187753356 0 0 0
109       27   2    0.1921650000000000   19.5934423233876238  8.3989194980989090   14.0102019646488927 0 0 0
110       27   3   -0.3375490000000000   20.1059661188857781  8.4471618066910299   12.8990376279687329 0 0 0
111       27   1    0.0726920000000000   20.1439354657833753  8.0448079063451541   14.8963725265955560 0 0 0
112       27   1    0.0726920000000000   18.5510871923300016  8.7067241176020964   14.1904100953487902 0 0 0
113       28   2    0.1921650000000000   8.4116125174890204   2.8014582203650029  -19.5979255815053257 0 0 0
114       28   3   -0.3375490000000000   7.1999506026074309   2.6370876229628424  -19.6653930190965731 0 0 0
115       28   1    0.0726920000000000   8.9845571498266477   3.2869108412167996  -20.4040311485891976 0 0 0
116       28   1    0.0726920000000000   9.0014930588140807   2.4737477583677450  -18.7270813511956788 0 0 0
117       29   2    0.1921650000000000   2.8115253702518204   2.8018062092887437  -13.9957196862310571 0 0 0
118       29   3   -0.3375490000000000   1.6479504175657678   2.6027869663285061  -14.3215705951037755 0 0 0
119       29   1    0.0726920000000000   3.4037939807184938   3.6332563548141805  -14.4100197377174091 0 0 0
120       29   1    0.0726920000000000   3.3359346743763036   2.1613549124809559  -13.2687121955097425 0 0 0
121       30   2    0.1921650000000000   19.5936460021831103  8.3979510893058258   2.7885963168243300  0 0 0
122       30   3   -0.3375490000000000   20.0862741939935958  8.5420093966904691   3.9004680779132599  0 0 0
123       30   1    0.0726920000000000   18.8914441137547229  9.1293895148162125   2.3577293748637298  0 0 0
124       30   1    0.0726920000000000   19.8230667904553606  7.5282633279246713   2.1524106733110702  0 0 0
125       31   2    0.1921650000000000  -19.6069827792938973  2.7918446359331313  -19.6029470630318130 0 0 0
126       31   3   -0.3375490000000000  -18.7759406017673491  3.5814163749932839  -19.1720880229160784 0 0 0
127       31   1    0.0726920000000000  -19.3425685119723241  1.9855688446419553  -20.3056137177939213 0 0 0
128       31   1    0.0726920000000000  -20.6689392073532119  2.8403745873440216  -19.3137822966449626 0 0 0
129       32   2    0.1921650000000000  -2.8113618504692028   8.3951871256893043   13.9980844099600485 0 0 0
130       32   3   -0.3375490000000000  -1.6639896338859010   8.8133707066232727   14.0894826246579097 0 0 0
131       32   1    0.0726920000000000  -3.5571910600829235   8.8651131551287321   13.3372937464044448 0 0 0
132       32   1    0.0726920000000000  -3.1666618984743700   7.5239423412958697   14.5711614335395740 0 0 0
133       33   2    0.1921650000000000  -19.6019929644901723 -2.7976254745985796  -2.7881356614674786  0 0 0
134       33   3   -0.3375490000000000  -19.2662116039447362 -3.0133671448892203  -3.9458923518003193  0 0 0
135       33   1    0.0726920000000000  -18.8671181246101476 -2.6657087775647978  -1.9780165721633232  0 0 0
136       33   1    0.0726920000000000  -20.6591084073417335 -2.7225030458598045  -2.4871598574812888  0 0 0
137       34   2    0.1921650000000000   14.0018731667481706  19.6105828018103274 -19.5978008447884058 0 0 0
138       34   3   -0.3375490000000000   13.7171060968427998  18.4222163132987653 -19.6777192361648616 0 0 0
139       34   1    0.0726920000000000   14.2167706335408024  20.2244451747061618 -20.4870297523306597 0 0 0
140       34   1    0.0726920000000000   14.0602723174301989  20.1371868105715279 -18.6318812671028446 0 0 0
141       35   2    0.1921650000000000   8.3898710023459788  -8.4051710587571957   19.5933027186140727 0 0 0
142       35   3   -0.3375490000000000   9.3360155598874766  -7.8329166132334818   20.1196386096693445 0 0 0
143       35   1    0.0726920000000000   7.5025810939171622  -7.8621071840815127   19.2306262367151213 0 0 0
144       35   1    0.0726920000000000   8.3691456725865709  -9.4974184726650162   19.4508635353882440 0 0 0
145       36   2    0.1921650000000000   2.8000625338206171  -2.7932576614786706   2.8102601038028059  0 0 0
146       36   3   -0.3375490000000000   2.7739263936010237  -3.4427591189241524   1.7723974426811073  0 0 0
147       36   1    0.0726920000000000   2.9039074079518890  -1.6964746243121771   2.8146413822106711  0 0 0
148       36   1    0.0726920000000000   2.7213081075388570  -3.2667130381974134   3.8019055142178106  0 0 0
149       37   2    0.1921650000000000  -13.9967417791334832 -19.6099837622863440 -2.8040127430354560  0 0 0
150       37   3   -0.3375490000000000  -14.2212234914511235 -18.4810617029466471 -2.3858774907890599  0 0 0
151       37   1    0.0726920000000000  -13.8977615692911911 -19.8295646636841987 -3.8790583838809347  0 0 0
152       37   1    0.0726920000000000  -13.8802953746861899 -20.4738209714695998 -2.1302558252069419  0 0 0
153       38   2    0.1921650000000000  -13.9933620876448579  8.3908683577408034   2.7929032045925370  0 0 0
154       38   3   -0.3375490000000000  -14.5533276452509366  9.2380565635941707   3.4773043023107300  0 0 0
155       38   1    0.0726920000000000  -14.5021148856233495  7.4705407298019413   2.4644163222038085  0 0 0
156       38   1    0.0726920000000000  -12.9472175960428366  8.4981476776002740   2.4645806138053117  0 0 0
157       39   2    0.1921650000000000  -2.7983372525395236   2.7885315787074272  -2.8046105154198302  0 0 0
158       39   3   -0.3375490000000000  -2.9438383148951659   3.9069302850993410  -2.3274230063688548  0 0 0
159       39   1    0.0726920000000000  -2.3754193844243048   1.9526958536251873  -2.2247354412830749  0 0 0
160       39   1    0.0726920000000000  -3.0816094910534160   2.5510467254804365  -3.8424354798406526  0 0 0
161       40   2    0.1921650000000000   13.9946124047394616 -19.6100847363042767 -8.3982829704466990  0 0 0
162       40   3   -0.3375490000000000   14.4304926543395666 -18.4710984974075423 -8.5096961654122332  0 0 0
163       40   1    0.0726920000000000   13.4729172083603110 -19.9534719053957517 -7.4907283669774394  0 0 0
164       40   1    0.0726920000000000   14.0979999471226360 -20.3597759612792153 -9.1989058259008374  0 0 0
165       41   2    0.1921650000000000  -2.8092412453443902   8.4069660992537862  -2.8022432448212671  0 0 0
166       41   3   -0.3375490000000000  -1.8725266454293397   7.6562503548230669  -2.5599917767765423  0 0 0
167       41   1    0.0726920000000000  -2.6614066035491515   9.4138144004309297  -3.2243065116450400  0 0 0
168       41   1    0.0726920000000000  -3.8560299485895317   8.1205824742293906  -2.6126629096695542  0 0 0
169       42   2    0.1921650000000000  -8.4053323961832263   2.8054079052746901  -8.3901466772129307  0 0 0
170       42   3   -0.3375490000000000  -7.8170756837819777   2.2491099381433708  -9.3089397749669587  0 0 0
171       42   1    0.0726920000000000  -7.8719519104320312   3.2525549670119651  -7.5361556077634173  0 0 0
172       42   1    0.0726920000000000  -9.5032533383399738   2.8921316324823652  -8.3623712687938969  0 0 0
173       43   2    0.1921650000000000  -2.7968480000553049   19.5903973255735870  8.3906773215131629  0 0 0
174       43   3   -0.3375490000000000  -3.0897660659586399   20.4053686995928807  9.2565380554632366  0 0 0
175       43   1    0.0726920000000000  -3.5549165323613825   18.9681874222207476  7.8887580843873639  0 0 0
176       43   1    0.0726920000000000  -1.7576738445370628   19.4304776529995742  8.0616398673734171  0 0 0
177       44   2    0.1921650000000000   2.7937346467581552   8.4091704321111678  -8.4038841111533973  0 0 0
178       44   3   -0.3375490000000000   3.3955635412835168   7.4398098594565010  -7.9590962894934449  0 0 0
179       44   1    0.0726920000000000   2.8774437480424178   8.7200704186180840  -9.4574826916631505  0 0 0
180       44   1    0.0726920000000000   2.1324625068282903   9.0285626185514296  -7.7771502364271914  0 0 0
181       45   2    0.1921650000000000  -13.9954483040895017 -19.5920964347774245  14.0088657782387767 0 0 0
182       45   3   -0.3375490000000000  -14.3484494443431334 -20.2384905760630325  13.0304696654647714 0 0 0
183       45   1    0.0726920000000000  -14.5105043815884400 -18.6694714772739623  14.3206612383133773 0 0 0
184       45   1    0.0726920000000000  -13.1416200845409055 -19.8943726122723739  14.6360255325450535 0 0 0
185       46   2    0.1921650000000000   13.9993665233023812 -13.9948563816597531  2.8114170342397005  0 0 0
186       46   3   -0.3375490000000000   13.9635827916630255 -14.4068507937684664  1.6587356934775777  0 0 0
187       46   1    0.0726920000000000   13.2600014673484097 -13.2777547810312893  3.2023653588431746  0 0 0
188       46   1    0.0726920000000000   14.7730714322481678 -14.3165602581024913  3.5266863563519397  0 0 0
189       47   2    0.1921650000000000   14.0077475419358013 -2.7913461443994372  -8.3973136452996471  0 0 0
190       47   3   -0.3375490000000000   13.1403637016648336 -3.6305958290548026  -8.6046765755515722  0 0 0
191       47   1    0.0726920000000000   13.8618925410721410 -1.9572988704514411  -7.6924537672792237  0 0 0
192       47   1    0.0726920000000000   14.9860184298892101 -2.8199635990067313  -8.9031693406067607  0 0 0
193       48   2    0.1921650000000000  -13.9879802400279267 -2.7949908766477916   19.6013609031516722 0 0 0
194       48   3   -0.3375490000000000  -15.0820797693489137 -3.2723366121938815   19.3278989988659688 0 0 0
195       48   1    0.0726920000000000  -13.3338344727028897 -3.2294429823607778   20.3740708532832073 0 0 0
196       48   1    0.0726920000000000  -13.5921277324822594 -1.9024339717099434   19.0911003450859198 0 0 0
197       49   2    0.1921650000000000   8.3975750904302675   2.7926992490607057  -14.0089301039676446 0 0 0
198       49   3   -0.3375490000000000   8.5792517638986769   3.4974336822657088  -13.0240254845385941 0 0 0
199       49   1    0.0726920000000000   7.7751616286612348   3.1182061556308049  -14.8576837316381489 0 0 0
200       49   1    0.0726920000000000   8.8456248457470164   1.7908653559551595  -14.1053828944175983 0 0 0
201       50   2    0.1921650000000000   14.0055413664914781  13.9912661492949173  13.9919585417203542 0 0 0
202       50   3   -0.3375490000000000   13.3569963623158472  14.7595131076529107  14.6911581791148027 0 0 0
203       50   1    0.0726920000000000   13.6050018741405658  13.0210855452640200  13.6572143188732600 0 0 0
204       50   1    0.0726920000000000   15.0284826116140948  14.2241574123501380  13.6556911748535548 0 0 0
205       51   2    0.1921650000000000   2.7930241310851867   2.7900536602884083   2.7964343076308871  0 0 0
206       51   3   -0.3375490000000000   3.4656937577298885   3.7572477061309262   3.1307177135553577  0 0 0
207       51   1    0.0726920000000000   2.5905811346857033   2.5519451307267689   1.7399982492445871  0 0 0
208       51   1    0.0726920000000000   2.3499054194116114   2.0999579457662794   3.5320541724815717  0 0 0
209       52   2    0.1921650000000000  -14.0066797013939439  2.7938044911501962   8.3918254950161959  0 0 0
210       52   3   -0.3375490000000000  -13.2452867480790939  3.3890484392770408   9.1439289169342626  0 0 0
211       52   1    0.0726920000000000  -14.0002943609581649  1.6961941359635229   8.2972383938105203  0 0 0
212       52   1    0.0726920000000000  -14.7437614041307956  3.3201573765216414   7.7646205229762009  0 0 0
213       53   2    0.1921650000000000   14.0099469789574194 -19.6014281818221718  13.9940450975942170 0 0 0
214       53   3   -0.3375490000000000   12.9240477795789825 -19.3214357416856330  14.4861033326189599 0 0 0
215       53   1    0.0726920000000000   14.4904895486293501 -20.5805795104931804  14.1492143548421740 0 0 0
216       53   1    0.0726920000000000   14.5715379073962232 -18.8909876663857865  13.3666594295066172 0 0 0
217       54   2    0.1921650000000000  -2.8072969796459599   14.0085649922966677  2.7976320814532496  0 0 0
218       54   3   -0.3375490000000000  -2.0635788357143658   13.0597327942041908  3.0127946401151884  0 0 0
219       54   1    0.0726920000000000  -2.4504621054969480   14.9411175769401954  2.3320673345428760  0 0 0
220       54   1    0.0726920000000000  -3.8778665220551405   13.9866068511209143  3.0567103868010781  0 0 0
221       55   2    0.1921650000000000   2.7875285759024835   2.8010146165860403  -19.5981743022176644 0 0 0
222       55   3   -0.3375490000000000   4.0054617914475612   2.6807415371304941  -19.6413855649892746 0 0 0
223       55   1    0.0726920000000000   2.2461140210577510   2.9618386599950415  -18.6522663304974543 0 0 0
224       55   1    0.0726920000000000   2.1601000545045936   2.7556096292008148  -20.5026049026824033 0 0 0
225       56   2    0.1921650000000000   2.8034000783065740  -2.7944890148880153   13.9884649333359370 0 0 0
226       56   3   -0.3375490000000000   2.4463651620261526  -3.3214903431684508   15.0346436049534091 0 0 0
227       56   1    0.0726920000000000   2.1047497977159475  -2.6037422497063738   13.1582604759259798 0 0 0
228       56   1    0.0726920000000000   3.8446894048637272  -2.4794828351495606   13.8146532003466564 0 0 0
229       57   2    0.1921650000000000   19.5996544354007121 -2.7880520548272569   13.9953806682772228 0 0 0
230       57   3   -0.3375490000000000   19.4959953608598724 -3.9540819204561606   14.3549961478200068 0 0 0
231       57   1    0.0726920000000000   19.4332344783420439 -1.9438935105265820   14.6834480589278336 0 0 0
232       57   1    0.0726920000000000   19.8655468257841612 -2.5131769571024094   12.9621973395369015 0 0 0
233       58   2    0.1921650000000000   2.8083474933514734   19.6056165002641585 -13.9935180476649332 0 0 0
234       58   3   -0.3375490000000000   1.9602223857801957   18.9099066057018739 -14.5379128390758652 0 0 0
235       58   1    0.0726920000000000   2.6952629743896321   20.6965592619193970 -13.8896346203861025 0 0 0
236       58   1    0.0726920000000000   3.7353715893910930   19.1823487325013424 -13.5749567074350832 0 0 0
237       59   2    0.1921650000000000  -14.0031697300642097 -8.4014074340033478  -13.9875635775497553 0 0 0
238       59   3   -0.3375490000000000  -13.5897047817333849 -8.2024327186256318  -15.1229709685518365 0 0 0
239       59   1    0.0726920000000000  -14.5055022220763661 -9.3391115896884571  -13.7010169531066861 0 0 0
240       59   1    0.0726920000000000  -13.8976454806880199 -7.6546615864197491  -13.1844707153537062 0 0 0
241       60   2    0.1921650000000000   14.0098951627109312 -2.7941489422981869  -19.5999287643407740 0 0 0
242       60   3   -0.3375490000000000   12.9291399684641455 -3.3549826235571070  -19.4690550218475984 0 0 0
243       60   1    0.0726920000000000   14.9637202688162088 -3.2956374103090469  -19.3708808053554087 0 0 0
244       60   1    0.0726920000000000   14.0932668145706845 -1.7544354667480526  -19.9545665088430084 0 0 0
245       61   2    0.1921650000000000   19.5881032779536532 -8.4051995184260484  -13.9961184493692912 0 0 0
246       61   3   -0.3375490000000000   20.6305152996258698 -7.8298089164137874  -14.2824695914819451 0 0 0
247       61   1    0.0726920000000000   19.5453276630807338 -9.4924384562393165  -13.8234403587645396 0 0 0
248       61   1    0.0726920000000000   18.6304848597265220 -7.8701664376580327  -13.8939938149462119 0 0 0
249       62   2    0.1921650000000000  -19.5957327661625662  14.0035530305168372  13.9879001322645244 0 0 0
250       62   3   -0.3375490000000000  -19.8808140303466629  13.5521857321658423  15.0900300607169431 0 0 0
251       62   1    0.0726920000000000  -19.9234839726092048  15.0027531911730776  13.6593972103333758 0 0 0
252       62   1    0.0726920000000000  -18.9944003312683414  13.4375302607062075  13.2586948112471319 0 0 0
253       63   2    0.1921650000000000   13.9996732145898406  8.4097583467104222   13.9923269677669388 0 0 0
254       63   3   -0.3375490000000000   13.9333764074394129  7.3819969686682283   14.6549018145325558 0 0 0
255       63   1    0.0726920000000000   14.7859251036878501  9.1641242278382435   14.1550416517387365 0 0 0
256       63   1    0.0726920000000000   13.2770474888448629  8.6417337855202803   13.1937517805237388 0 0 0
257       64   2    0.1921650000000000  -19.5979174556026194  19.5924504264770292 -19.6092795192475826 0 0 0
258       64   3   -0.3375490000000000  -19.6666627869565040  20.2034389848722036 -18.5501944398855692 0 0 0
259       64   1    0.0726920000000000  -18.7535114242033600  18.9270742551301936 -19.8500885490624270 0 0 0
260       64   1    0.0726920000000000  -20.3763394336243131  19.6714674339073596 -20.3848685921912036 0 0 0
261       65   2    0.1921650000000000  -2.8068120607503517  -19.5905345405455371  19.5924478181230235 0 0 0
262       65   3   -0.3375490000000000  -2.1108476671656646  -20.3916469720591529  20.2036323887206883 0 0 0
263       65   1    0.0726920000000000  -3.5397279238920056  -18.9424972142768056  20.0990225366175324 0 0 0
264       65   1    0.0726920000000000  -2.7418167911043709  -19.4697523735052869  18.4993283569255276 0 0 0
265       66   2    0.1921650000000000   19.6087716158847059  13.9954488359481442 -2.8058278599300297  0 0 0
266       66   3   -0.3375490000000000   18.6002490707354156  14.3484604771525888 -2.2075309424218785  0 0 0
267       66   1    0.0726920000000000   19.8338116906126167  14.3348145327604257 -3.8295093888703358  0 0 0
268       66   1    0.0726920000000000   20.3515987231540514  13.3172983687008131 -2.3563362516901458  0 0 0
269       67   2    0.1921650000000000  -2.8035182122194047   2.7893383506019767   8.4047875139509767  0 0 0
270       67   3   -0.3375490000000000  -2.4348686617743671   3.8277399474682703   7.8704526217885631  0 0 0
271       67   1    0.0726920000000000  -2.2888286989517299   2.3647072177906350   9.2814397198340348  0 0 0
272       67   1    0.0726920000000000  -3.6719888699669161   2.2174189270515088   8.0409334731636015  0 0 0