
                                 *****************
                                 * O   R   C   A *
                                 *****************

           --- An Ab Initio, DFT and Semiempirical electronic structure package ---

                  #######################################################
                  #                        -***-                        #
                  #          Department of theory and spectroscopy      #
                  #               Directorship: Frank Neese             #
                  #        Max Planck Institute fuer Kohlenforschung    #
                  #                Kaiser Wilhelm Platz 1               #
                  #                 D-45470 Muelheim/Ruhr               #
                  #                      Germany                        #
                  #                                                     #
                  #                  All rights reserved                #
                  #                        -***-                        #
                  #######################################################


                         Program Version 4.1.2  - RELEASE  -


 With contributions from (in alphabetic order):
   Daniel Aravena         : Magnetic Properties
   Michael Atanasov       : Ab Initio Ligand Field Theory
   Alexander A. Auer      : GIAO ZORA
   Ute Becker             : Parallelization
   Giovanni Bistoni       : ED, Open-shell LED
   Martin Brehm           : Molecular dynamics
   Dmytro Bykov           : SCF Hessian
   Vijay G. Chilkuri      : MRCI spin determinant printing
   Dipayan Datta          : RHF DLPNO-CCSD density
   Achintya Kumar Dutta   : EOM-CC, STEOM-CC
   Dmitry Ganyushin       : Spin-Orbit,Spin-Spin,Magnetic field MRCI
   Miquel Garcia          : C-PCM Hessian
   Yang Guo               : DLPNO-NEVPT2, CIM, IAO-localization
   Andreas Hansen         : Spin unrestricted coupled pair/coupled cluster methods
   Benjamin Helmich-Paris : CASSCF linear response (MC-RPA)
   Lee Huntington         : MR-EOM, pCC
   Robert Izsak           : Overlap fitted RIJCOSX, COSX-SCS-MP3, EOM
   Christian Kollmar      : KDIIS, OOCD, Brueckner-CCSD(T), CCSD density
   Simone Kossmann        : Meta GGA functionals, TD-DFT gradient, OOMP2, MP2 Hessian
   Martin Krupicka        : AUTO-CI
   Lucas Lang             : DCDCAS
   Dagmar Lenk            : GEPOL surface, SMD
   Dimitrios Liakos       : Extrapolation schemes; parallel MDCI
   Dimitrios Manganas     : ROCIS; embedding schemes
   Dimitrios Pantazis     : SARC Basis sets
   Taras Petrenko         : DFT Hessian,TD-DFT gradient, ASA, ECA, R-Raman, ABS, FL, XAS/XES, NRVS
   Peter Pinski           : DLPNO-MP2, DLPNO-MP2 Gradient
   Christoph Reimann      : Effective Core Potentials
   Marius Retegan         : Local ZFS, SOC
   Christoph Riplinger    : Optimizer, TS searches, QM/MM, DLPNO-CCSD(T), (RO)-DLPNO pert. Triples
   Tobias Risthaus        : Range-separated hybrids, TD-DFT gradient, RPA, STAB
   Michael Roemelt        : Restricted open shell CIS
   Masaaki Saitow         : Open-shell DLPNO
   Barbara Sandhoefer     : DKH picture change effects
   Avijit Sen             : IP-ROCIS
   Kantharuban Sivalingam : CASSCF convergence, NEVPT2, FIC-MRCI
   Bernardo de Souza      : ESD, SOC TD-DFT
   Georgi Stoychev        : AutoAux, RI-MP2 NMR
   Willem Van den Heuvel  : Paramagnetic NMR
   Boris Wezisla          : Elementary symmetry handling
   Frank Wennmohs         : Technical directorship


 We gratefully acknowledge several colleagues who have allowed us to
 interface, adapt or use parts of their codes:
   Stefan Grimme, W. Hujo, H. Kruse,             : VdW corrections, initial TS optimization,
                  C. Bannwarth                     DFT functionals, gCP, sTDA/sTD-DF
   Ed Valeev                                     : LibInt (2-el integral package), F12 methods
   Garnet Chan, S. Sharma, J. Yang, R. Olivares  : DMRG
   Ulf Ekstrom                                   : XCFun DFT Library
   Mihaly Kallay                                 : mrcc  (arbitrary order and MRCC methods)
   Andreas Klamt, Michael Diedenhofen            : otool_cosmo (COSMO solvation model)
   Jiri Pittner, Ondrej Demel                    : Mk-CCSD
   Frank Weinhold                                : gennbo (NPA and NBO analysis)
   Christopher J. Cramer and Donald G. Truhlar   : smd solvation model
   Lars Goerigk                                  : TD-DFT with DH, B97 family of functionals
   V. Asgeirsson, H. Jonsson                     : NEB implementation
   FAccTs GmbH                                   : IRC, NEB, NEB-TS, Multilevel


 Your calculation uses the libint2 library for the computation of 2-el integrals
 For citations please refer to: http://libint.valeyev.net

 This ORCA versions uses:
   CBLAS   interface :  Fast vector & matrix operations
   LAPACKE interface :  Fast linear algebra routines
   SCALAPACK package :  Parallel linear algebra routines


Your calculation utilizes the atom-pairwise dispersion correction
with the zero-damping scheme (D30)
Cite in your paper:
S.Grimme, J.Antony, S.Ehrlich and H.Krieg, J.Chem.Phys., 132, (2010), 154104 
   

XCFun DFT library Copyright 2009-2010 Ulf Ekstrom and contributors.
See http://admol.org/xcfun for more information. This is free soft-
ware; see the source code for copying conditions. There is ABSOLUTELY
NO WARRANTY; not even for MERCHANTABILITY or FITNESS FOR A PARTICULAR
PURPOSE. For details see the documentation. Scientific users of this 
library should cite U. Ekstrom, L. Visscher, R. Bast, A. J. Thorvald-
sen and K. Ruud; J.Chem.Theor.Comp. 2010, DOI: 10.1021/ct100117s
XCFun Version 0.99 
----- Orbital basis set information -----
Your calculation utilizes the basis: def2-TZVP
   F. Weigend and R. Ahlrichs, Phys. Chem. Chem. Phys. 7, 3297 (2005).

================================================================================
                                        WARNINGS
                       Please study these warnings very carefully!
================================================================================


INFO   : the flag for use of LIBINT has been found!

Your calculation utilizes the atom-pairwise dispersion correction
with the zero-damping scheme (D30)
Cite in your paper:
S.Grimme, J.Antony, S.Ehrlich and H.Krieg, J.Chem.Phys., 132, (2010), 154104 
   

XCFun DFT library Copyright 2009-2010 Ulf Ekstrom and contributors.
See http://admol.org/xcfun for more information. This is free soft-
ware; see the source code for copying conditions. There is ABSOLUTELY
NO WARRANTY; not even for MERCHANTABILITY or FITNESS FOR A PARTICULAR
PURPOSE. For details see the documentation. Scientific users of this 
library should cite U. Ekstrom, L. Visscher, R. Bast, A. J. Thorvald-
sen and K. Ruud; J.Chem.Theor.Comp. 2010, DOI: 10.1021/ct100117s
XCFun Version 0.99 
----- Orbital basis set information -----
Your calculation utilizes the basis: def2-TZVP
   F. Weigend and R. Ahlrichs, Phys. Chem. Chem. Phys. 7, 3297 (2005).

================================================================================
                                        WARNINGS
                       Please study these warnings very carefully!
================================================================================


WARNING: MOInp is set but Guess=PModel. MOInp will be ignored!
         To read the initial guess from a file you must also specify
         'MORead' in the simple input or 'Guess MORead' in the %scf block


INFO   : the flag for use of LIBINT has been found!

Your calculation utilizes the atom-pairwise dispersion correction
with the zero-damping scheme (D30)
Cite in your paper:
S.Grimme, J.Antony, S.Ehrlich and H.Krieg, J.Chem.Phys., 132, (2010), 154104 
   

XCFun DFT library Copyright 2009-2010 Ulf Ekstrom and contributors.
See http://admol.org/xcfun for more information. This is free soft-
ware; see the source code for copying conditions. There is ABSOLUTELY
NO WARRANTY; not even for MERCHANTABILITY or FITNESS FOR A PARTICULAR
PURPOSE. For details see the documentation. Scientific users of this 
library should cite U. Ekstrom, L. Visscher, R. Bast, A. J. Thorvald-
sen and K. Ruud; J.Chem.Theor.Comp. 2010, DOI: 10.1021/ct100117s
XCFun Version 0.99 
----- Orbital basis set information -----
Your calculation utilizes the basis: def2-TZVP
   F. Weigend and R. Ahlrichs, Phys. Chem. Chem. Phys. 7, 3297 (2005).

================================================================================
                                        WARNINGS
                       Please study these warnings very carefully!
================================================================================


WARNING: MOInp is set but Guess=PModel. MOInp will be ignored!
         To read the initial guess from a file you must also specify
         'MORead' in the simple input or 'Guess MORead' in the %scf block


INFO   : the flag for use of LIBINT has been found!

================================================================================
                                       INPUT FILE
================================================================================
NAME = 17-156.in
|  1> #Run DFT-D3 single point of the dimer
|  2> ! wB97X-D3 def2-TZVP TIGHTSCF CHELPG PMODEL PAL8
|  3> 
|  4> %base "17-156_DFT_AB"
|  5> 
|  6> %scf
|  7> MaxIter 1000
|  8> end
|  9> 
| 10> * xyz 0 1
| 11>   C                      -4.029235            9.908186             -7.570120           
| 12>   O                      -5.007800            10.875405            -7.276400           
| 13>   H                      -4.651881            11.612690            -6.757358           
| 14>   H                      -3.444197            9.656401             -6.654471           
| 15>   H                      -4.388459            9.014390             -8.010654           
| 16>   H                      -3.274616            10.329817            -8.183493           
| 17>   C                      -5.090652            10.797053            -10.607571          
| 18>   O                      -6.278800            11.079527            -9.839409           
| 19>   H                      -5.991345            10.938412            -8.916734           
| 20>   H                      -4.179100            11.073219            -10.103943          
| 21>   H                      -5.050562            9.757879             -10.921262          
| 22>   H                      -5.140320            11.390849            -11.568002          
| 23> *
| 24> 
| 25> #Run DFT-D3 single point of the molecule with dimer basis set
| 26> $new_job
| 27> %base "17-156_DFT_A"
| 28> ! wB97X-D3 def2-TZVP TIGHTSCF CHELPG PMODEL
| 29> 
| 30> %scf
| 31> MaxIter 1000
| 32> end
| 33> 
| 34> * xyz 0 1
| 35>   C                      -4.029235            9.908186             -7.570120           
| 36>   O                      -5.007800            10.875405            -7.276400           
| 37>   H                      -4.651881            11.612690            -6.757358           
| 38>   H                      -3.444197            9.656401             -6.654471           
| 39>   H                      -4.388459            9.014390             -8.010654           
| 40>   H                      -3.274616            10.329817            -8.183493           
| 41>   C                    : -5.090652            10.797053            -10.607571          
| 42>   O                    : -6.278800            11.079527            -9.839409           
| 43>   H                    : -5.991345            10.938412            -8.916734           
| 44>   H                    : -4.179100            11.073219            -10.103943          
| 45>   H                    : -5.050562            9.757879             -10.921262          
| 46>   H                    : -5.140320            11.390849            -11.568002          
| 47> *
| 48> 
| 49> #Run DFT-D3 single point of the particle with dimer basis set
| 50> $new_job
| 51> %base "17-156_DFT_B"
| 52> ! wB97X-D3 def2-TZVP TIGHTSCF CHELPG PMODEL
| 53> 
| 54> %scf
| 55> MaxIter 1000
| 56> end
| 57> 
| 58> * xyz 0 1
| 59>   C                    : -4.029235            9.908186             -7.570120           
| 60>   O                    : -5.007800            10.875405            -7.276400           
| 61>   H                    : -4.651881            11.612690            -6.757358           
| 62>   H                    : -3.444197            9.656401             -6.654471           
| 63>   H                    : -4.388459            9.014390             -8.010654           
| 64>   H                    : -3.274616            10.329817            -8.183493           
| 65>   C                      -5.090652            10.797053            -10.607571          
| 66>   O                      -6.278800            11.079527            -9.839409           
| 67>   H                      -5.991345            10.938412            -8.916734           
| 68>   H                      -4.179100            11.073219            -10.103943          
| 69>   H                      -5.050562            9.757879             -10.921262          
| 70>   H                      -5.140320            11.390849            -11.568002          
| 71> *
| 72> 
| 73>                          ****END OF INPUT****
================================================================================


                 $$$$$$$$$$$$$$$$$$$$$$$$$$$$$$$$$$$$$$$$$$$$$$ 
                 $ THERE ARE  3 JOBS TO BE PROCESSED THIS RUN $
                 $$$$$$$$$$$$$$$$$$$$$$$$$$$$$$$$$$$$$$$$$$$$$$ 




                 $$$$$$$$$$$$$$$$  JOB NUMBER  1 $$$$$$$$$$$$$$


                       ****************************
                       * Single Point Calculation *
                       ****************************

---------------------------------
CARTESIAN COORDINATES (ANGSTROEM)
---------------------------------
  C     -4.029235    9.908186   -7.570120
  O     -5.007800   10.875405   -7.276400
  H     -4.651881   11.612690   -6.757358
  H     -3.444197    9.656401   -6.654471
  H     -4.388459    9.014390   -8.010654
  H     -3.274616   10.329817   -8.183493
  C     -5.090652   10.797053  -10.607571
  O     -6.278800   11.079527   -9.839409
  H     -5.991345   10.938412   -8.916734
  H     -4.179100   11.073219  -10.103943
  H     -5.050562    9.757879  -10.921262
  H     -5.140320   11.390849  -11.568002

----------------------------
CARTESIAN COORDINATES (A.U.)
----------------------------
  NO LB      ZA    FRAG     MASS         X           Y           Z
   0 C     6.0000    0    12.011   -7.614151   18.723758  -14.305454
   1 O     8.0000    0    15.999   -9.463371   20.551537  -13.750403
   2 H     1.0000    0     1.008   -8.790781   21.944804  -12.769556
   3 H     1.0000    0     1.008   -6.508589   18.247953  -12.575128
   4 H     1.0000    0     1.008   -8.292986   17.034728  -15.137942
   5 H     1.0000    0     1.008   -6.188127   19.520525  -15.464561
   6 C     6.0000    0    12.011   -9.619938   20.403473  -20.045404
   7 O     8.0000    0    15.999  -11.865212   20.937272  -18.593788
   8 H     1.0000    0     1.008  -11.322001   20.670603  -16.850185
   9 H     1.0000    0     1.008   -7.897354   20.925351  -19.093685
  10 H     1.0000    0     1.008   -9.544179   18.439719  -20.638194
  11 H     1.0000    0     1.008   -9.713797   21.525585  -21.860356

--------------------------------
INTERNAL COORDINATES (ANGSTROEM)
--------------------------------
 C      0   0   0     0.000000000000     0.00000000     0.00000000
 O      1   0   0     1.406902090263     0.00000000     0.00000000
 H      2   1   0     0.969366857052   112.28979609     0.00000000
 H      1   2   3     1.115382552701   110.40363839    46.88786196
 H      1   2   3     1.059237167469   115.53407993   171.39451265
 H      1   2   3     1.059928758196   110.03141496   296.21616449
 C      6   1   2     3.064710489276    95.53733661   294.30492392
 O      7   6   1     1.442761272291    95.54974379    33.52455474
 H      8   7   6     0.976664208352   103.43382037   356.37414649
 H      7   6   1     1.077420934753    33.69651166   158.58732889
 H      7   6   1     1.086228269682    93.47996327   281.20287933
 H      7   6   1     1.130260282236   141.10076314   161.97347098

---------------------------
INTERNAL COORDINATES (A.U.)
---------------------------
 C      0   0   0     0.000000000000     0.00000000     0.00000000
 O      1   0   0     2.658659647838     0.00000000     0.00000000
 H      2   1   0     1.831837883127   112.28979609     0.00000000
 H      1   2   3     2.107767559159   110.40363839    46.88786196
 H      1   2   3     2.001668157387   115.53407993   171.39451265
 H      1   2   3     2.002975074458   110.03141496   296.21616449
 C      6   1   2     5.791463504487    95.53733661   294.30492392
 O      7   6   1     2.726423681259    95.54974379    33.52455474
 H      8   7   6     1.845627878587   103.43382037   356.37414649
 H      7   6   1     2.036030497637    33.69651166   158.58732889
 H      7   6   1     2.052673948623    93.47996327   281.20287933
 H      7   6   1     2.135882393475   141.10076314   161.97347098

---------------------
BASIS SET INFORMATION
---------------------
There are 3 groups of distinct atoms

 Group   1 Type C   : 11s6p2d1f contracted to 5s3p2d1f pattern {62111/411/11/1}
 Group   2 Type O   : 11s6p2d1f contracted to 5s3p2d1f pattern {62111/411/11/1}
 Group   3 Type H   : 5s1p contracted to 3s1p pattern {311/1}

Atom   0C    basis set group =>   1
Atom   1O    basis set group =>   2
Atom   2H    basis set group =>   3
Atom   3H    basis set group =>   3
Atom   4H    basis set group =>   3
Atom   5H    basis set group =>   3
Atom   6C    basis set group =>   1
Atom   7O    basis set group =>   2
Atom   8H    basis set group =>   3
Atom   9H    basis set group =>   3
Atom  10H    basis set group =>   3
Atom  11H    basis set group =>   3


           ************************************************************
           *        Program running with 8 parallel MPI-processes     *
           *              working on a common directory               *
           ************************************************************
------------------------------------------------------------------------------
                           ORCA GTO INTEGRAL CALCULATION
------------------------------------------------------------------------------

                         BASIS SET STATISTICS AND STARTUP INFO

 # of primitive gaussian shells          ...  128
 # of primitive gaussian functions       ...  248
 # of contracted shells                  ...   76
 # of contracted basis functions         ...  172
 Highest angular momentum                ...    3
 Maximum contraction depth               ...    6
 Integral package used                   ... LIBINT
 Integral threshhold            Thresh   ...  2.500e-11
 Primitive cut-off              TCut     ...  2.500e-12


------------------------------ INTEGRAL EVALUATION ----------------------------


 * One electron integrals 
 Pre-screening matrix                    ... done
 Shell pair data                         ... done (   0.001 sec)



           ************************************************************
           *        Program running with 8 parallel MPI-processes     *
           *              working on a common directory               *
           ************************************************************
-------------------------------------------------------------------------------
                                 ORCA SCF
-------------------------------------------------------------------------------

------------
SCF SETTINGS
------------
Hamiltonian:
 Density Functional     Method          .... DFT(GTOs)
 Exchange Functional    Exchange        .... WB97X-D3
 Correlation Functional Correlation     .... WB97X-D3
 Gradients option       PostSCFGGA      .... off
 Hybrid DFT is turned on
   Fraction HF Exchange ScalHFX         ....  0.195728
   Scaling of DF-GGA-X  ScalDFX         ....  0.000000
   Scaling of DF-GGA-C  ScalDFC         ....  1.000000
   Scaling of DF-LDA-C  ScalLDAC        ....  1.000000
   Perturbative correction              ....  0.000000
   Density functional embedding theory  .... OFF
 Long-range corrected/Screened/Range-Separated Hybrid DFT is turned on
   Amount of maximum screened exact exchange              ....  0.804272
   Range separation parameter mu (erf(mu*r12)/r12)        ....  0.250000


General Settings:
 Integral files         IntName         .... 17-156_DFT_AB
 Hartree-Fock type      HFTyp           .... RHF
 Total Charge           Charge          ....    0
 Multiplicity           Mult            ....    1
 Number of Electrons    NEL             ....   36
 Basis Dimension        Dim             ....  172
 Nuclear Repulsion      ENuc            ....    133.3377226753 Eh

Convergence Acceleration:
 DIIS                   CNVDIIS         .... on
   Start iteration      DIISMaxIt       ....    12
   Startup error        DIISStart       ....  0.200000
   # of expansion vecs  DIISMaxEq       ....     5
   Bias factor          DIISBfac        ....   1.050
   Max. coefficient     DIISMaxC        ....  10.000
 Newton-Raphson         CNVNR           .... off
 SOSCF                  CNVSOSCF        .... on
   Start iteration      SOSCFMaxIt      ....   150
   Startup grad/error   SOSCFStart      ....  0.003300
 Level Shifting         CNVShift        .... on
   Level shift para.    LevelShift      ....    0.2500
   Turn off err/grad.   ShiftErr        ....    0.0010
 Zerner damping         CNVZerner       .... off
 Static damping         CNVDamp         .... on
   Fraction old density DampFac         ....    0.7000
   Max. Damping (<1)    DampMax         ....    0.9800
   Min. Damping (>=0)   DampMin         ....    0.0000
   Turn off err/grad.   DampErr         ....    0.1000
 Fernandez-Rico         CNVRico         .... off

SCF Procedure:
 Maximum # iterations   MaxIter         ....  1000
 SCF integral mode      SCFMode         .... Direct
   Integral package                     .... LIBINT
 Reset frequency        DirectResetFreq ....    20
 Integral Threshold     Thresh          ....  2.500e-11 Eh
 Primitive CutOff       TCut            ....  2.500e-12 Eh

Convergence Tolerance:
 Convergence Check Mode ConvCheckMode   .... Total+1el-Energy
 Convergence forced     ConvForced      .... 0
 Energy Change          TolE            ....  1.000e-08 Eh
 1-El. energy change                    ....  1.000e-05 Eh
 Orbital Gradient       TolG            ....  1.000e-05
 Orbital Rotation angle TolX            ....  1.000e-05
 DIIS Error             TolErr          ....  5.000e-07


Diagonalization of the overlap matrix:
Smallest eigenvalue                        ... 1.090e-03
Time for diagonalization                   ...    0.005 sec
Threshold for overlap eigenvalues          ... 1.000e-08
Number of eigenvalues below threshold      ... 0
Time for construction of square roots      ...    0.009 sec
Total time needed                          ...    0.013 sec

-------------------
DFT GRID GENERATION
-------------------

General Integration Accuracy     IntAcc      ...  4.340
Radial Grid Type                 RadialGrid  ... Gauss-Chebyshev
Angular Grid (max. acc.)         AngularGrid ... Lebedev-110
Angular grid pruning method      GridPruning ... 3 (G Style)
Weight generation scheme         WeightScheme... Becke
Basis function cutoff            BFCut       ...    1.0000e-11
Integration weight cutoff        WCut        ...    1.0000e-14
Grids for H and He will be reduced by one unit

# of grid points (after initial pruning)     ...  13096 (   0.0 sec)
# of grid points (after weights+screening)   ...  12424 (   0.0 sec)
nearest neighbour list constructed           ...    0.0 sec
Grid point re-assignment to atoms done       ...    0.0 sec
Grid point division into batches done        ...    0.0 sec
Reduced shell lists constructed in    0.0 sec

Total number of grid points                  ...    12424
Total number of batches                      ...      200
Average number of points per batch           ...       62
Average number of grid points per atom       ...     1035
Average number of shells per batch           ...    59.92 (78.85%)
Average number of basis functions per batch  ...   137.46 (79.92%)
Average number of large shells per batch     ...    49.96 (83.38%)
Average number of large basis fcns per batch ...   111.42 (81.06%)
Maximum spatial batch extension              ...  13.95, 10.24, 10.37 au
Average spatial batch extension              ...   0.27,  0.26,  0.26 au

Time for grid setup =    0.039 sec

------------------------------
INITIAL GUESS: MODEL POTENTIAL
------------------------------
Loading Hartree-Fock densities                     ... done
Calculating cut-offs                               ... done
Setting up the integral package                    ... done
Initializing the effective Hamiltonian             ... done
Starting the Coulomb interaction                   ... done (   0.0 sec)
Reading the grid                                   ... done
Mapping shells                                     ... done
Starting the XC term evaluation                    ... done (   0.0 sec)
  promolecular density results
     # of electrons  =     35.993043394
     EX              =    -28.865151981
     EC              =     -1.159961357
     EX+EC           =    -30.025113338
Transforming the Hamiltonian                       ... done (   0.0 sec)
Diagonalizing the Hamiltonian                      ... done (   0.0 sec)
Back transforming the eigenvectors                 ... done (   0.0 sec)
Now organizing SCF variables                       ... done
                      ------------------
                      INITIAL GUESS DONE (   0.2 sec)
                      ------------------
--------------
SCF ITERATIONS
--------------
ITER       Energy         Delta-E        Max-DP      RMS-DP      [F,P]     Damp
               ***  Starting incremental Fock matrix formation  ***
  0   -231.3104042189   0.000000000000 0.03727050  0.00103448  0.2437720 0.7000
  1   -231.3785601953  -0.068155976361 0.02318261  0.00073995  0.1210311 0.7000
                               ***Turning on DIIS***
  2   -231.4103622638  -0.031802068463 0.03636675  0.00135778  0.0455024 0.0000
  3   -231.4622682017  -0.051905937963 0.01859762  0.00048596  0.0618487 0.0000
  4   -231.4705178678  -0.008249666094 0.00407832  0.00009674  0.0058434 0.0000
                      *** Initiating the SOSCF procedure ***
                           *** Shutting down DIIS ***
                      *** Re-Reading the Fockian *** 
                      *** Removing any level shift *** 
ITER      Energy       Delta-E        Grad      Rot      Max-DP    RMS-DP
  5   -231.47069003  -0.0001721615  0.000429  0.000429  0.000808  0.000035
               *** Restarting incremental Fock matrix formation ***
  6   -231.47070779  -0.0000177652  0.000157  0.000225  0.000519  0.000021
  7   -231.47070958  -0.0000017807  0.000043  0.000117  0.000241  0.000010
  8   -231.47070971  -0.0000001310  0.000032  0.000020  0.000051  0.000002
  9   -231.47070975  -0.0000000448  0.000009  0.000009  0.000022  0.000001
 10   -231.47070975  -0.0000000033  0.000003  0.000003  0.000006  0.000000
                  ***Gradient check signals convergence***
              ***Rediagonalizing the Fockian in SOSCF/NRSCF***

               *****************************************************
               *                     SUCCESS                       *
               *           SCF CONVERGED AFTER  11 CYCLES          *
               *****************************************************

Setting up the final grid:

General Integration Accuracy     IntAcc      ...  4.670
Radial Grid Type                 RadialGrid  ... Gauss-Chebyshev
Angular Grid (max. acc.)         AngularGrid ... Lebedev-302
Angular grid pruning method      GridPruning ... 3 (G Style)
Weight generation scheme         WeightScheme... Becke
Basis function cutoff            BFCut       ...    1.0000e-11
Integration weight cutoff        WCut        ...    1.0000e-14
Grids for H and He will be reduced by one unit

# of grid points (after initial pruning)     ...  52000 (   0.0 sec)
# of grid points (after weights+screening)   ...  48687 (   0.0 sec)
nearest neighbour list constructed           ...    0.0 sec
Grid point re-assignment to atoms done       ...    0.0 sec
Grid point division into batches done        ...    0.2 sec
Reduced shell lists constructed in    0.2 sec

Total number of grid points                  ...    48687
Total number of batches                      ...      766
Average number of points per batch           ...       63
Average number of grid points per atom       ...     4057
Average number of shells per batch           ...    59.12 (77.79%)
Average number of basis functions per batch  ...   133.95 (77.88%)
Average number of large shells per batch     ...    48.49 (82.02%)
Average number of large basis fcns per batch ...   108.10 (80.70%)
Maximum spatial batch extension              ...  13.86, 10.51, 11.60 au
Average spatial batch extension              ...   0.16,  0.17,  0.16 au

Final grid set up in    0.3 sec
Final integration                            ... done (   0.1 sec)
Change in XC energy                          ...    -0.000762531
Integrated number of electrons               ...    35.999857848
Previous integrated no of electrons          ...    35.996314665

----------------
TOTAL SCF ENERGY
----------------

Total Energy       :         -231.47147229 Eh           -6298.65898 eV

Components:
Nuclear Repulsion  :          133.33772268 Eh            3628.30389 eV
Electronic Energy  :         -364.80919496 Eh           -9926.96287 eV
One Electron Energy:         -579.44562613 Eh          -15767.51709 eV
Two Electron Energy:          214.63643117 Eh            5840.55422 eV

Virial components:
Potential Energy   :         -461.95002411 Eh          -12570.29922 eV
Kinetic Energy     :          230.47855183 Eh            6271.64024 eV
Virial Ratio       :            2.00430808


DFT components:
N(Alpha)           :       17.999928923916 electrons
N(Beta)            :       17.999928923916 electrons
N(Total)           :       35.999857847832 electrons
E(XC)              :      -21.311136064572 Eh       
DFET-embed. en.    :        0.000000000000 Eh       

---------------
SCF CONVERGENCE
---------------

  Last Energy change         ...   -1.3337e-09  Tolerance :   1.0000e-08
  Last MAX-Density change    ...    1.9220e-06  Tolerance :   1.0000e-07
  Last RMS-Density change    ...    7.5876e-08  Tolerance :   5.0000e-09
  Last Orbital Gradient      ...    9.4428e-07  Tolerance :   1.0000e-05
  Last Orbital Rotation      ...    8.5115e-07  Tolerance :   1.0000e-05

             **** THE GBW FILE WAS UPDATED (17-156_DFT_AB.gbw) ****
             **** DENSITY FILE WAS UPDATED (17-156_DFT_AB.scfp.tmp) ****
             **** ENERGY FILE WAS UPDATED (17-156_DFT_AB.en.tmp) ****
----------------
ORBITAL ENERGIES
----------------

  NO   OCC          E(Eh)            E(eV) 
   0   2.0000     -19.258493      -524.0502 
   1   2.0000     -19.204968      -522.5937 
   2   2.0000     -10.326819      -281.0070 
   3   2.0000     -10.301976      -280.3310 
   4   2.0000      -1.163122       -31.6502 
   5   2.0000      -1.101611       -29.9764 
   6   2.0000      -0.822749       -22.3881 
   7   2.0000      -0.776931       -21.1414 
   8   2.0000      -0.643350       -17.5064 
   9   2.0000      -0.595415       -16.2021 
  10   2.0000      -0.565294       -15.3824 
  11   2.0000      -0.544613       -14.8197 
  12   2.0000      -0.524068       -14.2606 
  13   2.0000      -0.499218       -13.5844 
  14   2.0000      -0.460955       -12.5432 
  15   2.0000      -0.423172       -11.5151 
  16   2.0000      -0.390153       -10.6166 
  17   2.0000      -0.352844        -9.6014 
  18   0.0000       0.094604         2.5743 
  19   0.0000       0.131495         3.5782 
  20   0.0000       0.162607         4.4248 
  21   0.0000       0.167719         4.5639 
  22   0.0000       0.186205         5.0669 
  23   0.0000       0.196141         5.3373 
  24   0.0000       0.219335         5.9684 
  25   0.0000       0.220845         6.0095 
  26   0.0000       0.270140         7.3509 
  27   0.0000       0.282474         7.6865 
  28   0.0000       0.293027         7.9737 
  29   0.0000       0.310890         8.4598 
  30   0.0000       0.321466         8.7475 
  31   0.0000       0.378727        10.3057 
  32   0.0000       0.407526        11.0893 
  33   0.0000       0.440269        11.9803 
  34   0.0000       0.457550        12.4506 
  35   0.0000       0.468211        12.7407 
  36   0.0000       0.487991        13.2789 
  37   0.0000       0.515773        14.0349 
  38   0.0000       0.518610        14.1121 
  39   0.0000       0.549169        14.9436 
  40   0.0000       0.552209        15.0264 
  41   0.0000       0.563878        15.3439 
  42   0.0000       0.582833        15.8597 
  43   0.0000       0.594622        16.1805 
  44   0.0000       0.608602        16.5609 
  45   0.0000       0.635567        17.2947 
  46   0.0000       0.644663        17.5422 
  47   0.0000       0.688480        18.7345 
  48   0.0000       0.707099        19.2412 
  49   0.0000       0.776528        21.1304 
  50   0.0000       0.778600        21.1868 
  51   0.0000       0.813872        22.1466 
  52   0.0000       0.829848        22.5813 
  53   0.0000       0.858737        23.3674 
  54   0.0000       0.903515        24.5859 
  55   0.0000       0.935221        25.4486 
  56   0.0000       0.996788        27.1240 
  57   0.0000       1.033648        28.1270 
  58   0.0000       1.047171        28.4950 
  59   0.0000       1.074984        29.2518 
  60   0.0000       1.095256        29.8034 
  61   0.0000       1.172206        31.8973 
  62   0.0000       1.405885        38.2561 
  63   0.0000       1.439241        39.1637 
  64   0.0000       1.479752        40.2661 
  65   0.0000       1.503833        40.9214 
  66   0.0000       1.545057        42.0431 
  67   0.0000       1.557361        42.3779 
  68   0.0000       1.581366        43.0312 
  69   0.0000       1.617395        44.0115 
  70   0.0000       1.633335        44.4453 
  71   0.0000       1.637661        44.5630 
  72   0.0000       1.654099        45.0103 
  73   0.0000       1.673709        45.5439 
  74   0.0000       1.676976        45.6328 
  75   0.0000       1.708575        46.4927 
  76   0.0000       1.714887        46.6645 
  77   0.0000       1.776788        48.3489 
  78   0.0000       1.812448        49.3192 
  79   0.0000       1.888479        51.3881 
  80   0.0000       1.948009        53.0080 
  81   0.0000       1.971958        53.6597 
  82   0.0000       2.001979        54.4766 
  83   0.0000       2.035875        55.3990 
  84   0.0000       2.056801        55.9684 
  85   0.0000       2.079780        56.5937 
  86   0.0000       2.093184        56.9584 
  87   0.0000       2.118533        57.6482 
  88   0.0000       2.161334        58.8129 
  89   0.0000       2.201962        59.9184 
  90   0.0000       2.262228        61.5584 
  91   0.0000       2.286405        62.2162 
  92   0.0000       2.313513        62.9539 
  93   0.0000       2.324051        63.2407 
  94   0.0000       2.378390        64.7193 
  95   0.0000       2.396760        65.2192 
  96   0.0000       2.451724        66.7148 
  97   0.0000       2.465491        67.0894 
  98   0.0000       2.482532        67.5531 
  99   0.0000       2.491335        67.7927 
 100   0.0000       2.496731        67.9395 
 101   0.0000       2.548641        69.3521 
 102   0.0000       2.577321        70.1325 
 103   0.0000       2.611866        71.0725 
 104   0.0000       2.657831        72.3233 
 105   0.0000       2.677927        72.8701 
 106   0.0000       2.702614        73.5419 
 107   0.0000       2.734014        74.3963 
 108   0.0000       2.813479        76.5587 
 109   0.0000       2.859344        77.8067 
 110   0.0000       2.873797        78.2000 
 111   0.0000       2.906383        79.0867 
 112   0.0000       2.936272        79.9000 
 113   0.0000       2.955619        80.4265 
 114   0.0000       3.022556        82.2479 
 115   0.0000       3.071293        83.5741 
 116   0.0000       3.107450        84.5580 
 117   0.0000       3.137552        85.3771 
 118   0.0000       3.167725        86.1982 
 119   0.0000       3.216835        87.5345 
 120   0.0000       3.263455        88.8031 
 121   0.0000       3.267952        88.9255 
 122   0.0000       3.369122        91.6785 
 123   0.0000       3.413764        92.8932 
 124   0.0000       3.440767        93.6280 
 125   0.0000       3.474678        94.5508 
 126   0.0000       3.500395        95.2506 
 127   0.0000       3.550150        96.6045 
 128   0.0000       3.581042        97.4451 
 129   0.0000       3.625041        98.6424 
 130   0.0000       3.634434        98.8980 
 131   0.0000       3.638540        99.0097 
 132   0.0000       3.683333       100.2286 
 133   0.0000       3.752468       102.1098 
 134   0.0000       3.977492       108.2331 
 135   0.0000       4.051000       110.2333 
 136   0.0000       4.249311       115.6296 
 137   0.0000       4.279700       116.4565 
 138   0.0000       4.303613       117.1073 
 139   0.0000       4.355523       118.5198 
 140   0.0000       4.464311       121.4801 
 141   0.0000       4.477691       121.8442 
 142   0.0000       4.561007       124.1113 
 143   0.0000       4.612793       125.5205 
 144   0.0000       5.341481       145.3491 
 145   0.0000       5.373426       146.2183 
 146   0.0000       5.389327       146.6510 
 147   0.0000       5.459841       148.5698 
 148   0.0000       5.542096       150.8081 
 149   0.0000       5.559812       151.2902 
 150   0.0000       5.755863       156.6250 
 151   0.0000       5.804457       157.9473 
 152   0.0000       5.814175       158.2117 
 153   0.0000       5.836268       158.8129 
 154   0.0000       5.940531       161.6501 
 155   0.0000       5.995595       163.1484 
 156   0.0000       6.290894       171.1839 
 157   0.0000       6.324262       172.0919 
 158   0.0000       6.553879       178.3401 
 159   0.0000       6.621444       180.1787 
 160   0.0000       6.710884       182.6124 
 161   0.0000       6.793451       184.8592 
 162   0.0000       6.809193       185.2875 
 163   0.0000       6.820501       185.5953 
 164   0.0000       7.020216       191.0298 
 165   0.0000       7.065938       192.2739 
 166   0.0000       7.177032       195.2970 
 167   0.0000       7.264968       197.6898 
 168   0.0000      22.349006       608.1474 
 169   0.0000      22.510331       612.5373 
 170   0.0000      43.698460      1189.0955 
 171   0.0000      43.791282      1191.6214 

                    ********************************
                    * MULLIKEN POPULATION ANALYSIS *
                    ********************************

-----------------------
MULLIKEN ATOMIC CHARGES
-----------------------
   0 C :   -0.194780
   1 O :   -0.507104
   2 H :    0.336032
   3 H :    0.117370
   4 H :    0.147127
   5 H :    0.117711
   6 C :   -0.163998
   7 O :   -0.483609
   8 H :    0.333445
   9 H :    0.084934
  10 H :    0.100686
  11 H :    0.112186
Sum of atomic charges:   -0.0000000

--------------------------------
MULLIKEN REDUCED ORBITAL CHARGES
--------------------------------
  0 C s       :     3.219131  s :     3.219131
      pz      :     1.088533  p :     2.871877
      px      :     0.868150
      py      :     0.915194
      dz2     :     0.006149  d :     0.096186
      dxz     :     0.026117
      dyz     :     0.018986
      dx2y2   :     0.031788
      dxy     :     0.013146
      f0      :     0.000740  f :     0.007587
      f+1     :     0.000897
      f-1     :     0.000599
      f+2     :     0.000223
      f-2     :     0.001949
      f+3     :     0.001624
      f-3     :     0.001556
  1 O s       :     3.793046  s :     3.793046
      pz      :     1.751090  p :     4.684294
      px      :     1.557007
      py      :     1.376196
      dz2     :     0.002944  d :     0.028070
      dxz     :     0.004921
      dyz     :     0.004964
      dx2y2   :     0.005116
      dxy     :     0.010124
      f0      :     0.000302  f :     0.001696
      f+1     :     0.000104
      f-1     :     0.000214
      f+2     :     0.000216
      f-2     :     0.000419
      f+3     :     0.000280
      f-3     :     0.000161
  2 H s       :     0.617786  s :     0.617786
      pz      :     0.017291  p :     0.046182
      px      :     0.012051
      py      :     0.016840
  3 H s       :     0.863332  s :     0.863332
      pz      :     0.009413  p :     0.019298
      px      :     0.006072
      py      :     0.003813
  4 H s       :     0.831866  s :     0.831866
      pz      :     0.006292  p :     0.021008
      px      :     0.004013
      py      :     0.010702
  5 H s       :     0.861156  s :     0.861156
      pz      :     0.007800  p :     0.021133
      px      :     0.008582
      py      :     0.004751
  6 C s       :     3.224644  s :     3.224644
      pz      :     0.987079  p :     2.836276
      px      :     0.800686
      py      :     1.048511
      dz2     :     0.023664  d :     0.095979
      dxz     :     0.011934
      dyz     :     0.020616
      dx2y2   :     0.020546
      dxy     :     0.019218
      f0      :     0.000384  f :     0.007099
      f+1     :     0.001445
      f-1     :     0.000326
      f+2     :     0.001636
      f-2     :     0.001117
      f+3     :     0.000770
      f-3     :     0.001421
  7 O s       :     3.798051  s :     3.798051
      pz      :     1.297761  p :     4.655027
      px      :     1.486016
      py      :     1.871250
      dz2     :     0.007465  d :     0.029071
      dxz     :     0.008640
      dyz     :     0.002450
      dx2y2   :     0.006052
      dxy     :     0.004463
      f0      :     0.000322  f :     0.001459
      f+1     :     0.000307
      f-1     :     0.000114
      f+2     :     0.000234
      f-2     :     0.000133
      f+3     :     0.000182
      f-3     :     0.000166
  8 H s       :     0.613421  s :     0.613421
      pz      :     0.024923  p :     0.053134
      px      :     0.012362
      py      :     0.015849
  9 H s       :     0.894742  s :     0.894742
      pz      :     0.005468  p :     0.020324
      px      :     0.010011
      py      :     0.004845
 10 H s       :     0.879262  s :     0.879262
      pz      :     0.005011  p :     0.020052
      px      :     0.003170
      py      :     0.011871
 11 H s       :     0.868901  s :     0.868901
      pz      :     0.009842  p :     0.018912
      px      :     0.002765
      py      :     0.006305


                     *******************************
                     * LOEWDIN POPULATION ANALYSIS *
                     *******************************

----------------------
LOEWDIN ATOMIC CHARGES
----------------------
   0 C :   -0.384817
   1 O :   -0.063949
   2 H :    0.183475
   3 H :    0.106789
   4 H :    0.107117
   5 H :    0.089467
   6 C :   -0.380018
   7 O :   -0.106939
   8 H :    0.160691
   9 H :    0.086847
  10 H :    0.090866
  11 H :    0.110469

-------------------------------
LOEWDIN REDUCED ORBITAL CHARGES
-------------------------------
  0 C s       :     2.848116  s :     2.848116
      pz      :     1.107185  p :     3.065441
      px      :     0.965625
      py      :     0.992632
      dz2     :     0.035700  d :     0.413012
      dxz     :     0.111825
      dyz     :     0.066863
      dx2y2   :     0.098944
      dxy     :     0.099681
      f0      :     0.006125  f :     0.058247
      f+1     :     0.007169
      f-1     :     0.006605
      f+2     :     0.003103
      f-2     :     0.010445
      f+3     :     0.012028
      f-3     :     0.012771
  1 O s       :     3.352648  s :     3.352648
      pz      :     1.655076  p :     4.636050
      px      :     1.593401
      py      :     1.387573
      dz2     :     0.006060  d :     0.070750
      dxz     :     0.011080
      dyz     :     0.015290
      dx2y2   :     0.017174
      dxy     :     0.021146
      f0      :     0.000634  f :     0.004501
      f+1     :     0.000344
      f-1     :     0.000307
      f+2     :     0.000352
      f-2     :     0.001121
      f+3     :     0.001040
      f-3     :     0.000702
  2 H s       :     0.662237  s :     0.662237
      pz      :     0.054750  p :     0.154288
      px      :     0.042342
      py      :     0.057196
  3 H s       :     0.836333  s :     0.836333
      pz      :     0.027809  p :     0.056878
      px      :     0.017019
      py      :     0.012050
  4 H s       :     0.826703  s :     0.826703
      pz      :     0.020166  p :     0.066180
      px      :     0.013713
      py      :     0.032300
  5 H s       :     0.843924  s :     0.843924
      pz      :     0.024683  p :     0.066609
      px      :     0.025743
      py      :     0.016183
  6 C s       :     2.869755  s :     2.869755
      pz      :     1.025036  p :     3.058972
      px      :     0.930530
      py      :     1.103406
      dz2     :     0.074786  d :     0.399640
      dxz     :     0.077519
      dyz     :     0.070767
      dx2y2   :     0.110034
      dxy     :     0.066533
      f0      :     0.005946  f :     0.051651
      f+1     :     0.009036
      f-1     :     0.003585
      f+2     :     0.008185
      f-2     :     0.009387
      f+3     :     0.006105
      f-3     :     0.009407
  7 O s       :     3.393422  s :     3.393422
      pz      :     1.316129  p :     4.645328
      px      :     1.543197
      py      :     1.786002
      dz2     :     0.019977  d :     0.064056
      dxz     :     0.018033
      dyz     :     0.005539
      dx2y2   :     0.011361
      dxy     :     0.009145
      f0      :     0.000616  f :     0.004133
      f+1     :     0.001322
      f-1     :     0.000161
      f+2     :     0.000666
      f-2     :     0.000525
      f+3     :     0.000446
      f-3     :     0.000396
  8 H s       :     0.670548  s :     0.670548
      pz      :     0.083512  p :     0.168762
      px      :     0.040388
      py      :     0.044861
  9 H s       :     0.849468  s :     0.849468
      pz      :     0.017685  p :     0.063684
      px      :     0.030037
      py      :     0.015962
 10 H s       :     0.847467  s :     0.847467
      pz      :     0.015218  p :     0.061667
      px      :     0.010290
      py      :     0.036159
 11 H s       :     0.835919  s :     0.835919
      pz      :     0.027122  p :     0.053612
      px      :     0.008428
      py      :     0.018062


                      *****************************
                      * MAYER POPULATION ANALYSIS *
                      *****************************

  NA   - Mulliken gross atomic population
  ZA   - Total nuclear charge
  QA   - Mulliken gross atomic charge
  VA   - Mayer's total valence
  BVA  - Mayer's bonded valence
  FA   - Mayer's free valence

  ATOM       NA         ZA         QA         VA         BVA        FA
  0 C      6.1948     6.0000    -0.1948     3.8995     3.8995     0.0000
  1 O      8.5071     8.0000    -0.5071     1.8720     1.8720    -0.0000
  2 H      0.6640     1.0000     0.3360     0.9007     0.9007     0.0000
  3 H      0.8826     1.0000     0.1174     0.9666     0.9666     0.0000
  4 H      0.8529     1.0000     0.1471     0.9559     0.9559     0.0000
  5 H      0.8823     1.0000     0.1177     0.9474     0.9474    -0.0000
  6 C      6.1640     6.0000    -0.1640     3.9684     3.9684    -0.0000
  7 O      8.4836     8.0000    -0.4836     1.8829     1.8829    -0.0000
  8 H      0.6666     1.0000     0.3334     0.9269     0.9269    -0.0000
  9 H      0.9151     1.0000     0.0849     0.9526     0.9526    -0.0000
 10 H      0.8993     1.0000     0.1007     0.9533     0.9533    -0.0000
 11 H      0.8878     1.0000     0.1122     0.9646     0.9646     0.0000

  Mayer bond orders larger than 0.1
B(  0-C ,  1-O ) :   0.9501 B(  0-C ,  3-H ) :   0.9766 B(  0-C ,  4-H ) :   0.9683 
B(  0-C ,  5-H ) :   0.9799 B(  1-O ,  2-H ) :   0.8796 B(  6-C ,  7-O ) :   1.0186 
B(  6-C ,  9-H ) :   0.9746 B(  6-C , 10-H ) :   0.9774 B(  6-C , 11-H ) :   0.9783 
B(  7-O ,  8-H ) :   0.8691 

-------
TIMINGS
-------

Total SCF time: 0 days 0 hours 0 min 20 sec 

Total time                  ....      20.435 sec
Sum of individual times     ....      20.030 sec  ( 98.0%)

Fock matrix formation       ....      19.431 sec  ( 95.1%)
  XC integration            ....       8.283 sec  ( 42.6% of F)
    Basis function eval.    ....       0.071 sec  (  0.9% of XC)
    Density eval.           ....       0.076 sec  (  0.9% of XC)
    XC-Functional eval.     ....       0.095 sec  (  1.1% of XC)
    XC-Potential eval.      ....       0.083 sec  (  1.0% of XC)
Diagonalization             ....       0.069 sec  (  0.3%)
Density matrix formation    ....       0.007 sec  (  0.0%)
Population analysis         ....       0.021 sec  (  0.1%)
Initial guess               ....       0.120 sec  (  0.6%)
Orbital Transformation      ....       0.000 sec  (  0.0%)
Orbital Orthonormalization  ....       0.000 sec  (  0.0%)
DIIS solution               ....       0.034 sec  (  0.2%)
SOSCF solution              ....       0.047 sec  (  0.2%)
Grid generation             ....       0.300 sec  (  1.5%)


-------------------------------------------------------------------------------
                          DFT DISPERSION CORRECTION                            
                                                                               
                              DFTD3 V3.1  Rev 1                                
                              USING zero damping                               
-------------------------------------------------------------------------------
The omegaB97X-D3 functional is recognized. Fit by Chai et al.
Active option DFTDOPT                   ...         3   

molecular C6(AA) [au] = 834.863718 


            DFT-D V3
 parameters
 s6 scaling factor         :     1.0000 
 rs6 scaling factor        :     1.2810 
 s8 scaling factor         :     1.0000 
 rs8 scaling factor        :     1.0940 
 Damping factor alpha6     :    14.0000 
 Damping factor alpha8     :    16.0000 
 ad hoc parameters k1-k3   :    16.0000     1.3333    -4.0000 

 Edisp/kcal,au: -1.481151024084  -0.002360364150 
 E6   /kcal   :  -0.588040772 
 E8   /kcal   :  -0.893110252 
 % E8         :  60.298392103 

-------------------------   ----------------
Dispersion correction           -0.002360364
-------------------------   ----------------


-------------------------   --------------------
FINAL SINGLE POINT ENERGY      -231.473832650612
-------------------------   --------------------


                            ***************************************
                            *     ORCA property calculations      *
                            ***************************************

                                    ---------------------
                                    Active property flags
                                    ---------------------
   (+) Dipole Moment


------------------------------------------------------------------------------
                       ORCA ELECTRIC PROPERTIES CALCULATION
------------------------------------------------------------------------------

Dipole Moment Calculation                       ... on
Quadrupole Moment Calculation                   ... off
Polarizability Calculation                      ... off
GBWName                                         ... 17-156_DFT_AB.gbw
Electron density file                           ... 17-156_DFT_AB.scfp.tmp
The origin for moment calculation is the CENTER OF MASS  = (-9.628589, 20.181518 -16.627046)

-------------
DIPOLE MOMENT
-------------
                                X             Y             Z
Electronic contribution:     -2.96461       1.41670       1.41007
Nuclear contribution   :      4.33820      -1.55150      -0.67464
                        -----------------------------------------
Total Dipole Moment    :      1.37359      -0.13480       0.73543
                        -----------------------------------------
Magnitude (a.u.)       :      1.56390
Magnitude (Debye)      :      3.97511



--------------------
Rotational spectrum 
--------------------
 
Rotational constants in cm-1:     0.416504     0.103506     0.088196 
Rotational constants in MHz : 12486.477149  3103.026317  2644.056684 

 Dipole components along the rotational axes: 
x,y,z [a.u.] :     1.210023    -0.830392    -0.540437 
x,y,z [Debye]:     3.075633    -2.110689    -1.373681 

 
------------------------------------------------------------------------------
                      ORCA CHELPG CHARGES GENERATION
------------------------------------------------------------------------------

GBW file                           ... 17-156_DFT_AB.gbw

Reading the GBW file               ... done

Grid spacing                       ...     0.300000
Point Cut-Off                      ...     2.800000
Van-der-Waals Radii                ...        COSMO
Total charge                       ...            0


Number of points X direction       ...           28
Number of points Y direction       ...           27
Number of points Z direction       ...           35
Maximum number of possible points  ...        26460
Final number of points             ...         9198


CHELPG Charges            
--------------------------------
  0   C   :       0.119959
  1   O   :      -0.618976
  2   H   :       0.428524
  3   H   :       0.007261
  4   H   :       0.076581
  5   H   :       0.030370
  6   C   :       0.107493
  7   O   :      -0.600546
  8   H   :       0.389090
  9   H   :      -0.014440
 10   H   :       0.022047
 11   H   :       0.052637
--------------------------------
Total charge:     0.000000
--------------------------------

CHELPG charges calculated...

Timings for individual parts in CHELPG calculation:
Grid generation                 ...        0.001 sec (=   0.000 min)
Potential calculation           ...        2.145 sec (=   0.036 min)
Fit to the potential            ...        0.003 sec (=   0.000 min)
------------------------------------------------------------------------------


Timings for individual modules:

Sum of individual times         ...       31.154 sec (=   0.519 min)
GTO integral calculation        ...        4.647 sec (=   0.077 min)  14.9 %
SCF iterations                  ...       24.328 sec (=   0.405 min)  78.1 %
CHELPG charge generation        ...        2.179 sec (=   0.036 min)   7.0 %


                 $$$$$$$$$$$$$$$$  JOB NUMBER  2 $$$$$$$$$$$$$$


                       ****************************
                       * Single Point Calculation *
                       ****************************

---------------------------------
CARTESIAN COORDINATES (ANGSTROEM)
---------------------------------
  C     -4.029235    9.908186   -7.570120
  O     -5.007800   10.875405   -7.276400
  H     -4.651881   11.612690   -6.757358
  H     -3.444197    9.656401   -6.654471
  H     -4.388459    9.014390   -8.010654
  H     -3.274616   10.329817   -8.183493
  C     -5.090652   10.797053  -10.607571
  O     -6.278800   11.079527   -9.839409
  H     -5.991345   10.938412   -8.916734
  H     -4.179100   11.073219  -10.103943
  H     -5.050562    9.757879  -10.921262
  H     -5.140320   11.390849  -11.568002

----------------------------
CARTESIAN COORDINATES (A.U.)
----------------------------
  NO LB      ZA    FRAG     MASS         X           Y           Z
   0 C     6.0000    0    12.011   -7.614151   18.723758  -14.305454
   1 O     8.0000    0    15.999   -9.463371   20.551537  -13.750403
   2 H     1.0000    0     1.008   -8.790781   21.944804  -12.769556
   3 H     1.0000    0     1.008   -6.508589   18.247953  -12.575128
   4 H     1.0000    0     1.008   -8.292986   17.034728  -15.137942
   5 H     1.0000    0     1.008   -6.188127   19.520525  -15.464561
   6 C     0.0000    0     0.000   -9.619938   20.403473  -20.045404
   7 O     0.0000    0     0.000  -11.865212   20.937272  -18.593788
   8 H     0.0000    0     0.000  -11.322001   20.670603  -16.850185
   9 H     0.0000    0     0.000   -7.897354   20.925351  -19.093685
  10 H     0.0000    0     0.000   -9.544179   18.439719  -20.638194
  11 H     0.0000    0     0.000   -9.713797   21.525585  -21.860356

--------------------------------
INTERNAL COORDINATES (ANGSTROEM)
--------------------------------
 C      0   0   0     0.000000000000     0.00000000     0.00000000
 O      1   0   0     1.406902090263     0.00000000     0.00000000
 H      2   1   0     0.969366857052   112.28979609     0.00000000
 H      1   2   3     1.115382552701   110.40363839    46.88786196
 H      1   2   3     1.059237167469   115.53407993   171.39451265
 H      1   2   3     1.059928758196   110.03141496   296.21616449
 C      6   1   2     3.064710489276    95.53733661   294.30492392
 O      7   6   1     1.442761272291    95.54974379    33.52455474
 H      8   7   6     0.976664208352   103.43382037   356.37414649
 H      7   6   1     1.077420934753    33.69651166   158.58732889
 H      7   6   1     1.086228269682    93.47996327   281.20287933
 H      7   6   1     1.130260282236   141.10076314   161.97347098

---------------------------
INTERNAL COORDINATES (A.U.)
---------------------------
 C      0   0   0     0.000000000000     0.00000000     0.00000000
 O      1   0   0     2.658659647838     0.00000000     0.00000000
 H      2   1   0     1.831837883127   112.28979609     0.00000000
 H      1   2   3     2.107767559159   110.40363839    46.88786196
 H      1   2   3     2.001668157387   115.53407993   171.39451265
 H      1   2   3     2.002975074458   110.03141496   296.21616449
 C      6   1   2     5.791463504487    95.53733661   294.30492392
 O      7   6   1     2.726423681259    95.54974379    33.52455474
 H      8   7   6     1.845627878587   103.43382037   356.37414649
 H      7   6   1     2.036030497637    33.69651166   158.58732889
 H      7   6   1     2.052673948623    93.47996327   281.20287933
 H      7   6   1     2.135882393475   141.10076314   161.97347098

---------------------
BASIS SET INFORMATION
---------------------
There are 3 groups of distinct atoms

 Group   1 Type C   : 11s6p2d1f contracted to 5s3p2d1f pattern {62111/411/11/1}
 Group   2 Type O   : 11s6p2d1f contracted to 5s3p2d1f pattern {62111/411/11/1}
 Group   3 Type H   : 5s1p contracted to 3s1p pattern {311/1}

Atom   0C    basis set group =>   1
Atom   1O    basis set group =>   2
Atom   2H    basis set group =>   3
Atom   3H    basis set group =>   3
Atom   4H    basis set group =>   3
Atom   5H    basis set group =>   3
Atom   6C    basis set group =>   1
Atom   7O    basis set group =>   2
Atom   8H    basis set group =>   3
Atom   9H    basis set group =>   3
Atom  10H    basis set group =>   3
Atom  11H    basis set group =>   3


           ************************************************************
           *        Program running with 8 parallel MPI-processes     *
           *              working on a common directory               *
           ************************************************************
------------------------------------------------------------------------------
                           ORCA GTO INTEGRAL CALCULATION
------------------------------------------------------------------------------

                         BASIS SET STATISTICS AND STARTUP INFO

 # of primitive gaussian shells          ...  128
 # of primitive gaussian functions       ...  248
 # of contracted shells                  ...   76
 # of contracted basis functions         ...  172
 Highest angular momentum                ...    3
 Maximum contraction depth               ...    6
 Integral package used                   ... LIBINT
 Integral threshhold            Thresh   ...  2.500e-11
 Primitive cut-off              TCut     ...  2.500e-12


------------------------------ INTEGRAL EVALUATION ----------------------------


 * One electron integrals 
 Pre-screening matrix                    ... done
 Shell pair data                         ... done (   0.001 sec)



           ************************************************************
           *        Program running with 8 parallel MPI-processes     *
           *              working on a common directory               *
           ************************************************************
-------------------------------------------------------------------------------
                                 ORCA SCF
-------------------------------------------------------------------------------

------------
SCF SETTINGS
------------
Hamiltonian:
 Density Functional     Method          .... DFT(GTOs)
 Exchange Functional    Exchange        .... WB97X-D3
 Correlation Functional Correlation     .... WB97X-D3
 Gradients option       PostSCFGGA      .... off
 Hybrid DFT is turned on
   Fraction HF Exchange ScalHFX         ....  0.195728
   Scaling of DF-GGA-X  ScalDFX         ....  0.000000
   Scaling of DF-GGA-C  ScalDFC         ....  1.000000
   Scaling of DF-LDA-C  ScalLDAC        ....  1.000000
   Perturbative correction              ....  0.000000
   Density functional embedding theory  .... OFF
 Long-range corrected/Screened/Range-Separated Hybrid DFT is turned on
   Amount of maximum screened exact exchange              ....  0.804272
   Range separation parameter mu (erf(mu*r12)/r12)        ....  0.250000


General Settings:
 Integral files         IntName         .... 17-156_DFT_A
 Hartree-Fock type      HFTyp           .... RHF
 Total Charge           Charge          ....    0
 Multiplicity           Mult            ....    1
 Number of Electrons    NEL             ....   18
 Basis Dimension        Dim             ....  172
 Nuclear Repulsion      ENuc            ....     40.5569775005 Eh

Convergence Acceleration:
 DIIS                   CNVDIIS         .... on
   Start iteration      DIISMaxIt       ....    12
   Startup error        DIISStart       ....  0.200000
   # of expansion vecs  DIISMaxEq       ....     5
   Bias factor          DIISBfac        ....   1.050
   Max. coefficient     DIISMaxC        ....  10.000
 Newton-Raphson         CNVNR           .... off
 SOSCF                  CNVSOSCF        .... on
   Start iteration      SOSCFMaxIt      ....   150
   Startup grad/error   SOSCFStart      ....  0.003300
 Level Shifting         CNVShift        .... on
   Level shift para.    LevelShift      ....    0.2500
   Turn off err/grad.   ShiftErr        ....    0.0010
 Zerner damping         CNVZerner       .... off
 Static damping         CNVDamp         .... on
   Fraction old density DampFac         ....    0.7000
   Max. Damping (<1)    DampMax         ....    0.9800
   Min. Damping (>=0)   DampMin         ....    0.0000
   Turn off err/grad.   DampErr         ....    0.1000
 Fernandez-Rico         CNVRico         .... off

SCF Procedure:
 Maximum # iterations   MaxIter         ....  1000
 SCF integral mode      SCFMode         .... Direct
   Integral package                     .... LIBINT
 Reset frequency        DirectResetFreq ....    20
 Integral Threshold     Thresh          ....  2.500e-11 Eh
 Primitive CutOff       TCut            ....  2.500e-12 Eh

Convergence Tolerance:
 Convergence Check Mode ConvCheckMode   .... Total+1el-Energy
 Convergence forced     ConvForced      .... 0
 Energy Change          TolE            ....  1.000e-08 Eh
 1-El. energy change                    ....  1.000e-05 Eh
 Orbital Gradient       TolG            ....  1.000e-05
 Orbital Rotation angle TolX            ....  1.000e-05
 DIIS Error             TolErr          ....  5.000e-07


Diagonalization of the overlap matrix:
Smallest eigenvalue                        ... 1.090e-03
Time for diagonalization                   ...    0.004 sec
Threshold for overlap eigenvalues          ... 1.000e-08
Number of eigenvalues below threshold      ... 0
Time for construction of square roots      ...    0.006 sec
Total time needed                          ...    0.011 sec

-------------------
DFT GRID GENERATION
-------------------

General Integration Accuracy     IntAcc      ...  4.340
Radial Grid Type                 RadialGrid  ... Gauss-Chebyshev
Angular Grid (max. acc.)         AngularGrid ... Lebedev-110
Angular grid pruning method      GridPruning ... 3 (G Style)
Weight generation scheme         WeightScheme... Becke
Basis function cutoff            BFCut       ...    1.0000e-11
Integration weight cutoff        WCut        ...    1.0000e-14
Grids for H and He will be reduced by one unit

# of grid points (after initial pruning)     ...  13096 (   0.0 sec)
# of grid points (after weights+screening)   ...  12424 (   0.0 sec)
nearest neighbour list constructed           ...    0.0 sec
Grid point re-assignment to atoms done       ...    0.0 sec
Grid point division into batches done        ...    0.0 sec
Reduced shell lists constructed in    0.0 sec

Total number of grid points                  ...    12424
Total number of batches                      ...      200
Average number of points per batch           ...       62
Average number of grid points per atom       ...     1035
Average number of shells per batch           ...    59.92 (78.85%)
Average number of basis functions per batch  ...   137.46 (79.92%)
Average number of large shells per batch     ...    49.96 (83.38%)
Average number of large basis fcns per batch ...   111.42 (81.06%)
Maximum spatial batch extension              ...  13.95, 10.24, 10.37 au
Average spatial batch extension              ...   0.27,  0.26,  0.26 au

Time for grid setup =    0.040 sec

------------------------------
INITIAL GUESS: MODEL POTENTIAL
------------------------------
Loading Hartree-Fock densities                     ... done
Calculating cut-offs                               ... done
Setting up the integral package                    ... done
Initializing the effective Hamiltonian             ... done
Starting the Coulomb interaction                   ... done (   0.0 sec)
Reading the grid                                   ... done
Mapping shells                                     ... done
Starting the XC term evaluation                    ... done (   0.0 sec)
  promolecular density results
     # of electrons  =     17.999099340
     EX              =    -14.436703418
     EC              =     -0.575824629
     EX+EC           =    -15.012528047
Transforming the Hamiltonian                       ... done (   0.0 sec)
Diagonalizing the Hamiltonian                      ... done (   0.0 sec)
Back transforming the eigenvectors                 ... done (   0.0 sec)
Now organizing SCF variables                       ... done
                      ------------------
                      INITIAL GUESS DONE (   0.2 sec)
                      ------------------
--------------
SCF ITERATIONS
--------------
ITER       Energy         Delta-E        Max-DP      RMS-DP      [F,P]     Damp
               ***  Starting incremental Fock matrix formation  ***
  0   -115.6424916758   0.000000000000 0.03663640  0.00077235  0.2434426 0.7000
  1   -115.6805792829  -0.038087607082 0.02140836  0.00055103  0.1207635 0.7000
                               ***Turning on DIIS***
  2   -115.6981991841  -0.017619901151 0.03181323  0.00099677  0.0456356 0.0000
  3   -115.7268618038  -0.028662619700 0.01768740  0.00036373  0.0606376 0.0000
  4   -115.7315223521  -0.004660548323 0.00406714  0.00007009  0.0060267 0.0000
                      *** Initiating the SOSCF procedure ***
                           *** Shutting down DIIS ***
                      *** Re-Reading the Fockian *** 
                      *** Removing any level shift *** 
ITER      Energy       Delta-E        Grad      Rot      Max-DP    RMS-DP
  5   -115.73161634  -0.0000939919  0.000424  0.000424  0.000718  0.000024
               *** Restarting incremental Fock matrix formation ***
  6   -115.73162502  -0.0000086785  0.000134  0.000164  0.000504  0.000014
  7   -115.73162583  -0.0000008085  0.000047  0.000094  0.000234  0.000006
  8   -115.73162590  -0.0000000711  0.000016  0.000014  0.000026  0.000001
  9   -115.73162591  -0.0000000060  0.000011  0.000008  0.000013  0.000000
                  ***Gradient check signals convergence***
              ***Rediagonalizing the Fockian in SOSCF/NRSCF***

               *****************************************************
               *                     SUCCESS                       *
               *           SCF CONVERGED AFTER  10 CYCLES          *
               *****************************************************

Setting up the final grid:

General Integration Accuracy     IntAcc      ...  4.670
Radial Grid Type                 RadialGrid  ... Gauss-Chebyshev
Angular Grid (max. acc.)         AngularGrid ... Lebedev-302
Angular grid pruning method      GridPruning ... 3 (G Style)
Weight generation scheme         WeightScheme... Becke
Basis function cutoff            BFCut       ...    1.0000e-11
Integration weight cutoff        WCut        ...    1.0000e-14
Grids for H and He will be reduced by one unit

# of grid points (after initial pruning)     ...  52000 (   0.0 sec)
# of grid points (after weights+screening)   ...  48687 (   0.0 sec)
nearest neighbour list constructed           ...    0.0 sec
Grid point re-assignment to atoms done       ...    0.0 sec
Grid point division into batches done        ...    0.2 sec
Reduced shell lists constructed in    0.2 sec

Total number of grid points                  ...    48687
Total number of batches                      ...      766
Average number of points per batch           ...       63
Average number of grid points per atom       ...     4057
Average number of shells per batch           ...    59.12 (77.79%)
Average number of basis functions per batch  ...   133.95 (77.88%)
Average number of large shells per batch     ...    48.49 (82.02%)
Average number of large basis fcns per batch ...   108.10 (80.70%)
Maximum spatial batch extension              ...  13.86, 10.51, 11.60 au
Average spatial batch extension              ...   0.16,  0.17,  0.16 au

Final grid set up in    0.2 sec
Final integration                            ... done (   0.1 sec)
Change in XC energy                          ...    -0.000099806
Integrated number of electrons               ...    17.999835950
Previous integrated no of electrons          ...    17.998952248

----------------
TOTAL SCF ENERGY
----------------

Total Energy       :         -115.73172572 Eh           -3149.22036 eV

Components:
Nuclear Repulsion  :           40.55697750 Eh            1103.61146 eV
Electronic Energy  :         -156.28870322 Eh           -4252.83182 eV
One Electron Energy:         -237.51573019 Eh           -6463.13160 eV
Two Electron Energy:           81.22702698 Eh            2210.29977 eV

Virial components:
Potential Energy   :         -231.02282622 Eh           -6286.45070 eV
Kinetic Energy     :          115.29110050 Eh            3137.23034 eV
Virial Ratio       :            2.00382185


DFT components:
N(Alpha)           :        8.999917974954 electrons
N(Beta)            :        8.999917974954 electrons
N(Total)           :       17.999835949908 electrons
E(XC)              :      -10.664304543907 Eh       
DFET-embed. en.    :        0.000000000000 Eh       

---------------
SCF CONVERGENCE
---------------

  Last Energy change         ...   -1.6847e-09  Tolerance :   1.0000e-08
  Last MAX-Density change    ...    3.5644e-06  Tolerance :   1.0000e-07
  Last RMS-Density change    ...    9.8746e-08  Tolerance :   5.0000e-09
  Last Orbital Gradient      ...    2.1721e-06  Tolerance :   1.0000e-05
  Last Orbital Rotation      ...    2.2054e-06  Tolerance :   1.0000e-05

             **** THE GBW FILE WAS UPDATED (17-156_DFT_A.gbw) ****
             **** DENSITY FILE WAS UPDATED (17-156_DFT_A.scfp.tmp) ****
             **** ENERGY FILE WAS UPDATED (17-156_DFT_A.en.tmp) ****
----------------
ORBITAL ENERGIES
----------------

  NO   OCC          E(Eh)            E(eV) 
   0   2.0000     -19.229135      -523.2514 
   1   2.0000     -10.308038      -280.4960 
   2   2.0000      -1.133752       -30.8510 
   3   2.0000      -0.801109       -21.7993 
   4   2.0000      -0.615071       -16.7369 
   5   2.0000      -0.542635       -14.7659 
   6   2.0000      -0.532959       -14.5026 
   7   2.0000      -0.431486       -11.7413 
   8   2.0000      -0.368361       -10.0236 
   9   0.0000       0.095897         2.6095 
  10   0.0000       0.124822         3.3966 
  11   0.0000       0.154844         4.2135 
  12   0.0000       0.184870         5.0306 
  13   0.0000       0.197586         5.3766 
  14   0.0000       0.209499         5.7007 
  15   0.0000       0.223852         6.0913 
  16   0.0000       0.235787         6.4161 
  17   0.0000       0.264740         7.2039 
  18   0.0000       0.304204         8.2778 
  19   0.0000       0.319282         8.6881 
  20   0.0000       0.337287         9.1781 
  21   0.0000       0.357480         9.7275 
  22   0.0000       0.376005        10.2316 
  23   0.0000       0.406482        11.0609 
  24   0.0000       0.463755        12.6194 
  25   0.0000       0.472082        12.8460 
  26   0.0000       0.486899        13.2492 
  27   0.0000       0.503439        13.6993 
  28   0.0000       0.525749        14.3064 
  29   0.0000       0.559444        15.2232 
  30   0.0000       0.579964        15.7816 
  31   0.0000       0.595666        16.2089 
  32   0.0000       0.622405        16.9365 
  33   0.0000       0.637207        17.3393 
  34   0.0000       0.682694        18.5771 
  35   0.0000       0.691721        18.8227 
  36   0.0000       0.705002        19.1841 
  37   0.0000       0.746726        20.3194 
  38   0.0000       0.802481        21.8366 
  39   0.0000       0.809816        22.0362 
  40   0.0000       0.855234        23.2721 
  41   0.0000       0.859981        23.4013 
  42   0.0000       0.891785        24.2667 
  43   0.0000       0.952896        25.9296 
  44   0.0000       1.010047        27.4848 
  45   0.0000       1.048989        28.5444 
  46   0.0000       1.100752        29.9530 
  47   0.0000       1.141305        31.0565 
  48   0.0000       1.173230        31.9252 
  49   0.0000       1.198467        32.6119 
  50   0.0000       1.225378        33.3442 
  51   0.0000       1.233409        33.5628 
  52   0.0000       1.253989        34.1228 
  53   0.0000       1.379701        37.5436 
  54   0.0000       1.416136        38.5350 
  55   0.0000       1.470146        40.0047 
  56   0.0000       1.499674        40.8082 
  57   0.0000       1.521990        41.4155 
  58   0.0000       1.573489        42.8168 
  59   0.0000       1.579363        42.9767 
  60   0.0000       1.602926        43.6178 
  61   0.0000       1.668437        45.4005 
  62   0.0000       1.686609        45.8950 
  63   0.0000       1.700212        46.2651 
  64   0.0000       1.726692        46.9857 
  65   0.0000       1.821615        49.5687 
  66   0.0000       1.843442        50.1626 
  67   0.0000       1.946097        52.9560 
  68   0.0000       1.979961        53.8775 
  69   0.0000       1.994304        54.2678 
  70   0.0000       2.025285        55.1108 
  71   0.0000       2.066708        56.2380 
  72   0.0000       2.101374        57.1813 
  73   0.0000       2.136979        58.1502 
  74   0.0000       2.175328        59.1937 
  75   0.0000       2.211142        60.1682 
  76   0.0000       2.226229        60.5788 
  77   0.0000       2.246641        61.1342 
  78   0.0000       2.289761        62.3076 
  79   0.0000       2.329537        63.3899 
  80   0.0000       2.343936        63.7817 
  81   0.0000       2.393686        65.1355 
  82   0.0000       2.444617        66.5214 
  83   0.0000       2.495922        67.9175 
  84   0.0000       2.509679        68.2918 
  85   0.0000       2.519280        68.5531 
  86   0.0000       2.619878        71.2905 
  87   0.0000       2.648416        72.0671 
  88   0.0000       2.659384        72.3655 
  89   0.0000       2.689413        73.1827 
  90   0.0000       2.737102        74.4803 
  91   0.0000       2.748313        74.7854 
  92   0.0000       2.839713        77.2725 
  93   0.0000       2.867665        78.0331 
  94   0.0000       2.895434        78.7888 
  95   0.0000       2.955016        80.4101 
  96   0.0000       2.968028        80.7641 
  97   0.0000       3.037855        82.6642 
  98   0.0000       3.099140        84.3319 
  99   0.0000       3.130811        85.1937 
 100   0.0000       3.152863        85.7938 
 101   0.0000       3.170261        86.2672 
 102   0.0000       3.197507        87.0086 
 103   0.0000       3.243866        88.2701 
 104   0.0000       3.294072        89.6363 
 105   0.0000       3.344097        90.9975 
 106   0.0000       3.371839        91.7524 
 107   0.0000       3.410935        92.8163 
 108   0.0000       3.454094        93.9907 
 109   0.0000       3.504969        95.3751 
 110   0.0000       3.530772        96.0772 
 111   0.0000       3.615258        98.3762 
 112   0.0000       3.644300        99.1664 
 113   0.0000       3.667765        99.8050 
 114   0.0000       3.685146       100.2779 
 115   0.0000       3.715305       101.0986 
 116   0.0000       3.728927       101.4693 
 117   0.0000       3.994531       108.6967 
 118   0.0000       4.117726       112.0490 
 119   0.0000       4.174158       113.5846 
 120   0.0000       4.246098       115.5422 
 121   0.0000       4.264133       116.0330 
 122   0.0000       4.308850       117.2498 
 123   0.0000       4.349033       118.3432 
 124   0.0000       4.369426       118.8981 
 125   0.0000       4.490198       122.1845 
 126   0.0000       4.556591       123.9912 
 127   0.0000       4.568156       124.3058 
 128   0.0000       4.584079       124.7391 
 129   0.0000       4.618040       125.6632 
 130   0.0000       4.667892       127.0198 
 131   0.0000       5.026420       136.7758 
 132   0.0000       5.091461       138.5457 
 133   0.0000       5.180988       140.9818 
 134   0.0000       5.269961       143.4029 
 135   0.0000       5.406410       147.1159 
 136   0.0000       5.427711       147.6955 
 137   0.0000       5.508058       149.8819 
 138   0.0000       5.577653       151.7757 
 139   0.0000       5.729233       155.9004 
 140   0.0000       5.842342       158.9782 
 141   0.0000       5.864401       159.5785 
 142   0.0000       5.970079       162.4541 
 143   0.0000       6.009748       163.5335 
 144   0.0000       6.044891       164.4898 
 145   0.0000       6.351627       172.8366 
 146   0.0000       6.598461       179.5533 
 147   0.0000       6.627523       180.3441 
 148   0.0000       6.729412       183.1166 
 149   0.0000       6.745506       183.5546 
 150   0.0000       6.826478       185.7579 
 151   0.0000       6.842590       186.1963 
 152   0.0000       7.034011       191.4052 
 153   0.0000       7.062668       192.1850 
 154   0.0000       7.200118       195.9252 
 155   0.0000       7.215790       196.3516 
 156   0.0000       7.381535       200.8618 
 157   0.0000       8.045471       218.9284 
 158   0.0000       8.898063       242.1286 
 159   0.0000       9.368436       254.9281 
 160   0.0000       9.574498       260.5353 
 161   0.0000       9.600197       261.2346 
 162   0.0000       9.793771       266.5020 
 163   0.0000       9.906826       269.5785 
 164   0.0000       9.946090       270.6469 
[...]
  82   0.0000       2.453342        66.7588 
  83   0.0000       2.462807        67.0164 
  84   0.0000       2.511836        68.3505 
  85   0.0000       2.528158        68.7947 
  86   0.0000       2.575644        70.0868 
  87   0.0000       2.605981        70.9123 
  88   0.0000       2.630473        71.5788 
  89   0.0000       2.659720        72.3747 
  90   0.0000       2.672240        72.7154 
  91   0.0000       2.684055        73.0369 
  92   0.0000       2.760595        75.1196 
  93   0.0000       2.868387        78.0528 
  94   0.0000       2.883624        78.4674 
  95   0.0000       2.927851        79.6709 
  96   0.0000       2.959831        80.5411 
  97   0.0000       3.047126        82.9165 
  98   0.0000       3.075748        83.6954 
  99   0.0000       3.109037        84.6012 
 100   0.0000       3.125410        85.0467 
 101   0.0000       3.139607        85.4331 
 102   0.0000       3.195928        86.9656 
 103   0.0000       3.236277        88.0636 
 104   0.0000       3.247271        88.3627 
 105   0.0000       3.312318        90.1328 
 106   0.0000       3.377743        91.9131 
 107   0.0000       3.400146        92.5227 
 108   0.0000       3.407709        92.7285 
 109   0.0000       3.436002        93.4984 
 110   0.0000       3.532047        96.1119 
 111   0.0000       3.585230        97.5591 
 112   0.0000       3.635743        98.9336 
 113   0.0000       3.651585        99.3647 
 114   0.0000       3.689671       100.4010 
 115   0.0000       3.707959       100.8987 
 116   0.0000       3.745337       101.9158 
 117   0.0000       3.987351       108.5013 
 118   0.0000       4.112833       111.9159 
 119   0.0000       4.132400       112.4483 
 120   0.0000       4.247768       115.5876 
 121   0.0000       4.259776       115.9144 
 122   0.0000       4.275721       116.3483 
 123   0.0000       4.295010       116.8732 
 124   0.0000       4.414625       120.1281 
 125   0.0000       4.453345       121.1817 
 126   0.0000       4.518022       122.9416 
 127   0.0000       4.537631       123.4752 
 128   0.0000       4.568227       124.3078 
 129   0.0000       4.580823       124.6505 
 130   0.0000       4.608014       125.3904 
 131   0.0000       4.982915       135.5920 
 132   0.0000       5.099554       138.7659 
 133   0.0000       5.225935       142.2049 
 134   0.0000       5.348698       145.5455 
 135   0.0000       5.371185       146.1574 
 136   0.0000       5.437837       147.9711 
 137   0.0000       5.441832       148.0798 
 138   0.0000       5.532982       150.5601 
 139   0.0000       5.731767       155.9693 
 140   0.0000       5.732589       155.9917 
 141   0.0000       5.782760       157.3569 
 142   0.0000       5.971122       162.4825 
 143   0.0000       6.110763       166.2823 
 144   0.0000       6.150442       167.3620 
 145   0.0000       6.294125       171.2719 
 146   0.0000       6.528531       177.6504 
 147   0.0000       6.597737       179.5335 
 148   0.0000       6.654192       181.0698 
 149   0.0000       6.777927       184.4368 
 150   0.0000       6.791754       184.8130 
 151   0.0000       6.844666       186.2528 
 152   0.0000       7.025688       191.1787 
 153   0.0000       7.135353       194.1628 
 154   0.0000       7.229322       196.7198 
 155   0.0000       7.250472       197.2954 
 156   0.0000       7.416624       201.8166 
 157   0.0000       8.050617       219.0684 
 158   0.0000       8.880925       241.6623 
 159   0.0000       9.347402       254.3558 
 160   0.0000       9.543978       259.7048 
 161   0.0000       9.621598       261.8170 
 162   0.0000       9.781913       266.1794 
 163   0.0000       9.842763       267.8352 
 164   0.0000       9.933885       270.3147 
 165   0.0000      10.125083       275.5175 
 166   0.0000      11.196663       304.6767 
 167   0.0000      19.126551       520.4599 
 168   0.0000      22.335434       607.7781 
 169   0.0000      43.742055      1190.2818 
 170   0.0000      66.025694      1796.6505 
 171   0.0000     126.480097      3441.6984 

                    ********************************
                    * MULLIKEN POPULATION ANALYSIS *
                    ********************************

-----------------------
MULLIKEN ATOMIC CHARGES
-----------------------
   0 C :   -0.001305
   1 O :   -0.004461
   2 H :   -0.000314
   3 H :   -0.000047
   4 H :   -0.000065
   5 H :   -0.000960
   6 C :   -0.180658
   7 O :   -0.468323
   8 H :    0.316341
   9 H :    0.111085
  10 H :    0.109011
  11 H :    0.119696
Sum of atomic charges:   -0.0000000

--------------------------------
MULLIKEN REDUCED ORBITAL CHARGES
--------------------------------
  0 C s       :     0.000717  s :     0.000717
      pz      :    -0.001220  p :     0.000432
      px      :     0.001798
      py      :    -0.000147
      dz2     :    -0.000003  d :     0.000158
      dxz     :     0.000108
      dyz     :     0.000065
      dx2y2   :    -0.000037
      dxy     :     0.000025
      f0      :    -0.000000  f :    -0.000001
      f+1     :    -0.000000
      f-1     :     0.000000
      f+2     :    -0.000001
      f-2     :     0.000002
      f+3     :    -0.000001
      f-3     :    -0.000001
  1 O s       :     0.000986  s :     0.000986
      pz      :     0.002308  p :     0.003641
      px      :     0.000318
      py      :     0.001015
      dz2     :    -0.000046  d :    -0.000163
      dxz     :    -0.000073
      dyz     :    -0.000027
      dx2y2   :    -0.000006
      dxy     :    -0.000011
      f0      :    -0.000000  f :    -0.000004
      f+1     :    -0.000003
      f-1     :     0.000000
      f+2     :    -0.000001
      f-2     :     0.000000
      f+3     :    -0.000000
      f-3     :    -0.000000
  2 H s       :     0.000327  s :     0.000327
      pz      :    -0.000012  p :    -0.000012
      px      :    -0.000004
      py      :     0.000004
  3 H s       :     0.000048  s :     0.000048
      pz      :    -0.000000  p :    -0.000001
      px      :    -0.000000
      py      :    -0.000000
  4 H s       :     0.000065  s :     0.000065
      pz      :    -0.000003  p :    -0.000000
      px      :     0.000001
      py      :     0.000001
  5 H s       :     0.000940  s :     0.000940
      pz      :     0.000024  p :     0.000021
      px      :    -0.000006
      py      :     0.000003
  6 C s       :     3.231109  s :     3.231109
      pz      :     0.990755  p :     2.848450
      px      :     0.801181
      py      :     1.056514
      dz2     :     0.022432  d :     0.094003
      dxz     :     0.012536
      dyz     :     0.020233
      dx2y2   :     0.020271
      dxy     :     0.018532
      f0      :     0.000390  f :     0.007096
      f+1     :     0.001366
      f-1     :     0.000315
      f+2     :     0.001677
      f-2     :     0.001134
      f+3     :     0.000795
      f-3     :     0.001418
  7 O s       :     3.802645  s :     3.802645
      pz      :     1.268068  p :     4.634056
      px      :     1.491150
      py      :     1.874838
      dz2     :     0.008059  d :     0.030106
      dxz     :     0.008887
      dyz     :     0.002583
      dx2y2   :     0.006071
      dxy     :     0.004506
      f0      :     0.000342  f :     0.001516
      f+1     :     0.000335
      f-1     :     0.000125
      f+2     :     0.000232
      f-2     :     0.000134
      f+3     :     0.000183
      f-3     :     0.000166
  8 H s       :     0.637649  s :     0.637649
      pz      :     0.017743  p :     0.046010
      px      :     0.011594
      py      :     0.016674
  9 H s       :     0.869281  s :     0.869281
      pz      :     0.005078  p :     0.019634
      px      :     0.009741
      py      :     0.004815
 10 H s       :     0.870847  s :     0.870847
      pz      :     0.005025  p :     0.020142
      px      :     0.003128
      py      :     0.011989
 11 H s       :     0.861313  s :     0.861313
      pz      :     0.009950  p :     0.018991
      px      :     0.002713
      py      :     0.006328


                     *******************************
                     * LOEWDIN POPULATION ANALYSIS *
                     *******************************

----------------------
LOEWDIN ATOMIC CHARGES
----------------------
   0 C :   -0.016759
   1 O :   -0.020733
   2 H :   -0.001166
   3 H :   -0.000153
   4 H :   -0.001427
   5 H :   -0.004928
   6 C :   -0.362578
   7 O :   -0.089446
   8 H :    0.188899
   9 H :    0.098320
  10 H :    0.095799
  11 H :    0.114171

-------------------------------
LOEWDIN REDUCED ORBITAL CHARGES
-------------------------------
  0 C s       :     0.001982  s :     0.001982
      pz      :     0.007708  p :     0.013897
      px      :     0.004209
      py      :     0.001980
      dz2     :     0.000297  d :     0.000864
      dxz     :     0.000225
      dyz     :     0.000184
      dx2y2   :     0.000070
      dxy     :     0.000087
      f0      :     0.000004  f :     0.000016
      f+1     :     0.000002
      f-1     :     0.000003
      f+2     :     0.000003
      f-2     :     0.000002
      f+3     :     0.000001
      f-3     :     0.000000
  1 O s       :     0.002933  s :     0.002933
      pz      :     0.011082  p :     0.017040
      px      :     0.005142
      py      :     0.000816
      dz2     :     0.000261  d :     0.000740
      dxz     :     0.000410
      dyz     :     0.000023
      dx2y2   :     0.000036
      dxy     :     0.000010
      f0      :     0.000001  f :     0.000020
      f+1     :     0.000014
      f-1     :     0.000000
      f+2     :     0.000004
      f-2     :     0.000000
      f+3     :     0.000000
      f-3     :     0.000000
  2 H s       :     0.001160  s :     0.001160
      pz      :     0.000003  p :     0.000006
      px      :     0.000001
      py      :     0.000001
  3 H s       :     0.000149  s :     0.000149
      pz      :     0.000002  p :     0.000003
      px      :     0.000001
      py      :     0.000001
  4 H s       :     0.001419  s :     0.001419
      pz      :     0.000003  p :     0.000007
      px      :     0.000003
      py      :     0.000002
  5 H s       :     0.004848  s :     0.004848
      pz      :     0.000061  p :     0.000079
      px      :     0.000010
      py      :     0.000008
  6 C s       :     2.869296  s :     2.869296
      pz      :     1.020058  p :     3.049069
      px      :     0.923085
      py      :     1.105927
      dz2     :     0.072683  d :     0.392729
      dxz     :     0.076929
      dyz     :     0.069754
      dx2y2   :     0.107883
      dxy     :     0.065480
      f0      :     0.005984  f :     0.051483
      f+1     :     0.008713
      f-1     :     0.003535
      f+2     :     0.008282
      f-2     :     0.009439
      f+3     :     0.006163
      f-3     :     0.009367
  7 O s       :     3.395625  s :     3.395625
      pz      :     1.289714  p :     4.623742
      px      :     1.545079
      py      :     1.788949
      dz2     :     0.021444  d :     0.065849
      dxz     :     0.018061
      dyz     :     0.005741
      dx2y2   :     0.011352
      dxy     :     0.009250
      f0      :     0.000639  f :     0.004230
      f+1     :     0.001395
      f-1     :     0.000169
      f+2     :     0.000651
      f-2     :     0.000529
      f+3     :     0.000450
      f-3     :     0.000398
  8 H s       :     0.658452  s :     0.658452
      pz      :     0.069006  p :     0.152649
      px      :     0.038256
      py      :     0.045388
  9 H s       :     0.837925  s :     0.837925
      pz      :     0.017323  p :     0.063755
      px      :     0.030444
      py      :     0.015988
 10 H s       :     0.842239  s :     0.842239
      pz      :     0.015167  p :     0.061962
      px      :     0.010123
      py      :     0.036673
 11 H s       :     0.831898  s :     0.831898
      pz      :     0.027446  p :     0.053932
      px      :     0.008281
      py      :     0.018205


                      *****************************
                      * MAYER POPULATION ANALYSIS *
                      *****************************

  NA   - Mulliken gross atomic population
  ZA   - Total nuclear charge
  QA   - Mulliken gross atomic charge
  VA   - Mayer's total valence
  BVA  - Mayer's bonded valence
  FA   - Mayer's free valence

  ATOM       NA         ZA         QA         VA         BVA        FA
  0 C      0.0013     0.0000    -0.0013     0.0026     0.0026     0.0000
  1 O      0.0045     0.0000    -0.0045     0.0089     0.0089    -0.0000
  2 H      0.0003     0.0000    -0.0003     0.0006     0.0006    -0.0000
  3 H      0.0000     0.0000    -0.0000     0.0001     0.0001    -0.0000
  4 H      0.0001     0.0000    -0.0001     0.0001     0.0001     0.0000
  5 H      0.0010     0.0000    -0.0010     0.0019     0.0019    -0.0000
  6 C      6.1807     6.0000    -0.1807     3.9290     3.9290     0.0000
  7 O      8.4683     8.0000    -0.4683     1.9044     1.9044    -0.0000
  8 H      0.6837     1.0000     0.3163     0.9215     0.9215    -0.0000
  9 H      0.8889     1.0000     0.1111     0.9585     0.9585    -0.0000
 10 H      0.8910     1.0000     0.1090     0.9566     0.9566    -0.0000
 11 H      0.8803     1.0000     0.1197     0.9638     0.9638     0.0000

  Mayer bond orders larger than 0.1
B(  6-C ,  7-O ) :   0.9925 B(  6-C ,  9-H ) :   0.9771 B(  6-C , 10-H ) :   0.9773 
B(  6-C , 11-H ) :   0.9759 B(  7-O ,  8-H ) :   0.9079 

-------
TIMINGS
-------

Total SCF time: 0 days 0 hours 0 min 14 sec 

Total time                  ....      14.911 sec
Sum of individual times     ....      14.565 sec  ( 97.7%)

Fock matrix formation       ....      13.925 sec  ( 93.4%)
  XC integration            ....       4.697 sec  ( 33.7% of F)
    Basis function eval.    ....       0.064 sec  (  1.4% of XC)
    Density eval.           ....       0.075 sec  (  1.6% of XC)
    XC-Functional eval.     ....       0.091 sec  (  1.9% of XC)
    XC-Potential eval.      ....       0.074 sec  (  1.6% of XC)
Diagonalization             ....       0.175 sec  (  1.2%)
Density matrix formation    ....       0.007 sec  (  0.0%)
Population analysis         ....       0.015 sec  (  0.1%)
Initial guess               ....       0.101 sec  (  0.7%)
Orbital Transformation      ....       0.000 sec  (  0.0%)
Orbital Orthonormalization  ....       0.000 sec  (  0.0%)
DIIS solution               ....       0.034 sec  (  0.2%)
SOSCF solution              ....       0.021 sec  (  0.1%)
Grid generation             ....       0.287 sec  (  1.9%)


-------------------------------------------------------------------------------
                          DFT DISPERSION CORRECTION                            
                                                                               
                              DFTD3 V3.1  Rev 1                                
                              USING zero damping                               
-------------------------------------------------------------------------------
The omegaB97X-D3 functional is recognized. Fit by Chai et al.
Active option DFTDOPT                   ...         3   

molecular C6(AA) [au] = 208.775307 


            DFT-D V3
 parameters
 s6 scaling factor         :     1.0000 
 rs6 scaling factor        :     1.2810 
 s8 scaling factor         :     1.0000 
 rs8 scaling factor        :     1.0940 
 Damping factor alpha6     :    14.0000 
 Damping factor alpha8     :    16.0000 
 ad hoc parameters k1-k3   :    16.0000     1.3333    -4.0000 

 Edisp/kcal,au: -0.158415432468  -0.000252451034 
 E6   /kcal   :  -0.031384041 
 E8   /kcal   :  -0.127031391 
 % E8         :  80.188772824 

-------------------------   ----------------
Dispersion correction           -0.000252451
-------------------------   ----------------


-------------------------   --------------------
FINAL SINGLE POINT ENERGY      -115.734451376294
-------------------------   --------------------


                            ***************************************
                            *     ORCA property calculations      *
                            ***************************************

                                    ---------------------
                                    Active property flags
                                    ---------------------
   (+) Dipole Moment


------------------------------------------------------------------------------
                       ORCA ELECTRIC PROPERTIES CALCULATION
------------------------------------------------------------------------------

Dipole Moment Calculation                       ... on
Quadrupole Moment Calculation                   ... off
Polarizability Calculation                      ... off
GBWName                                         ... 17-156_DFT_B.gbw
Electron density file                           ... 17-156_DFT_B.scfp.tmp
The origin for moment calculation is the CENTER OF MASS  = (-10.740958, 20.668350 -19.265880)

-------------
DIPOLE MOMENT
-------------
                                X             Y             Z
Electronic contribution:     -1.55633       0.35767       0.93755
Nuclear contribution   :      2.21858      -0.55003      -0.67931
                        -----------------------------------------
Total Dipole Moment    :      0.66225      -0.19236       0.25824
                        -----------------------------------------
Magnitude (a.u.)       :      0.73638
Magnitude (Debye)      :      1.87174



--------------------
Rotational spectrum 
--------------------
 
Rotational constants in cm-1:     4.214386     0.807340     0.775291 
Rotational constants in MHz : 126344.105633 24203.451460 23242.637495 

 Dipole components along the rotational axes: 
x,y,z [a.u.] :     0.409328     0.612123    -0.004132 
x,y,z [Debye]:     1.040430     1.555892    -0.010503 

 
------------------------------------------------------------------------------
                      ORCA CHELPG CHARGES GENERATION
------------------------------------------------------------------------------

GBW file                           ... 17-156_DFT_B.gbw

Reading the GBW file               ... done

Grid spacing                       ...     0.300000
Point Cut-Off                      ...     2.800000
Van-der-Waals Radii                ...        COSMO
Total charge                       ...            0


Number of points X direction       ...           28
Number of points Y direction       ...           27
Number of points Z direction       ...           35
Maximum number of possible points  ...        26460
Final number of points             ...         6044


CHELPG Charges            
--------------------------------
  0   C   :       0.003475
  1   O   :       0.005277
  2   H   :       0.000856
  3   H   :      -0.014971
  4   H   :      -0.000175
  5   H   :       0.004309
  6   C   :       0.045529
  7   O   :      -0.562037
  8   H   :       0.372939
  9   H   :       0.023770
 10   H   :       0.044548
 11   H   :       0.076480
--------------------------------
Total charge:    -0.000000
--------------------------------

CHELPG charges calculated...

Timings for individual parts in CHELPG calculation:
Grid generation                 ...        0.001 sec (=   0.000 min)
Potential calculation           ...        1.352 sec (=   0.023 min)
Fit to the potential            ...        0.002 sec (=   0.000 min)
------------------------------------------------------------------------------


Timings for individual modules:

Sum of individual times         ...       17.372 sec (=   0.290 min)
GTO integral calculation        ...        0.665 sec (=   0.011 min)   3.8 %
SCF iterations                  ...       15.325 sec (=   0.255 min)  88.2 %
CHELPG charge generation        ...        1.382 sec (=   0.023 min)   8.0 %



                             ****ORCA TERMINATED NORMALLY****
TOTAL RUN TIME: 0 days 0 hours 1 minutes 15 seconds 36 msec
