
                                 *****************
                                 * O   R   C   A *
                                 *****************

           --- An Ab Initio, DFT and Semiempirical electronic structure package ---

                  #######################################################
                  #                        -***-                        #
                  #          Department of theory and spectroscopy      #
                  #               Directorship: Frank Neese             #
                  #        Max Planck Institute fuer Kohlenforschung    #
                  #                Kaiser Wilhelm Platz 1               #
                  #                 D-45470 Muelheim/Ruhr               #
                  #                      Germany                        #
                  #                                                     #
                  #                  All rights reserved                #
                  #                        -***-                        #
                  #######################################################


                         Program Version 4.1.2  - RELEASE  -


 With contributions from (in alphabetic order):
   Daniel Aravena         : Magnetic Properties
   Michael Atanasov       : Ab Initio Ligand Field Theory
   Alexander A. Auer      : GIAO ZORA
   Ute Becker             : Parallelization
   Giovanni Bistoni       : ED, Open-shell LED
   Martin Brehm           : Molecular dynamics
   Dmytro Bykov           : SCF Hessian
   Vijay G. Chilkuri      : MRCI spin determinant printing
   Dipayan Datta          : RHF DLPNO-CCSD density
   Achintya Kumar Dutta   : EOM-CC, STEOM-CC
   Dmitry Ganyushin       : Spin-Orbit,Spin-Spin,Magnetic field MRCI
   Miquel Garcia          : C-PCM Hessian
   Yang Guo               : DLPNO-NEVPT2, CIM, IAO-localization
   Andreas Hansen         : Spin unrestricted coupled pair/coupled cluster methods
   Benjamin Helmich-Paris : CASSCF linear response (MC-RPA)
   Lee Huntington         : MR-EOM, pCC
   Robert Izsak           : Overlap fitted RIJCOSX, COSX-SCS-MP3, EOM
   Christian Kollmar      : KDIIS, OOCD, Brueckner-CCSD(T), CCSD density
   Simone Kossmann        : Meta GGA functionals, TD-DFT gradient, OOMP2, MP2 Hessian
   Martin Krupicka        : AUTO-CI
   Lucas Lang             : DCDCAS
   Dagmar Lenk            : GEPOL surface, SMD
   Dimitrios Liakos       : Extrapolation schemes; parallel MDCI
   Dimitrios Manganas     : ROCIS; embedding schemes
   Dimitrios Pantazis     : SARC Basis sets
   Taras Petrenko         : DFT Hessian,TD-DFT gradient, ASA, ECA, R-Raman, ABS, FL, XAS/XES, NRVS
   Peter Pinski           : DLPNO-MP2, DLPNO-MP2 Gradient
   Christoph Reimann      : Effective Core Potentials
   Marius Retegan         : Local ZFS, SOC
   Christoph Riplinger    : Optimizer, TS searches, QM/MM, DLPNO-CCSD(T), (RO)-DLPNO pert. Triples
   Tobias Risthaus        : Range-separated hybrids, TD-DFT gradient, RPA, STAB
   Michael Roemelt        : Restricted open shell CIS
   Masaaki Saitow         : Open-shell DLPNO
   Barbara Sandhoefer     : DKH picture change effects
   Avijit Sen             : IP-ROCIS
   Kantharuban Sivalingam : CASSCF convergence, NEVPT2, FIC-MRCI
   Bernardo de Souza      : ESD, SOC TD-DFT
   Georgi Stoychev        : AutoAux, RI-MP2 NMR
   Willem Van den Heuvel  : Paramagnetic NMR
   Boris Wezisla          : Elementary symmetry handling
   Frank Wennmohs         : Technical directorship


 We gratefully acknowledge several colleagues who have allowed us to
 interface, adapt or use parts of their codes:
   Stefan Grimme, W. Hujo, H. Kruse,             : VdW corrections, initial TS optimization,
                  C. Bannwarth                     DFT functionals, gCP, sTDA/sTD-DF
   Ed Valeev                                     : LibInt (2-el integral package), F12 methods
   Garnet Chan, S. Sharma, J. Yang, R. Olivares  : DMRG
   Ulf Ekstrom                                   : XCFun DFT Library
   Mihaly Kallay                                 : mrcc  (arbitrary order and MRCC methods)
   Andreas Klamt, Michael Diedenhofen            : otool_cosmo (COSMO solvation model)
   Jiri Pittner, Ondrej Demel                    : Mk-CCSD
   Frank Weinhold                                : gennbo (NPA and NBO analysis)
   Christopher J. Cramer and Donald G. Truhlar   : smd solvation model
   Lars Goerigk                                  : TD-DFT with DH, B97 family of functionals
   V. Asgeirsson, H. Jonsson                     : NEB implementation
   FAccTs GmbH                                   : IRC, NEB, NEB-TS, Multilevel


 Your calculation uses the libint2 library for the computation of 2-el integrals
 For citations please refer to: http://libint.valeyev.net

 This ORCA versions uses:
   CBLAS   interface :  Fast vector & matrix operations
   LAPACKE interface :  Fast linear algebra routines
   SCALAPACK package :  Parallel linear algebra routines


Your calculation utilizes the atom-pairwise dispersion correction
with the zero-damping scheme (D30)
Cite in your paper:
S.Grimme, J.Antony, S.Ehrlich and H.Krieg, J.Chem.Phys., 132, (2010), 154104 
   

XCFun DFT library Copyright 2009-2010 Ulf Ekstrom and contributors.
See http://admol.org/xcfun for more information. This is free soft-
ware; see the source code for copying conditions. There is ABSOLUTELY
NO WARRANTY; not even for MERCHANTABILITY or FITNESS FOR A PARTICULAR
PURPOSE. For details see the documentation. Scientific users of this 
library should cite U. Ekstrom, L. Visscher, R. Bast, A. J. Thorvald-
sen and K. Ruud; J.Chem.Theor.Comp. 2010, DOI: 10.1021/ct100117s
XCFun Version 0.99 
----- Orbital basis set information -----
Your calculation utilizes the basis: def2-TZVP
   F. Weigend and R. Ahlrichs, Phys. Chem. Chem. Phys. 7, 3297 (2005).

================================================================================
                                        WARNINGS
                       Please study these warnings very carefully!
================================================================================


WARNING: Geometry Optimization
  ===> : Switching off AutoStart
         For restart on a previous wavefunction, please use MOREAD

INFO   : the flag for use of LIBINT has been found!

================================================================================
                                       INPUT FILE
================================================================================
NAME = bonds_angles_[1[8[6]]]-[8[6[1][1][1]][1]]-[6[8[1]][1][1][1]]_3.in
|  1> #Run DFT geometry optimization
|  2> ! wB97X-D3 def2-TZVP TIGHTSCF Grid5 FinalGrid6 Opt CHELPG PAL4
|  3> 
|  4> %base "3_geo_opt"
|  5> %geom MaxIter 500
|  6> end
|  7> 
|  8> %geom
|  9>   Constraints
| 10>     { A 2 1 0 C }
| 11>   end
| 12> end
| 13> 
| 14> 
| 15> * xyz 0 1
| 16>   C                    3.011103             -1.182901            0.599910            
| 17>   O                    4.394673             -1.128050            0.874308            
| 18>   H                    4.773701             -0.379401            0.413112            
| 19>   H                    2.806434             -1.318965            -0.469350           
| 20>   H                    2.611632             -2.040265            1.135898            
| 21>   H                    2.484757             -0.284491            0.945659            
| 22> *
| 23> 
| 24>                          ****END OF INPUT****
================================================================================

                       *****************************
                       * Geometry Optimization Run *
                       *****************************

Geometry optimization settings:
Update method            Update   .... BFGS
Choice of coordinates    CoordSys .... Z-matrix Internals
Initial Hessian          InHess   .... Almoef's Model

Convergence Tolerances:
Energy Change            TolE     ....  5.0000e-06 Eh
Max. Gradient            TolMAXG  ....  3.0000e-04 Eh/bohr
RMS Gradient             TolRMSG  ....  1.0000e-04 Eh/bohr
Max. Displacement        TolMAXD  ....  4.0000e-03 bohr
RMS Displacement         TolRMSD  ....  2.0000e-03 bohr

------------------------------------------------------------------------------
                        ORCA OPTIMIZATION COORDINATE SETUP
------------------------------------------------------------------------------

The optimization will be done in new redundant internal coordinates
Making redundant internal coordinates   ...  (new redundants) done
Evaluating the initial hessian          ...  (Almloef) done
Evaluating the coordinates              ...  done
Calculating the B-matrix                .... done
Calculating the G-matrix                .... done
Diagonalizing the G-matrix              .... done
Imposing constraints:
 Iter   0:  RMS(Cart)=    0.0000000000 RMS(Int)=    0.0000000000
CONVERGED
The first mode is                       ....    3
The number of degrees of freedom        ....   12
Storing new coordinates                 .... done

    -----------------------------------------------------------------
                    Redundant Internal Coordinates


    -----------------------------------------------------------------
         Definition                    Initial Value    Approx d2E/dq
    -----------------------------------------------------------------
      1. B(O   1,C   0)                  1.4116         0.516940   
      2. B(H   2,O   1)                  0.9575         0.524720   
      3. B(H   3,C   0)                  1.0971         0.350775   
      4. B(H   4,C   0)                  1.0872         0.363867   
      5. B(H   5,C   0)                  1.0971         0.350773   
      6. A(O   1,C   0,H   4)          107.1550         0.340779   
      7. A(O   1,C   0,H   3)          112.1551         0.338699   
      8. A(O   1,C   0,H   5)          112.1568         0.338699   
      9. A(H   3,C   0,H   5)          108.6137         0.288456   
     10. A(H   4,C   0,H   5)          108.3083         0.290117   
     11. A(H   3,C   0,H   4)          108.3087         0.290118   
     12. A(C   0,O   1,H   2)          108.9499         0.359341 C 
     13. D(H   2,O   1,C   0,H   5)    -61.2727         0.021176   
     14. D(H   2,O   1,C   0,H   3)     61.2693         0.021176   
     15. D(H   2,O   1,C   0,H   4)    179.9980         0.021176   
    -----------------------------------------------------------------

Number of atoms                         .... 6
Number of degrees of freedom            .... 15

         *************************************************************
         *                GEOMETRY OPTIMIZATION CYCLE   1            *
         *************************************************************
---------------------------------
CARTESIAN COORDINATES (ANGSTROEM)
---------------------------------
  C      3.011103   -1.182901    0.599910
  O      4.394673   -1.128050    0.874308
  H      4.773701   -0.379401    0.413112
  H      2.806434   -1.318965   -0.469350
  H      2.611632   -2.040265    1.135898
  H      2.484757   -0.284491    0.945659

----------------------------
CARTESIAN COORDINATES (A.U.)
----------------------------
  NO LB      ZA    FRAG     MASS         X           Y           Z
   0 C     6.0000    0    12.011    5.690160   -2.235359    1.133666
   1 O     8.0000    0    15.999    8.304728   -2.131706    1.652203
   2 H     1.0000    0     1.008    9.020988   -0.716964    0.780669
   3 H     1.0000    0     1.008    5.303392   -2.492483   -0.886943
   4 H     1.0000    0     1.008    4.935269   -3.855542    2.146536
   5 H     1.0000    0     1.008    4.695510   -0.537610    1.787037

--------------------------------
INTERNAL COORDINATES (ANGSTROEM)
--------------------------------
 C      0   0   0     0.000000000000     0.00000000     0.00000000
 O      1   0   0     1.411583805342     0.00000000     0.00000000
 H      2   1   0     0.957517258540   108.94986510     0.00000000
 H      1   2   3     1.097141631357   112.15505984    61.26927060
 H      1   2   3     1.087167532849   107.15496023   179.99803212
 H      1   2   3     1.097143113189   112.15682882   298.72730262

---------------------------
INTERNAL COORDINATES (A.U.)
---------------------------
 C      0   0   0     0.000000000000     0.00000000     0.00000000
 O      1   0   0     2.667506807176     0.00000000     0.00000000
 H      2   1   0     1.809445387143   108.94986510     0.00000000
 H      1   2   3     2.073297213389   112.15505984    61.26927060
 H      1   2   3     2.054448898775   107.15496023   179.99803212
 H      1   2   3     2.073300013644   112.15682882   298.72730262

---------------------
BASIS SET INFORMATION
---------------------
There are 3 groups of distinct atoms

 Group   1 Type C   : 11s6p2d1f contracted to 5s3p2d1f pattern {62111/411/11/1}
 Group   2 Type O   : 11s6p2d1f contracted to 5s3p2d1f pattern {62111/411/11/1}
 Group   3 Type H   : 5s1p contracted to 3s1p pattern {311/1}

Atom   0C    basis set group =>   1
Atom   1O    basis set group =>   2
Atom   2H    basis set group =>   3
Atom   3H    basis set group =>   3
Atom   4H    basis set group =>   3
Atom   5H    basis set group =>   3


           ************************************************************
           *        Program running with 4 parallel MPI-processes     *
           *              working on a common directory               *
           ************************************************************
------------------------------------------------------------------------------
                           ORCA GTO INTEGRAL CALCULATION
------------------------------------------------------------------------------

                         BASIS SET STATISTICS AND STARTUP INFO

 # of primitive gaussian shells          ...   64
 # of primitive gaussian functions       ...  124
 # of contracted shells                  ...   38
 # of contracted basis functions         ...   86
 Highest angular momentum                ...    3
 Maximum contraction depth               ...    6
 Integral package used                   ... LIBINT
 Integral threshhold            Thresh   ...  2.500e-11
 Primitive cut-off              TCut     ...  2.500e-12


------------------------------ INTEGRAL EVALUATION ----------------------------


 * One electron integrals 
 Pre-screening matrix                    ... done
 Shell pair data                         ... done (   0.000 sec)



           ************************************************************
           *        Program running with 4 parallel MPI-processes     *
           *              working on a common directory               *
           ************************************************************
-------------------------------------------------------------------------------
                                 ORCA SCF
-------------------------------------------------------------------------------

------------
SCF SETTINGS
------------
Hamiltonian:
 Density Functional     Method          .... DFT(GTOs)
 Exchange Functional    Exchange        .... WB97X-D3
 Correlation Functional Correlation     .... WB97X-D3
 Gradients option       PostSCFGGA      .... off
 Hybrid DFT is turned on
   Fraction HF Exchange ScalHFX         ....  0.195728
   Scaling of DF-GGA-X  ScalDFX         ....  0.000000
   Scaling of DF-GGA-C  ScalDFC         ....  1.000000
   Scaling of DF-LDA-C  ScalLDAC        ....  1.000000
   Perturbative correction              ....  0.000000
   Density functional embedding theory  .... OFF
 Long-range corrected/Screened/Range-Separated Hybrid DFT is turned on
   Amount of maximum screened exact exchange              ....  0.804272
   Range separation parameter mu (erf(mu*r12)/r12)        ....  0.250000


General Settings:
 Integral files         IntName         .... 3_geo_opt
 Hartree-Fock type      HFTyp           .... RHF
 Total Charge           Charge          ....    0
 Multiplicity           Mult            ....    1
 Number of Electrons    NEL             ....   18
 Basis Dimension        Dim             ....   86
 Nuclear Repulsion      ENuc            ....     40.4364673158 Eh

Convergence Acceleration:
 DIIS                   CNVDIIS         .... on
   Start iteration      DIISMaxIt       ....    12
   Startup error        DIISStart       ....  0.200000
   # of expansion vecs  DIISMaxEq       ....     5
   Bias factor          DIISBfac        ....   1.050
   Max. coefficient     DIISMaxC        ....  10.000
 Newton-Raphson         CNVNR           .... off
 SOSCF                  CNVSOSCF        .... on
   Start iteration      SOSCFMaxIt      ....   150
   Startup grad/error   SOSCFStart      ....  0.003300
 Level Shifting         CNVShift        .... on
   Level shift para.    LevelShift      ....    0.2500
   Turn off err/grad.   ShiftErr        ....    0.0010
 Zerner damping         CNVZerner       .... off
 Static damping         CNVDamp         .... on
   Fraction old density DampFac         ....    0.7000
   Max. Damping (<1)    DampMax         ....    0.9800
   Min. Damping (>=0)   DampMin         ....    0.0000
   Turn off err/grad.   DampErr         ....    0.1000
 Fernandez-Rico         CNVRico         .... off

SCF Procedure:
 Maximum # iterations   MaxIter         ....   125
 SCF integral mode      SCFMode         .... Direct
   Integral package                     .... LIBINT
 Reset frequency        DirectResetFreq ....    20
 Integral Threshold     Thresh          ....  2.500e-11 Eh
 Primitive CutOff       TCut            ....  2.500e-12 Eh

Convergence Tolerance:
 Convergence Check Mode ConvCheckMode   .... Total+1el-Energy
 Convergence forced     ConvForced      .... 0
 Energy Change          TolE            ....  1.000e-08 Eh
 1-El. energy change                    ....  1.000e-05 Eh
 Orbital Gradient       TolG            ....  1.000e-05
 Orbital Rotation angle TolX            ....  1.000e-05
 DIIS Error             TolErr          ....  5.000e-07


Diagonalization of the overlap matrix:
Smallest eigenvalue                        ... 1.651e-03
Time for diagonalization                   ...    0.043 sec
Threshold for overlap eigenvalues          ... 1.000e-08
Number of eigenvalues below threshold      ... 0
Time for construction of square roots      ...    0.004 sec
Total time needed                          ...    0.048 sec

-------------------
DFT GRID GENERATION
-------------------

General Integration Accuracy     IntAcc      ...  5.010
Radial Grid Type                 RadialGrid  ... Gauss-Chebyshev
Angular Grid (max. acc.)         AngularGrid ... Lebedev-434
Angular grid pruning method      GridPruning ... 3 (G Style)
Weight generation scheme         WeightScheme... Becke
Basis function cutoff            BFCut       ...    1.0000e-11
Integration weight cutoff        WCut        ...    1.0000e-14
Grids for H and He will be reduced by one unit

# of grid points (after initial pruning)     ...  48308 (   0.0 sec)
# of grid points (after weights+screening)   ...  46678 (   0.0 sec)
nearest neighbour list constructed           ...    0.0 sec
Grid point re-assignment to atoms done       ...    0.0 sec
Grid point division into batches done        ...    0.3 sec
Reduced shell lists constructed in    0.3 sec

Total number of grid points                  ...    46678
Total number of batches                      ...      733
Average number of points per batch           ...       63
Average number of grid points per atom       ...     7780
Average number of shells per batch           ...    33.15 (87.24%)
Average number of basis functions per batch  ...    76.92 (89.45%)
Average number of large shells per batch     ...    30.59 (92.27%)
Average number of large basis fcns per batch ...    72.28 (93.96%)
Maximum spatial batch extension              ...  15.76, 14.99, 16.58 au
Average spatial batch extension              ...   0.40,  0.41,  0.42 au

Time for grid setup =    0.408 sec

------------------------------
INITIAL GUESS: MODEL POTENTIAL
------------------------------
Loading Hartree-Fock densities                     ... done
Calculating cut-offs                               ... done
Setting up the integral package                    ... done
Initializing the effective Hamiltonian             ... done
Starting the Coulomb interaction                   ... done (   0.0 sec)
Reading the grid                                   ... done
Mapping shells                                     ... done
Starting the XC term evaluation                    ... done (   0.1 sec)
  promolecular density results
     # of electrons  =     17.998045219
     EX              =    -14.430270952
     EC              =     -0.575104812
     EX+EC           =    -15.005375765
Transforming the Hamiltonian                       ... done (   0.0 sec)
Diagonalizing the Hamiltonian                      ... done (   0.0 sec)
Back transforming the eigenvectors                 ... done (   0.0 sec)
Now organizing SCF variables                       ... done
                      ------------------
                      INITIAL GUESS DONE (   0.6 sec)
                      ------------------
--------------
SCF ITERATIONS
--------------
ITER       Energy         Delta-E        Max-DP      RMS-DP      [F,P]     Damp
               ***  Starting incremental Fock matrix formation  ***
  0   -115.6511326643   0.000000000000 0.03699158  0.00147541  0.2525036 0.7000
  1   -115.6882327767  -0.037100112410 0.02203949  0.00104129  0.1263235 0.7000
                               ***Turning on DIIS***
  2   -115.7053095694  -0.017076792696 0.03157467  0.00188167  0.0491223 0.0000
  3   -115.7330644957  -0.027754926333 0.01774909  0.00068066  0.0611629 0.0000
  4   -115.7375936490  -0.004529153309 0.00406446  0.00013184  0.0065502 0.0000
                      *** Initiating the SOSCF procedure ***
                           *** Shutting down DIIS ***
                      *** Re-Reading the Fockian *** 
                      *** Removing any level shift *** 
ITER      Energy       Delta-E        Grad      Rot      Max-DP    RMS-DP
  5   -115.73768787  -0.0000942230  0.000490  0.000490  0.000679  0.000043
               *** Restarting incremental Fock matrix formation ***
  6   -115.73769602  -0.0000081497  0.000152  0.000203  0.000492  0.000026
  7   -115.73769675  -0.0000007237  0.000056  0.000110  0.000209  0.000011
  8   -115.73769680  -0.0000000577  0.000019  0.000017  0.000029  0.000001
  9   -115.73769681  -0.0000000055  0.000010  0.000008  0.000015  0.000001
 10   -115.73769681  -0.0000000015  0.000003  0.000003  0.000003  0.000000
                  ***Gradient check signals convergence***
              ***Rediagonalizing the Fockian in SOSCF/NRSCF***

               *****************************************************
               *                     SUCCESS                       *
               *           SCF CONVERGED AFTER  11 CYCLES          *
               *****************************************************

Setting up the final grid:

General Integration Accuracy     IntAcc      ...  5.340
Radial Grid Type                 RadialGrid  ... Gauss-Chebyshev
Angular Grid (max. acc.)         AngularGrid ... Lebedev-590
Angular grid pruning method      GridPruning ... 3 (G Style)
Weight generation scheme         WeightScheme... Becke
Basis function cutoff            BFCut       ...    1.0000e-11
Integration weight cutoff        WCut        ...    1.0000e-14
Grids for H and He will be reduced by one unit

# of grid points (after initial pruning)     ...  77324 (   0.0 sec)
# of grid points (after weights+screening)   ...  74513 (   0.0 sec)
nearest neighbour list constructed           ...    0.0 sec
Grid point re-assignment to atoms done       ...    0.0 sec
Grid point division into batches done        ...    0.8 sec
Reduced shell lists constructed in    0.8 sec

Total number of grid points                  ...    74513
Total number of batches                      ...     1167
Average number of points per batch           ...       63
Average number of grid points per atom       ...    12419
Average number of shells per batch           ...    32.93 (86.66%)
Average number of basis functions per batch  ...    76.33 (88.76%)
Average number of large shells per batch     ...    30.31 (92.03%)
Average number of large basis fcns per batch ...    71.49 (93.66%)
Maximum spatial batch extension              ...  13.18, 14.25, 15.48 au
Average spatial batch extension              ...   0.34,  0.36,  0.37 au

Final grid set up in    0.9 sec
Final integration                            ... done (   0.2 sec)
Change in XC energy                          ...    -0.000107537
Integrated number of electrons               ...    18.000000740
Previous integrated no of electrons          ...    18.000002293

----------------
TOTAL SCF ENERGY
----------------

Total Energy       :         -115.73780435 Eh           -3149.38577 eV

Components:
Nuclear Repulsion  :           40.43646732 Eh            1100.33222 eV
Electronic Energy  :         -156.17427166 Eh           -4249.71798 eV
One Electron Energy:         -237.29272169 Eh           -6457.06323 eV
Two Electron Energy:           81.11845003 Eh            2207.34524 eV

Virial components:
Potential Energy   :         -230.98810981 Eh           -6285.50602 eV
Kinetic Energy     :          115.25030546 Eh            3136.12025 eV
Virial Ratio       :            2.00422991


DFT components:
N(Alpha)           :        9.000000369778 electrons
N(Beta)            :        9.000000369778 electrons
N(Total)           :       18.000000739556 electrons
E(XC)              :      -10.655627101760 Eh       
DFET-embed. en.    :        0.000000000000 Eh       

---------------
SCF CONVERGENCE
---------------

  Last Energy change         ...   -6.8070e-11  Tolerance :   1.0000e-08
  Last MAX-Density change    ...    1.8589e-06  Tolerance :   1.0000e-07
  Last RMS-Density change    ...    7.9684e-08  Tolerance :   5.0000e-09
  Last Orbital Gradient      ...    1.3559e-06  Tolerance :   1.0000e-05
  Last Orbital Rotation      ...    7.8456e-07  Tolerance :   1.0000e-05

             **** THE GBW FILE WAS UPDATED (3_geo_opt.gbw) ****
             **** DENSITY FILE WAS UPDATED (3_geo_opt.scfp.tmp) ****
             **** ENERGY FILE WAS UPDATED (3_geo_opt.en.tmp) ****
----------------
ORBITAL ENERGIES
----------------

  NO   OCC          E(Eh)            E(eV) 
   0   2.0000     -19.227976      -523.2198 
   1   2.0000     -10.315145      -280.6894 
   2   2.0000      -1.136646       -30.9297 
   3   2.0000      -0.795467       -21.6458 
   4   2.0000      -0.611567       -16.6416 
   5   2.0000      -0.541358       -14.7311 
   6   2.0000      -0.526852       -14.3364 
   7   2.0000      -0.433738       -11.8026 
   8   2.0000      -0.373401       -10.1608 
   9   0.0000       0.116620         3.1734 
  10   0.0000       0.156669         4.2632 
  11   0.0000       0.202919         5.5217 
  12   0.0000       0.204920         5.5761 
  13   0.0000       0.226377         6.1600 
  14   0.0000       0.304322         8.2810 
  15   0.0000       0.313196         8.5225 
  16   0.0000       0.404622        11.0103 
  17   0.0000       0.452779        12.3207 
  18   0.0000       0.484641        13.1877 
  19   0.0000       0.535329        14.5670 
  20   0.0000       0.543771        14.7967 
  21   0.0000       0.568237        15.4625 
  22   0.0000       0.598327        16.2813 
  23   0.0000       0.603723        16.4281 
  24   0.0000       0.671237        18.2653 
  25   0.0000       0.779475        21.2106 
  26   0.0000       0.832635        22.6572 
  27   0.0000       0.861654        23.4468 
  28   0.0000       0.989446        26.9242 
  29   0.0000       1.013455        27.5775 
  30   0.0000       1.109845        30.2004 
  31   0.0000       1.383207        37.6390 
  32   0.0000       1.513019        41.1713 
  33   0.0000       1.553079        42.2614 
  34   0.0000       1.602995        43.6197 
  35   0.0000       1.612986        43.8916 
  36   0.0000       1.623939        44.1896 
  37   0.0000       1.660330        45.1799 
  38   0.0000       1.688151        45.9369 
  39   0.0000       1.774033        48.2739 
  40   0.0000       1.952291        53.1246 
  41   0.0000       2.029465        55.2246 
  42   0.0000       2.055010        55.9197 
  43   0.0000       2.095226        57.0140 
  44   0.0000       2.114545        57.5397 
  45   0.0000       2.268421        61.7269 
  46   0.0000       2.333798        63.5059 
  47   0.0000       2.345118        63.8139 
  48   0.0000       2.381394        64.8010 
  49   0.0000       2.430349        66.1332 
  50   0.0000       2.497083        67.9491 
  51   0.0000       2.596262        70.6479 
  52   0.0000       2.639062        71.8125 
  53   0.0000       2.707826        73.6837 
  54   0.0000       2.842143        77.3386 
  55   0.0000       2.872237        78.1575 
  56   0.0000       2.888152        78.5906 
  57   0.0000       2.992863        81.4400 
  58   0.0000       3.095973        84.2457 
  59   0.0000       3.172879        86.3384 
  60   0.0000       3.298946        89.7689 
  61   0.0000       3.408611        92.7530 
  62   0.0000       3.443810        93.7108 
  63   0.0000       3.487003        94.8862 
  64   0.0000       3.612871        98.3112 
  65   0.0000       3.645309        99.1939 
  66   0.0000       3.667213        99.7899 
  67   0.0000       4.005708       109.0008 
  68   0.0000       4.223499       114.9273 
  69   0.0000       4.274230       116.3077 
  70   0.0000       4.454742       121.2197 
  71   0.0000       4.565029       124.2208 
  72   0.0000       5.345538       145.4595 
  73   0.0000       5.424119       147.5978 
  74   0.0000       5.555048       151.1606 
  75   0.0000       5.825900       158.5308 
  76   0.0000       5.835597       158.7947 
  77   0.0000       5.984546       162.8478 
  78   0.0000       6.380125       173.6120 
  79   0.0000       6.531059       177.7192 
  80   0.0000       6.744000       183.5136 
  81   0.0000       6.804366       185.1562 
  82   0.0000       7.039486       191.5542 
  83   0.0000       7.216040       196.3584 
  84   0.0000      22.406519       609.7124 
  85   0.0000      43.664564      1188.1732 

                    ********************************
                    * MULLIKEN POPULATION ANALYSIS *
                    ********************************

-----------------------
MULLIKEN ATOMIC CHARGES
-----------------------
   0 C :   -0.150436
   1 O :   -0.478132
   2 H :    0.313162
   3 H :    0.098401
   4 H :    0.118600
   5 H :    0.098405
Sum of atomic charges:   -0.0000000

--------------------------------
MULLIKEN REDUCED ORBITAL CHARGES
--------------------------------
  0 C s       :     3.223140  s :     3.223140
      pz      :     1.047255  p :     2.825607
      px      :     0.701870
      py      :     1.076482
      dz2     :     0.011134  d :     0.094269
      dxz     :     0.032492
      dyz     :     0.002635
      dx2y2   :     0.012758
      dxy     :     0.035249
      f0      :     0.001358  f :     0.007419
      f+1     :     0.000952
      f-1     :     0.000175
      f+2     :     0.001464
      f-2     :     0.000122
      f+3     :     0.001365
      f-3     :     0.001984
  1 O s       :     3.792356  s :     3.792356
      pz      :     1.759848  p :     4.653573
      px      :     1.313809
      py      :     1.579915
      dz2     :     0.003130  d :     0.030515
      dxz     :     0.006468
      dyz     :     0.005815
      dx2y2   :     0.008920
      dxy     :     0.006183
      f0      :     0.000269  f :     0.001688
      f+1     :     0.000234
      f-1     :     0.000087
      f+2     :     0.000286
      f-2     :     0.000236
      f+3     :     0.000369
      f-3     :     0.000207
  2 H s       :     0.639139  s :     0.639139
      pz      :     0.017001  p :     0.047700
      px      :     0.012736
      py      :     0.017962
  3 H s       :     0.882265  s :     0.882265
      pz      :     0.012072  p :     0.019333
      px      :     0.002998
      py      :     0.004263
  4 H s       :     0.861121  s :     0.861121
      pz      :     0.006317  p :     0.020279
      px      :     0.004217
      py      :     0.009744
  5 H s       :     0.882262  s :     0.882262
      pz      :     0.004909  p :     0.019333
      px      :     0.004959
      py      :     0.009464


                     *******************************
                     * LOEWDIN POPULATION ANALYSIS *
                     *******************************

----------------------
LOEWDIN ATOMIC CHARGES
----------------------
   0 C :   -0.384844
   1 O :   -0.076224
   2 H :    0.165745
   3 H :    0.093598
   4 H :    0.108129
   5 H :    0.093596

-------------------------------
LOEWDIN REDUCED ORBITAL CHARGES
-------------------------------
  0 C s       :     2.862938  s :     2.862938
      pz      :     1.096560  p :     3.052014
      px      :     0.845969
      py      :     1.109485
      dz2     :     0.072472  d :     0.412863
      dxz     :     0.113917
      dyz     :     0.020629
      dx2y2   :     0.082261
      dxy     :     0.123584
      f0      :     0.007846  f :     0.057030
      f+1     :     0.007156
      f-1     :     0.000850
      f+2     :     0.012509
      f-2     :     0.004814
      f+3     :     0.011768
      f-3     :     0.012088
  1 O s       :     3.365895  s :     3.365895
      pz      :     1.699352  p :     4.634179
      px      :     1.381181
      py      :     1.553646
      dz2     :     0.006122  d :     0.071512
      dxz     :     0.017861
      dyz     :     0.008060
      dx2y2   :     0.019318
      dxy     :     0.020152
      f0      :     0.000483  f :     0.004637
      f+1     :     0.000621
      f-1     :     0.000072
      f+2     :     0.001046
      f-2     :     0.000560
      f+3     :     0.000890
      f-3     :     0.000965
  2 H s       :     0.675146  s :     0.675146
      pz      :     0.055738  p :     0.159109
      px      :     0.033948
      py      :     0.069423
  3 H s       :     0.846767  s :     0.846767
      pz      :     0.036122  p :     0.059635
      px      :     0.009667
      py      :     0.013846
  4 H s       :     0.831883  s :     0.831883
      pz      :     0.019344  p :     0.059988
      px      :     0.011718
      py      :     0.028926
  5 H s       :     0.846769  s :     0.846769
      pz      :     0.015523  p :     0.059635
      px      :     0.015129
      py      :     0.028982


                      *****************************
                      * MAYER POPULATION ANALYSIS *
                      *****************************

  NA   - Mulliken gross atomic population
  ZA   - Total nuclear charge
  QA   - Mulliken gross atomic charge
  VA   - Mayer's total valence
  BVA  - Mayer's bonded valence
  FA   - Mayer's free valence

  ATOM       NA         ZA         QA         VA         BVA        FA
  0 C      6.1504     6.0000    -0.1504     3.9350     3.9350    -0.0000
  1 O      8.4781     8.0000    -0.4781     1.8876     1.8876    -0.0000
  2 H      0.6868     1.0000     0.3132     0.9136     0.9136    -0.0000
  3 H      0.9016     1.0000     0.0984     0.9597     0.9597    -0.0000
  4 H      0.8814     1.0000     0.1186     0.9596     0.9596     0.0000
  5 H      0.9016     1.0000     0.0984     0.9597     0.9597    -0.0000

  Mayer bond orders larger than 0.1
B(  0-C ,  1-O ) :   0.9985 B(  0-C ,  3-H ) :   0.9756 B(  0-C ,  4-H ) :   0.9748 
B(  0-C ,  5-H ) :   0.9756 B(  1-O ,  2-H ) :   0.9000 

-------
TIMINGS
-------

Total SCF time: 0 days 0 hours 0 min 8 sec 

Total time                  ....       8.836 sec
Sum of individual times     ....       8.418 sec  ( 95.3%)

Fock matrix formation       ....       6.846 sec  ( 77.5%)
  XC integration            ....       1.939 sec  ( 28.3% of F)
    Basis function eval.    ....       0.423 sec  ( 21.8% of XC)
    Density eval.           ....       0.266 sec  ( 13.7% of XC)
    XC-Functional eval.     ....       0.678 sec  ( 35.0% of XC)
    XC-Potential eval.      ....       0.273 sec  ( 14.1% of XC)
Diagonalization             ....       0.032 sec  (  0.4%)
Density matrix formation    ....       0.003 sec  (  0.0%)
Population analysis         ....       0.043 sec  (  0.5%)
Initial guess               ....       0.173 sec  (  2.0%)
Orbital Transformation      ....       0.000 sec  (  0.0%)
Orbital Orthonormalization  ....       0.000 sec  (  0.0%)
DIIS solution               ....       0.019 sec  (  0.2%)
SOSCF solution              ....       0.016 sec  (  0.2%)
Grid generation             ....       1.287 sec  ( 14.6%)


-------------------------------------------------------------------------------
                          DFT DISPERSION CORRECTION                            
                                                                               
                              DFTD3 V3.1  Rev 1                                
                              USING zero damping                               
-------------------------------------------------------------------------------
The omegaB97X-D3 functional is recognized. Fit by Chai et al.
Active option DFTDOPT                   ...         3   

molecular C6(AA) [au] = 208.717217 


            DFT-D V3
 parameters
 s6 scaling factor         :     1.0000 
 rs6 scaling factor        :     1.2810 
 s8 scaling factor         :     1.0000 
 rs8 scaling factor        :     1.0940 
 Damping factor alpha6     :    14.0000 
 Damping factor alpha8     :    16.0000 
 ad hoc parameters k1-k3   :    16.0000     1.3333    -4.0000 

 Edisp/kcal,au: -0.150327612489  -0.000239562274 
 E6   /kcal   :  -0.029665563 
 E8   /kcal   :  -0.120662050 
 % E8         :  80.266058631 

-------------------------   ----------------
Dispersion correction           -0.000239562
-------------------------   ----------------


-------------------------   --------------------
FINAL SINGLE POINT ENERGY      -115.738043909567
-------------------------   --------------------



           ************************************************************
           *        Program running with 4 parallel MPI-processes     *
           *              working on a common directory               *
           ************************************************************
------------------------------------------------------------------------------
                         ORCA SCF GRADIENT CALCULATION
------------------------------------------------------------------------------

Gradient of the Kohn-Sham DFT energy:
Kohn-Sham wavefunction type      ... RKS
Hartree-Fock exchange scaling    ...    0.196
Number of operators              ...    1
Number of atoms                  ...    6
Basis set dimensions             ...   86
Integral neglect threshold       ... 2.5e-11
Integral primitive cutoff        ... 2.5e-12

Nuclear repulsion gradient       ... done
One Electron Gradient            ... done
Pre-screening matrix             ... done
Starting the two electron gradient:
Two electron gradient done
Exchange-correlation gradient    ... done
Dispersion correction            ... done

------------------
CARTESIAN GRADIENT
------------------

   1   C   :   -0.000465006   -0.002412435    0.001657502
   2   O   :   -0.000114341    0.000447795   -0.000354649
   3   H   :    0.000373929    0.000003822    0.000080224
   4   H   :   -0.000022046    0.000142522   -0.000665397
   5   H   :    0.000406637    0.001165276   -0.000764325
   6   H   :   -0.000179173    0.000653020    0.000046645

Difference to translation invariance:
           :    0.0000000000   -0.0000000000    0.0000000000

Norm of the cartesian gradient     ...    0.0035072367
RMS gradient                       ...    0.0008266636
MAX gradient                       ...    0.0024124349

-------
TIMINGS
-------

Total SCF gradient time            ...        1.764 sec

One electron gradient       ....       0.005 sec  (  0.3%)
Prescreening matrices       ....       0.024 sec  (  1.3%)
Two electron gradient       ....       0.839 sec  ( 47.6%)
XC gradient                 ....       0.585 sec  ( 33.2%)
------------------------------------------------------------------------------
                         ORCA GEOMETRY RELAXATION STEP
------------------------------------------------------------------------------

Reading the OPT-File                    .... done
Getting information on internals        .... done
Copying old internal coords+grads       .... done
Making the new internal coordinates     .... (new redundants).... done
Validating the new internal coordinates .... (new redundants).... done
Calculating the B-matrix                .... done
Calculating the G,G- and P matrices     .... done
Transforming gradient to internals      .... done
Projecting the internal gradient        .... done
Number of atoms                         ....   6
Number of internal coordinates          ....  15
Current Energy                          ....  -115.738043910 Eh
Current gradient norm                   ....     0.003507237 Eh/bohr
Maximum allowed component of the step   ....  0.300
Current trust radius                    ....  0.300
Evaluating the initial hessian          ....  (Almloef) done
Projecting the Hessian                  .... done
Forming the augmented Hessian           .... done
Diagonalizing the augmented Hessian     .... done
Last element of RFO vector              ....  0.999984222
Lowest eigenvalues of augmented Hessian:
 -0.000010032  0.021176288  0.182158312  0.192191135  0.313356360
Length of the computed step             ....  0.005617498
The final length of the internal step   ....  0.005617498
Converting the step to cartesian space:
 Initial RMS(Int)=    0.0014504319
Transforming coordinates:
 Iter   0:  RMS(Cart)=    0.0008118962 RMS(Int)=    1.6223015888
 Iter   1:  RMS(Cart)=    0.0000009613 RMS(Int)=    0.0000009308
 Iter   2:  RMS(Cart)=    0.0000000011 RMS(Int)=    0.0000000010
Imposing constraints:
 Iter   0:  RMS(Cart)=    0.0000000015 RMS(Int)=    0.0000000000
CONVERGED
done
Storing new coordinates                 .... done

                                .--------------------.
          ----------------------|Geometry convergence|-------------------------
          Item                value                   Tolerance       Converged
          ---------------------------------------------------------------------
          RMS gradient        0.0004743756            0.0001000000      NO
          MAX gradient        0.0014453638            0.0003000000      NO
          RMS step            0.0014504319            0.0020000000      YES
          MAX step            0.0039721263            0.0040000000      YES
          ........................................................
          Max(Bonds)      0.0021      Max(Angles)    0.08
          Max(Dihed)        0.08      Max(Improp)    0.00
          ---------------------------------------------------------------------

The optimization has not yet converged - more geometry cycles are needed


    ---------------------------------------------------------------------------
                         Redundant Internal Coordinates
                            (Angstroem and degrees)

        Definition                    Value    dE/dq     Step     New-Value
    ----------------------------------------------------------------------------
     1. B(O   1,C   0)                1.4116  0.000219 -0.0002    1.4114   
     2. B(H   2,O   1)                0.9575  0.000112 -0.0001    0.9574   
     3. B(H   3,C   0)                1.0971  0.000635 -0.0010    1.0962   
     4. B(H   4,C   0)                1.0872 -0.001445  0.0021    1.0893   
     5. B(H   5,C   0)                1.0971  0.000635 -0.0010    1.0962   
     6. A(O   1,C   0,H   4)          107.15  0.000393   -0.08    107.07   
     7. A(O   1,C   0,H   3)          112.16 -0.000231    0.05    112.20   
     8. A(O   1,C   0,H   5)          112.16 -0.000231    0.05    112.21   
     9. A(H   3,C   0,H   5)          108.61 -0.000115    0.06    108.67   
    10. A(H   4,C   0,H   5)          108.31  0.000106   -0.04    108.27   
    11. A(H   3,C   0,H   4)          108.31  0.000106   -0.04    108.27   
    12. A(C   0,O   1,H   2)          108.95  0.000663    0.00    108.95 C 
    13. D(H   2,O   1,C   0,H   5)    -61.27  0.000246   -0.07    -61.34   
    14. D(H   2,O   1,C   0,H   3)     61.27 -0.000247    0.08     61.35   
    15. D(H   2,O   1,C   0,H   4)    180.00 -0.000001    0.00    180.00   
    ----------------------------------------------------------------------------

         *************************************************************
         *                GEOMETRY OPTIMIZATION CYCLE   2            *
         *************************************************************
---------------------------------
CARTESIAN COORDINATES (ANGSTROEM)
---------------------------------
  C      3.011194   -1.181861    0.599167
  O      4.394452   -1.127950    0.874168
  H      4.774125   -0.379547    0.413336
  H      2.806218   -1.318826   -0.468936
  H      2.611595   -2.041021    1.136449
  H      2.484716   -0.284868    0.945354

----------------------------
CARTESIAN COORDINATES (A.U.)
----------------------------
  NO LB      ZA    FRAG     MASS         X           Y           Z
   0 C     6.0000    0    12.011    5.690332   -2.233393    1.132261
   1 O     8.0000    0    15.999    8.304312   -2.131516    1.651938
   2 H     1.0000    0     1.008    9.021789   -0.717240    0.781092
   3 H     1.0000    0     1.008    5.302983   -2.492219   -0.886161
   4 H     1.0000    0     1.008    4.935199   -3.856971    2.147577
   5 H     1.0000    0     1.008    4.695433   -0.538323    1.786460

--------------------------------
INTERNAL COORDINATES (ANGSTROEM)
--------------------------------
 C      0   0   0     0.000000000000     0.00000000     0.00000000
 O      1   0   0     1.411359612575     0.00000000     0.00000000
 H      2   1   0     0.957404583740   108.94986535     0.00000000
 H      1   2   3     1.096183410673   112.20351676    61.34617282
 H      1   2   3     1.089269491566   107.07156419   180.00036894
 H      1   2   3     1.096184633645   112.20536324   298.65504767

---------------------------
INTERNAL COORDINATES (A.U.)
---------------------------
 C      0   0   0     0.000000000000     0.00000000     0.00000000
 O      1   0   0     2.667083144244     0.00000000     0.00000000
 H      2   1   0     1.809232462630   108.94986535     0.00000000
 H      1   2   3     2.071486438720   112.20351676    61.34617282
 H      1   2   3     2.058421025095   107.07156419   180.00036894
 H      1   2   3     2.071488749802   112.20536324   298.65504767



           ************************************************************
           *        Program running with 4 parallel MPI-processes     *
           *              working on a common directory               *
           ************************************************************


           ************************************************************
           *        Program running with 4 parallel MPI-processes     *
           *              working on a common directory               *
           ************************************************************

Diagonalization of the overlap matrix:
Smallest eigenvalue                        ... 1.651e-03
Time for diagonalization                   ...    0.002 sec
Threshold for overlap eigenvalues          ... 1.000e-08
Number of eigenvalues below threshold      ... 0
Time for construction of square roots      ...    0.007 sec
Total time needed                          ...    0.009 sec

-------------------
DFT GRID GENERATION
-------------------

General Integration Accuracy     IntAcc      ...  5.010
Radial Grid Type                 RadialGrid  ... Gauss-Chebyshev
Angular Grid (max. acc.)         AngularGrid ... Lebedev-434
Angular grid pruning method      GridPruning ... 3 (G Style)
Weight generation scheme         WeightScheme... Becke
Basis function cutoff            BFCut       ...    1.0000e-11
Integration weight cutoff        WCut        ...    1.0000e-14
Grids for H and He will be reduced by one unit

# of grid points (after initial pruning)     ...  48308 (   0.0 sec)
# of grid points (after weights+screening)   ...  46676 (   0.0 sec)
nearest neighbour list constructed           ...    0.0 sec
Grid point re-assignment to atoms done       ...    0.0 sec
Grid point division into batches done        ...    0.3 sec
Reduced shell lists constructed in    0.3 sec

Total number of grid points                  ...    46676
Total number of batches                      ...      733
Average number of points per batch           ...       63
Average number of grid points per atom       ...     7779
Average number of shells per batch           ...    33.17 (87.30%)
Average number of basis functions per batch  ...    76.97 (89.50%)
Average number of large shells per batch     ...    30.59 (92.21%)
Average number of large basis fcns per batch ...    72.34 (93.99%)
Maximum spatial batch extension              ...  15.77, 14.99, 16.58 au
Average spatial batch extension              ...   0.40,  0.41,  0.42 au

Time for grid setup =    0.387 sec

--------------
SCF ITERATIONS
--------------
ITER       Energy         Delta-E        Max-DP      RMS-DP      [F,P]     Damp
               ***  Starting incremental Fock matrix formation  ***
                      *** Initiating the SOSCF procedure ***
                      *** Re-Reading the Fockian *** 
                      *** Removing any level shift *** 
ITER      Energy       Delta-E        Grad      Rot      Max-DP    RMS-DP
  0   -115.73770106 -115.7377010624  0.000246  0.000246  0.000248  0.000013
               *** Restarting incremental Fock matrix formation ***
  1   -115.73770236  -0.0000013012  0.000061  0.000103  0.000100  0.000005
  2   -115.73770252  -0.0000001561  0.000023  0.000055  0.000057  0.000003
  3   -115.73770253  -0.0000000141  0.000010  0.000008  0.000013  0.000001
  4   -115.73770253  -0.0000000003  0.000007  0.000003  0.000006  0.000000
                 **** Energy Check signals convergence ****
              ***Rediagonalizing the Fockian in SOSCF/NRSCF***

               *****************************************************
               *                     SUCCESS                       *
               *           SCF CONVERGED AFTER   5 CYCLES          *
               *****************************************************

Setting up the final grid:

General Integration Accuracy     IntAcc      ...  5.340
Radial Grid Type                 RadialGrid  ... Gauss-Chebyshev
Angular Grid (max. acc.)         AngularGrid ... Lebedev-590
Angular grid pruning method      GridPruning ... 3 (G Style)
Weight generation scheme         WeightScheme... Becke
Basis function cutoff            BFCut       ...    1.0000e-11
Integration weight cutoff        WCut        ...    1.0000e-14
Grids for H and He will be reduced by one unit

# of grid points (after initial pruning)     ...  77324 (   0.0 sec)
# of grid points (after weights+screening)   ...  74510 (   0.0 sec)
nearest neighbour list constructed           ...    0.0 sec
Grid point re-assignment to atoms done       ...    0.0 sec
Grid point division into batches done        ...    0.8 sec
Reduced shell lists constructed in    0.8 sec

Total number of grid points                  ...    74510
Total number of batches                      ...     1168
Average number of points per batch           ...       63
Average number of grid points per atom       ...    12418
Average number of shells per batch           ...    32.93 (86.66%)
Average number of basis functions per batch  ...    76.34 (88.76%)
Average number of large shells per batch     ...    30.36 (92.20%)
Average number of large basis fcns per batch ...    71.58 (93.76%)
Maximum spatial batch extension              ...  13.18, 13.58, 15.48 au
Average spatial batch extension              ...   0.33,  0.36,  0.37 au

Final grid set up in    0.9 sec
Final integration                            ... done (   0.2 sec)
Change in XC energy                          ...    -0.000107642
Integrated number of electrons               ...    18.000000739
Previous integrated no of electrons          ...    18.000002269
Total Energy       :         -115.73781018 Eh           -3149.38593 eV
  Last Energy change         ...   -4.3596e-10  Tolerance :   1.0000e-08
  Last MAX-Density change    ...    1.4565e-06  Tolerance :   1.0000e-07
             **** THE GBW FILE WAS UPDATED (3_geo_opt.gbw) ****
             **** DENSITY FILE WAS UPDATED (3_geo_opt.scfp.tmp) ****
             **** ENERGY FILE WAS UPDATED (3_geo_opt.en.tmp) ****
Total SCF time: 0 days 0 hours 0 min 5 sec 


-------------------------------------------------------------------------------
                          DFT DISPERSION CORRECTION                            
                                                                               
                              DFTD3 V3.1  Rev 1                                
                              USING zero damping                               
-------------------------------------------------------------------------------
-------------------------   ----------------
Dispersion correction           -0.000239559
-------------------------   ----------------


-------------------------   --------------------
FINAL SINGLE POINT ENERGY      -115.738049735225
-------------------------   --------------------



           ************************************************************
           *        Program running with 4 parallel MPI-processes     *
           *              working on a common directory               *
           ************************************************************
------------------------------------------------------------------------------
                         ORCA SCF GRADIENT CALCULATION
------------------------------------------------------------------------------

Gradient of the Kohn-Sham DFT energy:
Kohn-Sham wavefunction type      ... RKS
Hartree-Fock exchange scaling    ...    0.196
Number of operators              ...    1
Number of atoms                  ...    6
Basis set dimensions             ...   86
Integral neglect threshold       ... 2.5e-11
Integral primitive cutoff        ... 2.5e-12

Nuclear repulsion gradient       ... done
One Electron Gradient            ... done
Pre-screening matrix             ... done
Starting the two electron gradient:
Two electron gradient done
Exchange-correlation gradient    ... done
Dispersion correction            ... done

------------------
CARTESIAN GRADIENT
------------------

   1   C   :   -0.000161860   -0.000651219    0.000439235
   2   O   :   -0.000203184    0.000393014   -0.000334892
   3   H   :    0.000292338   -0.000100175    0.000137754
   4   H   :    0.000023811    0.000146782   -0.000077666
   5   H   :    0.000015908    0.000089478   -0.000066703
   6   H   :    0.000032988    0.000122120   -0.000097728

Difference to translation invariance:
           :    0.0000000000    0.0000000000   -0.0000000000

Norm of the cartesian gradient     ...    0.0010639481
RMS gradient                       ...    0.0002507750
MAX gradient                       ...    0.0006512187

-------
TIMINGS
-------

Total SCF gradient time            ...        1.633 sec

One electron gradient       ....       0.010 sec  (  0.6%)
Prescreening matrices       ....       0.024 sec  (  1.5%)
Two electron gradient       ....       0.839 sec  ( 51.4%)
XC gradient                 ....       0.409 sec  ( 25.1%)
------------------------------------------------------------------------------
                         ORCA GEOMETRY RELAXATION STEP
------------------------------------------------------------------------------

Reading the OPT-File                    .... done
Getting information on internals        .... done
Copying old internal coords+grads       .... done
Making the new internal coordinates     .... (new redundants).... done
Validating the new internal coordinates .... (new redundants).... done
Calculating the B-matrix                .... done
Calculating the G,G- and P matrices     .... done
Transforming gradient to internals      .... done
Projecting the internal gradient        .... done
Number of atoms                         ....   6
Number of internal coordinates          ....  15
Current Energy                          ....  -115.738049735 Eh
Current gradient norm                   ....     0.001063948 Eh/bohr
Maximum allowed component of the step   ....  0.300
Current trust radius                    ....  0.300
Updating the Hessian (BFGS)             .... done
Forming the augmented Hessian           .... done
Diagonalizing the augmented Hessian     .... done
Last element of RFO vector              ....  0.999997500
Lowest eigenvalues of augmented Hessian:
 -0.000000781  0.021175771  0.150288884  0.192191136  0.310670523
Length of the computed step             ....  0.002236132
The final length of the internal step   ....  0.002236132
Converting the step to cartesian space:
 Initial RMS(Int)=    0.0005773667
Transforming coordinates:
 Iter   0:  RMS(Cart)=    0.0004205125 RMS(Int)=    0.0005773565
 Iter   1:  RMS(Cart)=    0.0000002458 RMS(Int)=    0.0000002648
 Iter   2:  RMS(Cart)=    0.0000000001 RMS(Int)=    0.0000000002
Imposing constraints:
 Iter   0:  RMS(Cart)=    0.0000000004 RMS(Int)=    0.0000000000
CONVERGED
done
Storing new coordinates                 .... done

                                .--------------------.
          ----------------------|Geometry convergence|-------------------------
          Item                value                   Tolerance       Converged
          ---------------------------------------------------------------------
          Energy change      -0.0000058257            0.0000050000      NO
          RMS gradient        0.0000923405            0.0001000000      YES
          MAX gradient        0.0001465406            0.0003000000      YES
          RMS step            0.0005773667            0.0020000000      YES
          MAX step            0.0010104098            0.0040000000      YES
          ........................................................
          Max(Bonds)      0.0003      Max(Angles)    0.05
          Max(Dihed)        0.06      Max(Improp)    0.00
          ---------------------------------------------------------------------

       Everything but the energy has converged. However, the energy
       appears to be close enough to convergence to make sure that the
       final evaluation at the new geometry represents the equilibrium energy.
       Convergence will therefore be signaled now


                    ***********************HURRAY********************
                    ***        THE OPTIMIZATION HAS CONVERGED     ***
                    *************************************************


    ---------------------------------------------------------------------------
                         Redundant Internal Coordinates

                          --- Optimized Parameters ---  
                            (Angstroem and degrees)

        Definition                    OldVal   dE/dq     Step     FinalVal
    ----------------------------------------------------------------------------
     1. B(O   1,C   0)                1.4114  0.000061 -0.0001    1.4113   
     2. B(H   2,O   1)                0.9574 -0.000029  0.0000    0.9574   
     3. B(H   3,C   0)                1.0962  0.000053 -0.0001    1.0960   
     4. B(H   4,C   0)                1.0893 -0.000109  0.0003    1.0896   
     5. B(H   5,C   0)                1.0962  0.000053 -0.0001    1.0960   
     6. A(O   1,C   0,H   4)          107.07  0.000147   -0.04    107.03   
     7. A(O   1,C   0,H   3)          112.20 -0.000099    0.03    112.23   
     8. A(O   1,C   0,H   5)          112.21 -0.000099    0.03    112.23   
     9. A(H   3,C   0,H   5)          108.67 -0.000102    0.05    108.72   
    10. A(H   4,C   0,H   5)          108.27  0.000086   -0.04    108.23   
    11. A(H   3,C   0,H   4)          108.27  0.000085   -0.04    108.23   
    12. A(C   0,O   1,H   2)          108.95  0.000611    0.00    108.95 C 
    13. D(H   2,O   1,C   0,H   5)    -61.34  0.000140   -0.05    -61.40   
    14. D(H   2,O   1,C   0,H   3)     61.35 -0.000142    0.06     61.40   
    15. D(H   2,O   1,C   0,H   4)   -180.00 -0.000001    0.00   -180.00   
    ----------------------------------------------------------------------------
                 *******************************************************
                 *** FINAL ENERGY EVALUATION AT THE STATIONARY POINT ***
                 ***               (AFTER    2 CYCLES)               ***
                 *******************************************************
---------------------------------
CARTESIAN COORDINATES (ANGSTROEM)
---------------------------------
  C      3.011236   -1.181400    0.598834
  O      4.394362   -1.128011    0.874172
  H      4.774424   -0.379661    0.413513
  H      2.805981   -1.319156   -0.468969
  H      2.611866   -2.040856    1.136397
  H      2.484432   -0.284990    0.945590

----------------------------
CARTESIAN COORDINATES (A.U.)
----------------------------
  NO LB      ZA    FRAG     MASS         X           Y           Z
   0 C     6.0000    0    12.011    5.690411   -2.232522    1.131632
   1 O     8.0000    0    15.999    8.304140   -2.131632    1.651945
   2 H     1.0000    0     1.008    9.022354   -0.717455    0.781427
   3 H     1.0000    0     1.008    5.302535   -2.492843   -0.886223
   4 H     1.0000    0     1.008    4.935711   -3.856659    2.147479
   5 H     1.0000    0     1.008    4.694897   -0.538552    1.786907

--------------------------------
INTERNAL COORDINATES (ANGSTROEM)
--------------------------------
 C      0   0   0     0.000000000000     0.00000000     0.00000000
 O      1   0   0     1.411275214114     0.00000000     0.00000000
 H      2   1   0     0.957434631688   108.94986535     0.00000000
 H      1   2   3     1.096042993254   112.23215508    61.40414503
 H      1   2   3     1.089557613775   107.02663568   180.00324759
 H      1   2   3     1.096044127118   112.23403620   298.60273266

---------------------------
INTERNAL COORDINATES (A.U.)
---------------------------
 C      0   0   0     0.000000000000     0.00000000     0.00000000
 O      1   0   0     2.666923654266     0.00000000     0.00000000
 H      2   1   0     1.809289245021   108.94986535     0.00000000
 H      1   2   3     2.071221088253   112.23215508    61.40414503
 H      1   2   3     2.058965497164   107.02663568   180.00324759
 H      1   2   3     2.071223230946   112.23403620   298.60273266

---------------------
BASIS SET INFORMATION
---------------------
There are 3 groups of distinct atoms

 Group   1 Type C   : 11s6p2d1f contracted to 5s3p2d1f pattern {62111/411/11/1}
 Group   2 Type O   : 11s6p2d1f contracted to 5s3p2d1f pattern {62111/411/11/1}
 Group   3 Type H   : 5s1p contracted to 3s1p pattern {311/1}

Atom   0C    basis set group =>   1
Atom   1O    basis set group =>   2
Atom   2H    basis set group =>   3
Atom   3H    basis set group =>   3
Atom   4H    basis set group =>   3
Atom   5H    basis set group =>   3


           ************************************************************
           *        Program running with 4 parallel MPI-processes     *
           *              working on a common directory               *
           ************************************************************
------------------------------------------------------------------------------
                           ORCA GTO INTEGRAL CALCULATION
------------------------------------------------------------------------------

                         BASIS SET STATISTICS AND STARTUP INFO

 # of primitive gaussian shells          ...   64
 # of primitive gaussian functions       ...  124
 # of contracted shells                  ...   38
 # of contracted basis functions         ...   86
 Highest angular momentum                ...    3
 Maximum contraction depth               ...    6
 Integral package used                   ... LIBINT
 Integral threshhold            Thresh   ...  2.500e-11
 Primitive cut-off              TCut     ...  2.500e-12


------------------------------ INTEGRAL EVALUATION ----------------------------


 * One electron integrals 
 Pre-screening matrix                    ... done
 Shell pair data                         ... done (   0.000 sec)



           ************************************************************
           *        Program running with 4 parallel MPI-processes     *
           *              working on a common directory               *
           ************************************************************
-------------------------------------------------------------------------------
                                 ORCA SCF
-------------------------------------------------------------------------------

------------
SCF SETTINGS
------------
Hamiltonian:
 Density Functional     Method          .... DFT(GTOs)
 Exchange Functional    Exchange        .... WB97X-D3
 Correlation Functional Correlation     .... WB97X-D3
 Gradients option       PostSCFGGA      .... off
 Hybrid DFT is turned on
   Fraction HF Exchange ScalHFX         ....  0.195728
   Scaling of DF-GGA-X  ScalDFX         ....  0.000000
   Scaling of DF-GGA-C  ScalDFC         ....  1.000000
   Scaling of DF-LDA-C  ScalLDAC        ....  1.000000
   Perturbative correction              ....  0.000000
   Density functional embedding theory  .... OFF
 Long-range corrected/Screened/Range-Separated Hybrid DFT is turned on
   Amount of maximum screened exact exchange              ....  0.804272
   Range separation parameter mu (erf(mu*r12)/r12)        ....  0.250000


General Settings:
 Integral files         IntName         .... 3_geo_opt
 Hartree-Fock type      HFTyp           .... RHF
 Total Charge           Charge          ....    0
 Multiplicity           Mult            ....    1
 Number of Electrons    NEL             ....   18
 Basis Dimension        Dim             ....   86
 Nuclear Repulsion      ENuc            ....     40.4407810764 Eh

Convergence Acceleration:
 DIIS                   CNVDIIS         .... on
   Start iteration      DIISMaxIt       ....    12
   Startup error        DIISStart       ....  0.200000
   # of expansion vecs  DIISMaxEq       ....     5
   Bias factor          DIISBfac        ....   1.050
   Max. coefficient     DIISMaxC        ....  10.000
 Newton-Raphson         CNVNR           .... off
 SOSCF                  CNVSOSCF        .... on
   Start iteration      SOSCFMaxIt      ....   150
   Startup grad/error   SOSCFStart      ....  0.003300
 Level Shifting         CNVShift        .... on
   Level shift para.    LevelShift      ....    0.2500
   Turn off err/grad.   ShiftErr        ....    0.0010
 Zerner damping         CNVZerner       .... off
 Static damping         CNVDamp         .... on
   Fraction old density DampFac         ....    0.7000
   Max. Damping (<1)    DampMax         ....    0.9800
   Min. Damping (>=0)   DampMin         ....    0.0000
   Turn off err/grad.   DampErr         ....    0.1000
 Fernandez-Rico         CNVRico         .... off

SCF Procedure:
 Maximum # iterations   MaxIter         ....   125
 SCF integral mode      SCFMode         .... Direct
   Integral package                     .... LIBINT
 Reset frequency        DirectResetFreq ....    20
 Integral Threshold     Thresh          ....  2.500e-11 Eh
 Primitive CutOff       TCut            ....  2.500e-12 Eh

Convergence Tolerance:
 Convergence Check Mode ConvCheckMode   .... Total+1el-Energy
 Convergence forced     ConvForced      .... 0
 Energy Change          TolE            ....  1.000e-08 Eh
 1-El. energy change                    ....  1.000e-05 Eh
 Orbital Gradient       TolG            ....  1.000e-05
 Orbital Rotation angle TolX            ....  1.000e-05
 DIIS Error             TolErr          ....  5.000e-07


Diagonalization of the overlap matrix:
Smallest eigenvalue                        ... 1.650e-03
Time for diagonalization                   ...    0.002 sec
Threshold for overlap eigenvalues          ... 1.000e-08
Number of eigenvalues below threshold      ... 0
Time for construction of square roots      ...    0.003 sec
Total time needed                          ...    0.006 sec

---------------------
INITIAL GUESS: MOREAD
---------------------
Guess MOs are being read from file: 3_geo_opt.gbw
Input Geometry matches current geometry (good)
Input basis set matches current basis set (good)
MOs were renormalized
MOs were reorthogonalized (Cholesky)
                      ------------------
                      INITIAL GUESS DONE (   0.0 sec)
                      ------------------
-------------------
DFT GRID GENERATION
-------------------

General Integration Accuracy     IntAcc      ...  5.010
Radial Grid Type                 RadialGrid  ... Gauss-Chebyshev
Angular Grid (max. acc.)         AngularGrid ... Lebedev-434
Angular grid pruning method      GridPruning ... 3 (G Style)
Weight generation scheme         WeightScheme... Becke
Basis function cutoff            BFCut       ...    1.0000e-11
Integration weight cutoff        WCut        ...    1.0000e-14
Grids for H and He will be reduced by one unit

# of grid points (after initial pruning)     ...  48308 (   0.0 sec)
# of grid points (after weights+screening)   ...  46677 (   0.0 sec)
nearest neighbour list constructed           ...    0.0 sec
Grid point re-assignment to atoms done       ...    0.0 sec
Grid point division into batches done        ...    0.3 sec
Reduced shell lists constructed in    0.4 sec

Total number of grid points                  ...    46677
Total number of batches                      ...      733
Average number of points per batch           ...       63
Average number of grid points per atom       ...     7780
Average number of shells per batch           ...    33.17 (87.30%)
Average number of basis functions per batch  ...    76.97 (89.50%)
Average number of large shells per batch     ...    30.58 (92.19%)
Average number of large basis fcns per batch ...    72.26 (93.88%)
Maximum spatial batch extension              ...  15.77, 14.99, 16.58 au
Average spatial batch extension              ...   0.40,  0.41,  0.42 au

Time for grid setup =    0.459 sec

--------------
SCF ITERATIONS
--------------
ITER       Energy         Delta-E        Max-DP      RMS-DP      [F,P]     Damp
               ***  Starting incremental Fock matrix formation  ***
                      *** Initiating the SOSCF procedure ***
                      *** Re-Reading the Fockian *** 
                      *** Removing any level shift *** 
ITER      Energy       Delta-E        Grad      Rot      Max-DP    RMS-DP
  0   -115.73770273 -115.7377027277  0.000061  0.000061  0.000052  0.000004
               *** Restarting incremental Fock matrix formation ***
  1   -115.73770287  -0.0000001417  0.000020  0.000023  0.000029  0.000002
  2   -115.73770289  -0.0000000177  0.000006  0.000010  0.000014  0.000001
                 **** Energy Check signals convergence ****
              ***Rediagonalizing the Fockian in SOSCF/NRSCF***

               *****************************************************
               *                     SUCCESS                       *
               *           SCF CONVERGED AFTER   3 CYCLES          *
               *****************************************************

Setting up the final grid:

General Integration Accuracy     IntAcc      ...  5.340
Radial Grid Type                 RadialGrid  ... Gauss-Chebyshev
Angular Grid (max. acc.)         AngularGrid ... Lebedev-590
Angular grid pruning method      GridPruning ... 3 (G Style)
Weight generation scheme         WeightScheme... Becke
Basis function cutoff            BFCut       ...    1.0000e-11
Integration weight cutoff        WCut        ...    1.0000e-14
Grids for H and He will be reduced by one unit

# of grid points (after initial pruning)     ...  77324 (   0.0 sec)
# of grid points (after weights+screening)   ...  74512 (   0.0 sec)
nearest neighbour list constructed           ...    0.0 sec
Grid point re-assignment to atoms done       ...    0.0 sec
Grid point division into batches done        ...    0.8 sec
Reduced shell lists constructed in    0.8 sec

Total number of grid points                  ...    74512
Total number of batches                      ...     1168
Average number of points per batch           ...       63
Average number of grid points per atom       ...    12419
Average number of shells per batch           ...    32.92 (86.64%)
Average number of basis functions per batch  ...    76.35 (88.78%)
Average number of large shells per batch     ...    30.34 (92.16%)
Average number of large basis fcns per batch ...    71.54 (93.70%)
Maximum spatial batch extension              ...  13.18, 13.58, 15.48 au
Average spatial batch extension              ...   0.33,  0.36,  0.37 au

Final grid set up in    1.0 sec
Final integration                            ... done (   0.2 sec)
Change in XC energy                          ...    -0.000107654
Integrated number of electrons               ...    18.000000739
Previous integrated no of electrons          ...    18.000002263

----------------
TOTAL SCF ENERGY
----------------

Total Energy       :         -115.73781054 Eh           -3149.38594 eV

Components:
Nuclear Repulsion  :           40.44078108 Eh            1100.44960 eV
Electronic Energy  :         -156.17859162 Eh           -4249.83554 eV
One Electron Energy:         -237.30110927 Eh           -6457.29147 eV
Two Electron Energy:           81.12251765 Eh            2207.45593 eV

Virial components:
Potential Energy   :         -230.98858328 Eh           -6285.51890 eV
Kinetic Energy     :          115.25077273 Eh            3136.13296 eV
Virial Ratio       :            2.00422590


DFT components:
N(Alpha)           :        9.000000369684 electrons
N(Beta)            :        9.000000369684 electrons
N(Total)           :       18.000000739369 electrons
E(XC)              :      -10.655711478948 Eh       
DFET-embed. en.    :        0.000000000000 Eh       

---------------
SCF CONVERGENCE
---------------

  Last Energy change         ...   -1.3441e-09  Tolerance :   1.0000e-08
  Last MAX-Density change    ...    2.5085e-06  Tolerance :   1.0000e-07
  Last RMS-Density change    ...    1.2363e-07  Tolerance :   5.0000e-09
  Last Orbital Gradient      ...    7.2737e-07  Tolerance :   1.0000e-05
  Last Orbital Rotation      ...    1.1666e-06  Tolerance :   1.0000e-05

             **** THE GBW FILE WAS UPDATED (3_geo_opt.gbw) ****
             **** DENSITY FILE WAS UPDATED (3_geo_opt.scfp.tmp) ****
             **** ENERGY FILE WAS UPDATED (3_geo_opt.en.tmp) ****
----------------
ORBITAL ENERGIES
----------------

  NO   OCC          E(Eh)            E(eV) 
   0   2.0000     -19.228001      -523.2205 
   1   2.0000     -10.315099      -280.6881 
   2   2.0000      -1.136767       -30.9330 
   3   2.0000      -0.795428       -21.6447 
   4   2.0000      -0.611703       -16.6453 
   5   2.0000      -0.541700       -14.7404 
   6   2.0000      -0.526436       -14.3251 
   7   2.0000      -0.433570       -11.7980 
   8   2.0000      -0.373546       -10.1647 
   9   0.0000       0.116685         3.1752 
  10   0.0000       0.156658         4.2629 
  11   0.0000       0.202601         5.5130 
  12   0.0000       0.205158         5.5826 
  13   0.0000       0.226444         6.1619 
  14   0.0000       0.304278         8.2798 
  15   0.0000       0.313346         8.5266 
  16   0.0000       0.404744        11.0136 
  17   0.0000       0.452760        12.3202 
  18   0.0000       0.484753        13.1908 
  19   0.0000       0.535805        14.5800 
  20   0.0000       0.543766        14.7966 
  21   0.0000       0.567869        15.4525 
  22   0.0000       0.598583        16.2883 
  23   0.0000       0.603430        16.4202 
  24   0.0000       0.671322        18.2676 
  25   0.0000       0.779124        21.2010 
  26   0.0000       0.832860        22.6633 
  27   0.0000       0.861483        23.4421 
  28   0.0000       0.989640        26.9295 
  29   0.0000       1.013652        27.5829 
  30   0.0000       1.109885        30.2015 
  31   0.0000       1.383048        37.6347 
  32   0.0000       1.513400        41.1817 
  33   0.0000       1.553601        42.2756 
  34   0.0000       1.602734        43.6126 
  35   0.0000       1.612755        43.8853 
  36   0.0000       1.624178        44.1961 
  37   0.0000       1.660482        45.1840 
  38   0.0000       1.688196        45.9382 
  39   0.0000       1.773782        48.2671 
  40   0.0000       1.951931        53.1147 
  41   0.0000       2.030166        55.2436 
  42   0.0000       2.055182        55.9244 
  43   0.0000       2.094381        56.9910 
  44   0.0000       2.114902        57.5494 
  45   0.0000       2.268899        61.7399 
  46   0.0000       2.333842        63.5071 
  47   0.0000       2.345128        63.8142 
  48   0.0000       2.381236        64.7967 
  49   0.0000       2.429768        66.1173 
  50   0.0000       2.497413        67.9581 
  51   0.0000       2.596493        70.6542 
  52   0.0000       2.639835        71.8336 
  53   0.0000       2.707008        73.6614 
  54   0.0000       2.842398        77.3456 
  55   0.0000       2.871690        78.1427 
  56   0.0000       2.888475        78.5994 
  57   0.0000       2.993255        81.4506 
  58   0.0000       3.096072        84.2484 
  59   0.0000       3.173017        86.3422 
  60   0.0000       3.298993        89.7702 
  61   0.0000       3.408236        92.7428 
  62   0.0000       3.443479        93.7018 
  63   0.0000       3.488646        94.9309 
  64   0.0000       3.612737        98.3076 
  65   0.0000       3.645453        99.1978 
  66   0.0000       3.667303        99.7924 
  67   0.0000       4.005301       108.9898 
  68   0.0000       4.224168       114.9455 
  69   0.0000       4.273048       116.2756 
  70   0.0000       4.455393       121.2374 
  71   0.0000       4.564855       124.2160 
  72   0.0000       5.345643       145.4623 
  73   0.0000       5.424069       147.5964 
  74   0.0000       5.555154       151.1634 
  75   0.0000       5.826713       158.5529 
  76   0.0000       5.836297       158.8137 
  77   0.0000       5.984956       162.8589 
  78   0.0000       6.380507       173.6224 
  79   0.0000       6.530858       177.7137 
  80   0.0000       6.744154       183.5177 
  81   0.0000       6.804342       185.1556 
  82   0.0000       7.039560       191.5562 
  83   0.0000       7.216364       196.3672 
  84   0.0000      22.406876       609.7221 
  85   0.0000      43.664781      1188.1791 

                    ********************************
                    * MULLIKEN POPULATION ANALYSIS *
                    ********************************

-----------------------
MULLIKEN ATOMIC CHARGES
-----------------------
   0 C :   -0.150393
   1 O :   -0.478015
   2 H :    0.313082
   3 H :    0.098531
   4 H :    0.118261
   5 H :    0.098535
Sum of atomic charges:   -0.0000000

--------------------------------
MULLIKEN REDUCED ORBITAL CHARGES
--------------------------------
  0 C s       :     3.222934  s :     3.222934
      pz      :     1.047274  p :     2.825744
      px      :     0.701962
      py      :     1.076507
      dz2     :     0.011105  d :     0.094289
      dxz     :     0.032511
      dyz     :     0.002648
      dx2y2   :     0.012748
      dxy     :     0.035277
      f0      :     0.001357  f :     0.007427
      f+1     :     0.000956
      f-1     :     0.000175
      f+2     :     0.001466
      f-2     :     0.000123
      f+3     :     0.001363
      f-3     :     0.001987
  1 O s       :     3.792317  s :     3.792317
      pz      :     1.759911  p :     4.653468
      px      :     1.313462
      py      :     1.580095
      dz2     :     0.003133  d :     0.030542
      dxz     :     0.006481
      dyz     :     0.005810
      dx2y2   :     0.008904
      dxy     :     0.006213
      f0      :     0.000269  f :     0.001688
      f+1     :     0.000234
      f-1     :     0.000087
      f+2     :     0.000285
      f-2     :     0.000236
      f+3     :     0.000370
      f-3     :     0.000207
  2 H s       :     0.639207  s :     0.639207
      pz      :     0.017002  p :     0.047712
      px      :     0.012747
      py      :     0.017962
  3 H s       :     0.882102  s :     0.882102
      pz      :     0.012073  p :     0.019367
      px      :     0.003009
      py      :     0.004285
  4 H s       :     0.861524  s :     0.861524
      pz      :     0.006297  p :     0.020216
      px      :     0.004189
      py      :     0.009729
  5 H s       :     0.882099  s :     0.882099
      pz      :     0.004928  p :     0.019366
      px      :     0.004979
      py      :     0.009459


                     *******************************
                     * LOEWDIN POPULATION ANALYSIS *
                     *******************************

----------------------
LOEWDIN ATOMIC CHARGES
----------------------
   0 C :   -0.385243
   1 O :   -0.075907
   2 H :    0.165679
   3 H :    0.093373
   4 H :    0.108727
   5 H :    0.093371

-------------------------------
LOEWDIN REDUCED ORBITAL CHARGES
-------------------------------
  0 C s       :     2.862854  s :     2.862854
      pz      :     1.096651  p :     3.052189
      px      :     0.846084
      py      :     1.109454
      dz2     :     0.072403  d :     0.413127
      dxz     :     0.114123
      dyz     :     0.020710
      dx2y2   :     0.082205
      dxy     :     0.123686
      f0      :     0.007831  f :     0.057072
      f+1     :     0.007169
      f-1     :     0.000855
      f+2     :     0.012535
      f-2     :     0.004828
      f+3     :     0.011750
      f-3     :     0.012105
  1 O s       :     3.365718  s :     3.365718
      pz      :     1.699316  p :     4.633957
      px      :     1.380870
      py      :     1.553772
      dz2     :     0.006134  d :     0.071590
      dxz     :     0.017895
      dyz     :     0.008041
      dx2y2   :     0.019295
      dxy     :     0.020225
      f0      :     0.000484  f :     0.004642
      f+1     :     0.000623
      f-1     :     0.000071
      f+2     :     0.001045
      f-2     :     0.000563
      f+3     :     0.000892
      f-3     :     0.000965
  2 H s       :     0.675176  s :     0.675176
      pz      :     0.055731  p :     0.159145
      px      :     0.033988
      py      :     0.069426
  3 H s       :     0.846808  s :     0.846808
      pz      :     0.036180  p :     0.059820
      px      :     0.009713
      py      :     0.013926
  4 H s       :     0.831688  s :     0.831688
      pz      :     0.019214  p :     0.059585
      px      :     0.011595
      py      :     0.028776
  5 H s       :     0.846809  s :     0.846809
      pz      :     0.015602  p :     0.059819
      px      :     0.015203
      py      :     0.029015


                      *****************************
                      * MAYER POPULATION ANALYSIS *
                      *****************************

  NA   - Mulliken gross atomic population
  ZA   - Total nuclear charge
  QA   - Mulliken gross atomic charge
  VA   - Mayer's total valence
  BVA  - Mayer's bonded valence
  FA   - Mayer's free valence

  ATOM       NA         ZA         QA         VA         BVA        FA
  0 C      6.1504     6.0000    -0.1504     3.9350     3.9350    -0.0000
  1 O      8.4780     8.0000    -0.4780     1.8878     1.8878     0.0000
  2 H      0.6869     1.0000     0.3131     0.9136     0.9136    -0.0000
  3 H      0.9015     1.0000     0.0985     0.9596     0.9596    -0.0000
  4 H      0.8817     1.0000     0.1183     0.9597     0.9597    -0.0000
  5 H      0.9015     1.0000     0.0985     0.9596     0.9596    -0.0000

  Mayer bond orders larger than 0.1
B(  0-C ,  1-O ) :   0.9986 B(  0-C ,  3-H ) :   0.9756 B(  0-C ,  4-H ) :   0.9749 
B(  0-C ,  5-H ) :   0.9755 B(  1-O ,  2-H ) :   0.9000 

-------
TIMINGS
-------

Total SCF time: 0 days 0 hours 0 min 4 sec 

Total time                  ....       4.412 sec
Sum of individual times     ....       4.110 sec  ( 93.1%)

Fock matrix formation       ....       2.645 sec  ( 59.9%)
  XC integration            ....       0.798 sec  ( 30.2% of F)
    Basis function eval.    ....       0.185 sec  ( 23.2% of XC)
    Density eval.           ....       0.113 sec  ( 14.1% of XC)
    XC-Functional eval.     ....       0.291 sec  ( 36.5% of XC)
    XC-Potential eval.      ....       0.117 sec  ( 14.7% of XC)
Diagonalization             ....       0.004 sec  (  0.1%)
Density matrix formation    ....       0.002 sec  (  0.0%)
Population analysis         ....       0.011 sec  (  0.3%)
Initial guess               ....       0.003 sec  (  0.1%)
Orbital Transformation      ....       0.000 sec  (  0.0%)
Orbital Orthonormalization  ....       0.001 sec  (  0.0%)
DIIS solution               ....       0.000 sec  (  0.0%)
SOSCF solution              ....       0.011 sec  (  0.2%)
Grid generation             ....       1.433 sec  ( 32.5%)


-------------------------------------------------------------------------------
                          DFT DISPERSION CORRECTION                            
                                                                               
                              DFTD3 V3.1  Rev 1                                
                              USING zero damping                               
-------------------------------------------------------------------------------
The omegaB97X-D3 functional is recognized. Fit by Chai et al.
Active option DFTDOPT                   ...         3   

molecular C6(AA) [au] = 208.716619 


            DFT-D V3
 parameters
 s6 scaling factor         :     1.0000 
 rs6 scaling factor        :     1.2810 
 s8 scaling factor         :     1.0000 
 rs8 scaling factor        :     1.0940 
 Damping factor alpha6     :    14.0000 
 Damping factor alpha8     :    16.0000 
 ad hoc parameters k1-k3   :    16.0000     1.3333    -4.0000 

 Edisp/kcal,au: -0.150391162560  -0.000239663547 
 E6   /kcal   :  -0.029698961 
 E8   /kcal   :  -0.120692202 
 % E8         :  80.252190000 

-------------------------   ----------------
Dispersion correction           -0.000239664
-------------------------   ----------------


-------------------------   --------------------
FINAL SINGLE POINT ENERGY      -115.738050206558
-------------------------   --------------------

                                *** OPTIMIZATION RUN DONE ***

                            ***************************************
                            *     ORCA property calculations      *
                            ***************************************

                                    ---------------------
                                    Active property flags
                                    ---------------------
   (+) Dipole Moment


------------------------------------------------------------------------------
                       ORCA ELECTRIC PROPERTIES CALCULATION
------------------------------------------------------------------------------

Dipole Moment Calculation                       ... on
Quadrupole Moment Calculation                   ... off
Polarizability Calculation                      ... off
GBWName                                         ... 3_geo_opt.gbw
Electron density file                           ... 3_geo_opt.scfp.tmp
The origin for moment calculation is the CENTER OF MASS  = ( 7.033038, -2.140477  1.369507)

-------------
DIPOLE MOMENT
-------------
                                X             Y             Z
Electronic contribution:      1.75548      -0.02742       0.41905
Nuclear contribution   :     -2.06360       0.47488      -0.81618
                        -----------------------------------------
Total Dipole Moment    :     -0.30812       0.44747      -0.39712
                        -----------------------------------------
Magnitude (a.u.)       :      0.67296
Magnitude (Debye)      :      1.71052



--------------------
Rotational spectrum 
--------------------
 
Rotational constants in cm-1:     4.295438     0.833848     0.804969 
Rotational constants in MHz : 128773.990709 24998.130944 24132.369935 

 Dipole components along the rotational axes: 
x,y,z [a.u.] :    -0.330866     0.586001    -0.000007 
x,y,z [Debye]:    -0.840995     1.489497    -0.000018 

 
------------------------------------------------------------------------------
                      ORCA CHELPG CHARGES GENERATION
------------------------------------------------------------------------------

GBW file                           ... 3_geo_opt.gbw

Reading the GBW file               ... done

Grid spacing                       ...     0.300000
Point Cut-Off                      ...     2.800000
Van-der-Waals Radii                ...        COSMO
Total charge                       ...            0


Number of points X direction       ...           26
Number of points Y direction       ...           24
Number of points Z direction       ...           24
Maximum number of possible points  ...        14976
Final number of points             ...         5948


CHELPG Charges            
--------------------------------
  0   C   :       0.094236
  1   O   :      -0.607603
  2   H   :       0.404249
  3   H   :       0.014302
  4   H   :       0.080975
  5   H   :       0.013842
--------------------------------
Total charge:    -0.000000
--------------------------------

CHELPG charges calculated...

Timings for individual parts in CHELPG calculation:
Grid generation                 ...        0.001 sec (=   0.000 min)
Potential calculation           ...        0.712 sec (=   0.012 min)
Fit to the potential            ...        0.001 sec (=   0.000 min)
------------------------------------------------------------------------------


Timings for individual modules:

Sum of individual times         ...       39.290 sec (=   0.655 min)
GTO integral calculation        ...        7.666 sec (=   0.128 min)  19.5 %
SCF iterations                  ...       22.705 sec (=   0.378 min)  57.8 %
SCF Gradient evaluation         ...        5.054 sec (=   0.084 min)  12.9 %
Geometry relaxation             ...        3.114 sec (=   0.052 min)   7.9 %
CHELPG charge generation        ...        0.751 sec (=   0.013 min)   1.9 %
                             ****ORCA TERMINATED NORMALLY****
TOTAL RUN TIME: 0 days 0 hours 0 minutes 40 seconds 510 msec
