LAMMPS data file via vdw_self_gen.py, on 2021-08-05 13:21:56.778955

3500 atoms
6 atom types
3000 bonds
5 bond types
3500 angles
6 angle types
3000 dihedrals
4 dihedral types

-34.0344673551720120  34.0344673551720120 xlo xhi
-34.0344673551720120  34.0344673551720120 ylo yhi
-34.0344673551720120  34.0344673551720120 zlo zhi

Masses

1  1.007940
2  1.007940
3  12.011000
4  12.011000
5  12.011000
6  14.006740

Atoms

1         0    4   -0.2342220000000000   26.6979140306804581  3.8895189931198106  -2.7692069894825759  0 0 0
2         0    3    0.0646130000000000   26.7676628932761034  4.0117722424365514  -4.1008191724015042  0 0 0
3         0    5    0.1606230000000000   25.8442351901862466  3.3953695836376028  -4.9634669185249045  0 0 0
4         0    6   -0.3612230000000000   25.0882872940631856  2.8907512532756501  -5.6696711615097728  0 0 0
5         0    1    0.1129350000000000   27.4252965804624118  4.3771077711824091  -2.1274394948397526  0 0 0
6         0    1    0.1129350000000000   25.9189548123766613  3.3040068685110051  -2.2875997265020231  0 0 0
7         0    2    0.1443390000000000   27.5564159104470079  4.6027256751929784  -4.5530489240954743  0 0 0
8         1    4   -0.2342220000000000  -27.2953127606638795 -18.6763424787046972  19.5040383516053630 0 0 0
9         1    3    0.0646130000000000  -26.3408064172003549 -18.5736298933741573  18.5705665889887257 0 0 0
10        1    5    0.1606230000000000  -25.3817993621127052 -19.5799261687010002  18.3596036323933838 0 0 0
11        1    6   -0.3612230000000000  -24.5967082081032018 -20.4037147317167715  18.1869027431645414 0 0 0
12        1    1    0.1129350000000000  -28.0229772083464397 -17.8829622520907314  19.6445587237825237 0 0 0
13        1    1    0.1129350000000000  -27.3754407240854540 -19.5483274231687183  20.1480641536552412 0 0 0
14        1    2    0.1443390000000000  -26.2857220309800397 -17.6913589890239820  17.9425277431902757 0 0 0
15        2    4   -0.2342220000000000  -26.2446474479974512  11.9104109934355868  19.7546394266428891 0 0 0
16        2    3    0.0646130000000000  -26.9334187459838290  11.3732318270840231  18.7397333182722683 0 0 0
17        2    5    0.1606230000000000  -26.3508727374187650  10.4808910426447710  17.8225636682994484 0 0 0
18        2    6   -0.3612230000000000  -25.8739789626438466  9.7503907822217855   17.0717221331518019 0 0 0
19        2    1    0.1129350000000000  -26.7209418785732957  12.5969699475380299  20.4478018357103402 0 0 0
20        2    1    0.1129350000000000  -25.1950037918892704  11.6811118680802721  19.9196169217843178 0 0 0
21        2    2    0.1443390000000000  -27.9799031469856132  11.6207507010635744  18.6001846329189995 0 0 0
22        3    4   -0.2342220000000000  -10.9840060479584327  26.4309368318842886  4.7594425079526710  0 0 0
23        3    3    0.0646130000000000  -11.6432231839900844  26.8473071138174646  3.6708331554367586  0 0 0
24        3    5    0.1606230000000000  -11.5841430866372441  26.1603668897694206  2.4454945225757778  0 0 0
25        3    6   -0.3612230000000000  -11.5357736250000222  25.5980182921913055  1.4423765017114101  0 0 0
26        3    1    0.1129350000000000  -11.0482376735972121  26.9818865436507593  5.6927283273950549  0 0 0
27        3    1    0.1129350000000000  -10.3672870603228748  25.5359039611269836  4.7484280559140126  0 0 0
28        3    2    0.1443390000000000  -12.2510864845621654  27.7443470790518418  3.7119493163703279  0 0 0
29        4    4   -0.2342220000000000  -11.4077479212734438 -3.2045483704770437  -12.2114355836208244 0 0 0
30        4    3    0.0646130000000000  -11.0996751154726496 -3.5853342983439287  -10.9652032658066130 0 0 0
31        4    5    0.1606230000000000  -11.4933227584222593 -4.8278623886430090  -10.4379485147441375 0 0 0
32        4    6   -0.3612230000000000  -11.8155845653673595 -5.8450422276272613  -10.0063076724360407 0 0 0
33        4    1    0.1129350000000000  -11.0901478033533412 -2.2386343913733304  -12.5920062833195363 0 0 0
34        4    1    0.1129350000000000  -11.9808002689264068 -3.8417553053734093  -12.8801102403631056 0 0 0
35        4    2    0.1443390000000000  -10.5264787292525650 -2.9280754055180260  -10.3207456017777819 0 0 0
36        5    4   -0.2342220000000000  -11.1589081763141991 -17.9679681287376134  26.0593291345808282 0 0 0
37        5    3    0.0646130000000000  -11.6209743103493572 -19.2163869874237427  26.2040599452419691 0 0 0
38        5    5    0.1606230000000000  -11.3475557912928480 -19.9936909872986917  27.3433021932802696 0 0 0
39        5    6   -0.3612230000000000  -11.1237192391950739 -20.6300320813347717  28.2759267285493898 0 0 0
40        5    1    0.1129350000000000  -11.3862099426572900 -17.3910028230488365  25.1681845613219402 0 0 0
41        5    1    0.1129350000000000  -10.5460889288314448 -17.4919793762482918  26.8205352466282356 0 0 0
42        5    2    0.1443390000000000  -12.2303007734278264 -19.6652015526880994  25.4274289018894386 0 0 0
43        6    4   -0.2342220000000000   12.2498777164437094  18.9560932864891498 -25.9549765338216112 0 0 0
44        6    3    0.0646130000000000   11.2401868221026078  18.4822294259631974 -26.6959077762942947 0 0 0
45        6    5    0.1606230000000000   10.1102312201277158  19.2564964696044534 -27.0129929023986186 0 0 0
46        6    6   -0.3612230000000000   9.1851960819115810   19.8903360412300252 -27.2725669849010224 0 0 0
47        6    1    0.1129350000000000   13.1103579483721511  18.3349801717511873 -25.7258783527706001 0 0 0
48        6    1    0.1129350000000000   12.2447590181831547  19.9688592477437616 -25.5602280388882690 0 0 0
49        6    2    0.1443390000000000   11.2731483549271392  17.4672672939982867 -27.0762161224176587 0 0 0
50        7    4   -0.2342220000000000   3.8959139876219799   10.3086287084641377 -18.8732278644502642 0 0 0
51        7    3    0.0646130000000000   3.3624369631397202   11.5151047243999383 -19.1030531324719561 0 0 0
52        7    5    0.1606230000000000   4.0256092960649772   12.7085663901591097 -18.7673690492838787 0 0 0
53        7    6   -0.3612230000000000   4.5685011342524939   13.6855865507480736 -18.4925575290885078 0 0 0
54        7    1    0.1129350000000000   3.3604731069150899   9.4035730758302680  -19.1431742897007879 0 0 0
55        7    1    0.1129350000000000   4.8738415543397977   10.1927885594927989 -18.4130255157604026 0 0 0
56        7    2    0.1443390000000000   2.3844763450219535   11.5995091529737078 -19.5638545560242676 0 0 0
57        8    4   -0.2342220000000000  -19.5829998210768359  11.3863219067443762  10.5506696281236554 0 0 0
58        8    3    0.0646130000000000  -18.4315907945651780  11.2979419970784285  11.2284955731382485 0 0 0
59        8    5    0.1606230000000000  -18.3798126599283300  11.3296673903112275  12.6331822352439858 0 0 0
60        8    6   -0.3612230000000000  -18.3374182850251124  11.3556481066021373  13.7831165956131230 0 0 0
61        8    1    0.1129350000000000  -19.5925690085679065  11.3590051180663245  9.4653789154078964  0 0 0
62        8    1    0.1129350000000000  -20.5395777648365545  11.4875348744659806  11.0568929388052268 0 0 0
63        8    2    0.1443390000000000  -17.4922936027801477  11.1976377687995612  10.6960212757359017 0 0 0
64        9    4   -0.2342220000000000  -4.0083994673063597  -3.0899052583086855   12.0918757181347427 0 0 0
65        9    3    0.0646130000000000  -3.7018167345876325  -3.6017801483034453   10.8931293348277567 0 0 0
66        9    5    0.1606230000000000  -3.5250170686508904  -4.9811026593766226   10.6856603417915768 0 0 0
67        9    6   -0.3612230000000000  -3.3802710964464660  -6.1102714427222278   10.5158140111029201 0 0 0
68        9    1    0.1129350000000000  -4.1390232821668977  -2.0200583626188315   12.2224848532442909 0 0 0
69        9    1    0.1129350000000000  -4.1362473508060127  -3.7200682444713822   12.9682871495727241 0 0 0
70        9    2    0.1443390000000000  -3.5804773873917592  -2.9480662715548061   10.0365057533940387 0 0 0
71        10   4   -0.2342220000000000  -19.0949055766565046 -4.5475729048610001  -4.4645074921434214  0 0 0
72        10   3    0.0646130000000000  -18.7916435113731239 -3.9174910341972766  -3.3225658462958898  0 0 0
73        10   5    0.1606230000000000  -18.7465141291602890 -2.5156425468871682  -3.2245033560794267  0 0 0
74        10   6   -0.3612230000000000  -18.7095586386634380 -1.3680317552826935  -3.1442221221882694  0 0 0
75        10   1    0.1129350000000000  -19.1221710643467304 -5.6319238663255975  -4.5106950765338043  0 0 0
76        10   1    0.1129350000000000  -19.3223393282584261 -4.0022220500855177  -5.3768746339388311  0 0 0
77        10   2    0.1443390000000000  -18.5691296883215564 -4.4883682297167606  -2.4278838601763684  0 0 0
78        11   4   -0.2342220000000000   19.8118644475088956 -3.3205211333800171   4.0234157475332744  0 0 0
79        11   3    0.0646130000000000   18.4996029841311262 -3.5119472000481995   3.8381384439216659  0 0 0
80        11   5    0.1606230000000000   17.9745472994812125 -4.7287513441921281   3.3685255210682001  0 0 0
81        11   6   -0.3612230000000000   17.5447103841344791 -5.7248723967666173   2.9840721576766205  0 0 0
82        11   1    0.1129350000000000   20.1889218843919309 -2.3697006229115054   4.3873687026848929  0 0 0
83        11   1    0.1129350000000000   20.5394204782251499 -4.1016558783381507   3.8183835549692731  0 0 0
84        11   2    0.1443390000000000   17.7971944589072706 -2.7138038117193863   4.0513482595020900  0 0 0
85        12   4   -0.2342220000000000  -3.5487642699257860  -27.4840991258825937  18.8191516645156334 0 0 0
86        12   3    0.0646130000000000  -3.9961738869969752  -26.3292344927273021  19.3281841587036922 0 0 0
87        12   5    0.1606230000000000  -3.9143730826295515  -25.1141713106311215  18.6255020211627240 0 0 0
88        12   6   -0.3612230000000000  -3.8474014448506808  -24.1194657701369621  18.0502655469684683 0 0 0
89        12   1    0.1129350000000000  -3.6251239607702788  -28.4075213836463121  19.3849734022393534 0 0 0
90        12   1    0.1129350000000000  -3.0977434216882558  -27.5384440892533497  17.8316425318938983 0 0 0
91        12   2    0.1443390000000000  -4.4416723204944839  -26.3058305392144405  20.3165426112962848 0 0 0
92        13   4   -0.2342220000000000   27.5040785622323511 -26.3266853824756026 -11.3262313496057025 0 0 0
93        13   3    0.0646130000000000   26.3089576419502791 -26.9242639811070958 -11.2391246859009826 0 0 0
94        13   5    0.1606230000000000   25.1046170199720500 -26.2386391931241221 -11.4764312615713546 0 0 0
95        13   6   -0.3612230000000000   24.1186903260093004 -25.6773608002307334 -11.6706899386045659 0 0 0
96        13   1    0.1129350000000000   28.4179884008726305 -26.8815005718810163 -11.1374388183934414 0 0 0
97        13   1    0.1129350000000000   27.6016215464392261 -25.2757829531604372 -11.5863023358604167 0 0 0
98        13   2    0.1443390000000000   26.2428132140162447 -27.9745338295130637 -10.9775387721315774 0 0 0
99        14   4   -0.2342220000000000   27.0233328477005728  18.8550143411078075 -27.3546384150625101 0 0 0
100       14   3    0.0646130000000000   26.0067290133943949  19.0676858821084920 -26.5094820826467910 0 0 0
101       14   5    0.1606230000000000   26.1129019849774018  18.8291308510196380 -25.1279427629937331 0 0 0
102       14   6   -0.3612230000000000   26.1998111133796989  18.6338325166649561 -23.9969579364825059 0 0 0
103       14   1    0.1129350000000000   26.9124494110504138  19.0481870144472687 -28.4172215361177685 0 0 0
104       14   1    0.1129350000000000   27.9861085927646762  18.4852452545916712 -27.0113001635185199 0 0 0
105       14   2    0.1443390000000000   25.0574337482249199  19.4371660768402315 -26.8812238146702498 0 0 0
106       15   4   -0.2342220000000000   25.8975862414060103  4.4869948099659966   11.8560083559852476 0 0 0
107       15   3    0.0646130000000000   26.2946931700060524  3.6232831444750753   10.9129760062470442 0 0 0
108       15   5    0.1606230000000000   27.4930685290565293  2.8950138833039096   11.0147231268640073 0 0 0
109       15   6   -0.3612230000000000   28.4741119063189778  2.2988269630731146   11.0980079506628435 0 0 0
110       15   1    0.1129350000000000   24.9667992120458351  5.0358265734948464   11.7505905741992809 0 0 0
111       15   1    0.1129350000000000   26.4863116531047069  4.6680759532789047   12.7516419176368263 0 0 0
112       15   2    0.1443390000000000   25.6861959995539522  3.4632310597641598   10.0298092304728037 0 0 0
113       16   4   -0.2342220000000000   18.0219050605116209 -10.7947951922432122 -18.8933877916064894 0 0 0
114       16   3    0.0646130000000000   18.9449478076539251 -11.7142316874117718 -18.5841461631019129 0 0 0
115       16   5    0.1606230000000000   20.1813826657650921 -11.7938389610326553 -19.2487690773429598 0 0 0
116       16   6   -0.3612230000000000   21.1935772321850315 -11.8590192820680560 -19.7928600617009671 0 0 0
117       16   1    0.1129350000000000   17.0754300522818738 -10.7570920394523366 -18.3628623553961852 0 0 0
118       16   1    0.1129350000000000   18.1848937930516534 -10.0607148202897214 -19.6783133601654576 0 0 0
119       16   2    0.1443390000000000   18.7541253253308611 -12.4340651795702684 -17.7959231274660858 0 0 0
120       17   4   -0.2342220000000000  -18.8891544472459039  19.3311481911516836 -4.7348104338568930  0 0 0
121       17   3    0.0646130000000000  -19.2326046289485291  18.5450332572799326 -3.7066727728735662  0 0 0
122       17   5    0.1606230000000000  -18.6162011791301190  18.6402940391278626 -2.4465917179434973  0 0 0
123       17   6   -0.3612230000000000  -18.1115845475248491  18.7182677670941295 -1.4150378091949598  0 0 0
124       17   1    0.1129350000000000  -19.3827201645854039  19.2350670677075399 -5.6970240316535889  0 0 0
125       17   1    0.1129350000000000  -18.1121341243697707  20.0858763418453030 -4.6444096374662633  0 0 0
126       17   2    0.1443390000000000  -20.0118628449754858  17.8005752725736173 -3.8267059843672397  0 0 0
127       18   4   -0.2342220000000000   4.2747832978698055  -19.7383098957308221 -18.5138288614253419 0 0 0
128       18   3    0.0646130000000000   3.8118576910010908  -18.8431037525016123 -19.3954793648165307 0 0 0
129       18   5    0.1606230000000000   3.0228936578730008  -17.7448599289834128 -19.0104750102510565 0 0 0
130       18   6   -0.3612230000000000   2.3770067359649065  -16.8457954947372777 -18.6953011836382501 0 0 0
131       18   1    0.1129350000000000   4.8821350848369658  -20.5769654136458513 -18.8401330700075746 0 0 0
132       18   1    0.1129350000000000   4.0616283010956113  -19.6587568601342042 -17.4509160101164724 0 0 0
133       18   2    0.1443390000000000   4.0409476187146360  -18.9484705910468776 -20.4501284365248246 0 0 0
134       19   4   -0.2342220000000000   10.9292861750591950  2.9671716651669406  -19.4100324946302756 0 0 0
135       19   3    0.0646130000000000   11.0708422560847382  4.1903693901502779  -18.8839612370802179 0 0 0
136       19   5    0.1606230000000000   12.2288991632916435  4.5826552366051274  -18.1898084377330029 0 0 0
137       19   6   -0.3612230000000000   13.1769264420455006  4.9037988813396005  -17.6215370659525732 0 0 0
138       19   1    0.1129350000000000   10.0232737771299636  2.6920204382558097  -19.9411888223981251 0 0 0
139       19   1    0.1129350000000000   11.7078820455135979  2.2134072583695676  -19.3253261952379098 0 0 0
140       19   2    0.1443390000000000   10.2766473029434096  4.9218295174686784  -18.9844076837479641 0 0 0
141       20   4   -0.2342220000000000   19.1969009633183525  4.7132631305494126  -10.9752946927602846 0 0 0
142       20   3    0.0646130000000000   18.9732546087027387  3.3949645312062704  -11.0465188286769678 0 0 0
143       20   5    0.1606230000000000   18.4168502966739887  2.7855185487161820  -12.1848605745874394 0 0 0
144       20   6   -0.3612230000000000   17.9613461646874271  2.2865969006834441  -13.1167481690254490 0 0 0
145       20   1    0.1129350000000000   19.6280055972307146  5.1564593283889604  -10.0828712326025745 0 0 0
146       20   1    0.1129350000000000   18.9575504758042257  5.3803770754402045  -11.7994414007310144 0 0 0
147       20   2    0.1443390000000000   19.2223538303626214  2.7540728723715384  -10.2080222636843061 0 0 0
148       21   4   -0.2342220000000000  -3.0850741429925450   25.8310157918422512  11.7840417161533608 0 0 0
149       21   3    0.0646130000000000  -3.6955681843522319   26.9545561728918344  11.3866051751618524 0 0 0
150       21   5    0.1606230000000000  -4.8958490704298399   26.9413973045295911  10.6544953929569051 0 0 0
151       21   6   -0.3612230000000000  -5.8784438300965673   26.9306305220539066  10.0551516447867915 0 0 0
152       21   1    0.1129350000000000  -2.1585591869657761   25.8717123553086736  12.3484950210252009 0 0 0
153       21   1    0.1129350000000000  -3.4905276743521920   24.8480336943773814  11.5584290002627128 0 0 0
154       21   2    0.1443390000000000  -3.2672302981668562   27.9214208704884292  11.6265392117212318 0 0 0
155       22   4   -0.2342220000000000  -11.5642993144043480  2.7624437683194563   11.3115000408942876 0 0 0
156       22   3    0.0646130000000000  -11.1426957146072105  3.9780921836993142   10.9407560573658209 0 0 0
157       22   5    0.1606230000000000  -11.2195573866964526  5.0943669841447470   11.7921401937896526 0 0 0
158       22   6   -0.3612230000000000  -11.2824859043760988  6.0082011724483033   12.4891110624421486 0 0 0
159       22   1    0.1129350000000000  -11.4925173398917408  1.9182778160609231   10.6325855392208304 0 0 0
160       22   1    0.1129350000000000  -11.9891343963384376  2.5786001545860104   12.2949959211334878 0 0 0
161       22   2    0.1443390000000000  -10.7230671057537350  4.1312703080972453   9.9526683472218185  0 0 0
162       23   4   -0.2342220000000000   3.9001693926102949   17.8899467522191209 -11.5382381243225165 0 0 0
163       23   3    0.0646130000000000   4.0229166670761582   19.0891889345182477 -10.9553547214831095 0 0 0
164       23   5    0.1606230000000000   3.3686444708838792   20.2343164564205367 -11.4426358994200967 0 0 0
165       23   6   -0.3612230000000000   2.8330399730872289   21.1717704669528324 -11.8415458063876997 0 0 0
166       23   1    0.1129350000000000   4.4175186308602896   17.0226691018355716 -11.1396494262547670 0 0 0
167       23   1    0.1129350000000000   3.2847731972857641   17.7427594243168087 -12.4220768431423405 0 0 0
168       23   2    0.1443390000000000   4.6441900555523858   19.2056108005169364 -10.0742563410574952 0 0 0
169       24   4   -0.2342220000000000   26.2264996468860900 -25.8915132521582443  18.0761878017361859 0 0 0
170       24   3    0.0646130000000000   26.3892890896775363 -26.9557526467809723  18.8723635830487773 0 0 0
171       24   5    0.1606230000000000   26.9137410204908818 -26.8508027180056388  20.1726588492157397 0 0 0
172       24   6   -0.3612230000000000   27.3430874394448402 -26.7648933205326607  21.2371317430731779 0 0 0
173       24   1    0.1129350000000000   25.8188543329091083 -26.0027235298464063  17.0761121648320895 0 0 0
174       24   1    0.1129350000000000   26.4936749386263912 -24.8884457725382404  18.3987098357311609 0 0 0
175       24   2    0.1443390000000000   26.1136202434572091 -27.9446354716299048  18.5230979591429303 0 0 0
176       25   4   -0.2342220000000000  -10.3403795523587192  26.6869915560162632  11.5251727456195141 0 0 0
177       25   3    0.0646130000000000  -11.6728095225201773  26.8124581475610739  11.4816954466960599 0 0 0
178       25   5    0.1606230000000000  -12.5062758138182950  25.8162490614695379  10.9434264688063490 0 0 0
179       25   6   -0.3612230000000000  -13.1885898986743175  25.0007183030138336  10.5027697028084397 0 0 0
180       25   1    0.1129350000000000  -9.7215612351576102   27.4730615264817892  11.9468972993613143 0 0 0
181       25   1    0.1129350000000000  -9.8353554916116881   25.8031559833283310  11.1439472924845351 0 0 0
182       25   2    0.1443390000000000  -12.1487856479272267  27.7061321336212387  11.8698482062918469 0 0 0
183       26   4   -0.2342220000000000   11.5978860473477390 -3.6535454543853376   25.4674924117381956 0 0 0
184       26   3    0.0646130000000000   11.6066140028887048 -3.5248438620120908   26.8002945311140159 0 0 0
185       26   5    0.1606230000000000   10.7128917116756170 -4.2238365435331202   27.6306569771993829 0 0 0
186       26   6   -0.3612230000000000   9.9812496761795018  -4.7960512612000246   28.3104301471468816 0 0 0
187       26   1    0.1129350000000000   12.3002856837619259 -3.1009001329052670   24.8511227119545239 0 0 0
188       26   1    0.1129350000000000   10.8948638240460873 -4.3088968359672863   24.9597308655350290 0 0 0
189       26   2    0.1443390000000000   12.3199662161684795 -2.8631782973528894   27.2790390668040459 0 0 0
190       27   4   -0.2342220000000000  -26.5525995648113735  11.6201304450296341 -17.9052596270905404 0 0 0
191       27   3    0.0646130000000000  -26.8230104947158559  11.0492748202689235 -19.0859389024093140 0 0 0
192       27   5    0.1606230000000000  -26.0044848486143572  11.2290727470248477 -20.2148855648820813 0 0 0
193       27   6   -0.3612230000000000  -25.3344144662869439  11.3762670542461279 -21.1390937840887858 0 0 0
194       27   1    0.1129350000000000  -27.2029868436103648  11.4634431893505351 -17.0501928467252881 0 0 0
195       27   1    0.1129350000000000  -25.6815409835353954  12.2542856224939918 -17.7615528893200896 0 0 0
196       27   2    0.1443390000000000  -27.6997295099177734  10.4212832836539704 -19.1993383222639551 0 0 0
197       28   4   -0.2342220000000000   18.8908529421532272  19.7674506646794690 -11.9356597586906155 0 0 0
198       28   3    0.0646130000000000   19.1133198704903577  18.5066223167937345 -11.5434581403053986 0 0 0
199       28   5    0.1606230000000000   18.7311994058688001  18.0332753419907625 -10.2758782862282345 0 0 0
200       28   6   -0.3612230000000000   18.4183903791445154  17.6457712357018828 -9.2381825725389799  0 0 0
201       28   1    0.1129350000000000   19.1970776197615614  20.1052717413186954 -12.9209501089945196 0 0 0
202       28   1    0.1129350000000000   18.4009000617068459  20.4907159583978000 -11.2888360134208341 0 0 0
203       28   2    0.1443390000000000   19.6045216576547361  17.8071546778977066 -12.2107922818894572 0 0 0
204       29   4   -0.2342220000000000   19.6369860577264923  10.7794065278715525 -10.8580844611912131 0 0 0
205       29   3    0.0646130000000000   18.6145834466633069  11.6200789272918712 -11.0604815566349828 0 0 0
206       29   5    0.1606230000000000   18.1197433836583564  11.9093376382173570 -12.3443408965546606 0 0 0
207       29   6   -0.3612230000000000   17.7146489682143695  12.1461476804134101 -13.3953598460941947 0 0 0
208       29   1    0.1129350000000000   19.9981343959253337  10.5748600179629229 -9.8548764516037597  0 0 0
209       29   1    0.1129350000000000   20.1371041310223546  10.2766625952351625 -11.6819035666750146 0 0 0
210       29   2    0.1443390000000000   18.1350615535698374  12.1072637750757561 -10.2187103833142032 0 0 0
211       30   4   -0.2342220000000000   18.0302682358702953  3.6361729175714554  -4.3259834593165980  0 0 0
212       30   3    0.0646130000000000   18.9982122375263920  4.2398877245267572  -3.6248311163689948  0 0 0
213       30   5    0.1606230000000000   20.1165486955732575  3.5450859835997672  -3.1314689756366292  0 0 0
214       30   6   -0.3612230000000000   21.0320626496058587  2.9762955050191962  -2.7275718287691761  0 0 0
215       30   1    0.1129350000000000   17.1777919341587442  4.1983636936291386  -4.6946559341989271  0 0 0
216       30   1    0.1129350000000000   18.0624818192988634  2.5728171033237310  -4.5491071132581942  0 0 0
217       30   2    0.1443390000000000   18.9388963647466468  5.3026294596859644  -3.4176339598075005  0 0 0
218       31   4   -0.2342220000000000   11.5197202953319362  10.5369863754515531 -11.9810510063030797 0 0 0
219       31   3    0.0646130000000000   11.4167321543599165  11.7945344748860297 -11.5327564748531941 0 0 0
220       31   5    0.1606230000000000   11.0154839612313040  12.0957726920755153 -10.2193306038899596 0 0 0
221       31   6   -0.3612230000000000   10.6869969234869941  12.3423847282637826 -9.1441096575533294  0 0 0
222       31   1    0.1129350000000000   11.8321853385160249  10.3342945561967134 -13.0008428137790641 0 0 0
223       31   1    0.1129350000000000   11.2966422737891072  9.6826348795078747  -11.3471210533245692 0 0 0
224       31   2    0.1443390000000000   11.6459962153527758  12.6271494556865704 -12.1885455523648378 0 0 0
225       32   4   -0.2342220000000000   19.5325512160134735 -25.6827019183811345  26.1953070460625597 0 0 0
226       32   3    0.0646130000000000   19.0437448031308669 -26.9223545398270048  26.3269559555423811 0 0 0
227       32   5    0.1606230000000000   17.8513104253880570 -27.1923286924615795  27.0212515022559998 0 0 0
228       32   6   -0.3612230000000000   16.8751397305697992 -27.4133474874803937  27.5896376215679204 0 0 0
229       32   1    0.1129350000000000   20.4561894970506586 -25.5040891819652096  25.6533812913759114 0 0 0
230       32   1    0.1129350000000000   19.0278484396943774 -24.8195161840407970  26.6216085393828763 0 0 0
231       32   2    0.1443390000000000   19.5694778249328252 -27.7644287073359450  25.8906247553044118 0 0 0
232       33   4   -0.2342220000000000  -4.0978053148645168   19.0758340889643527  17.9283240099572616 0 0 0
233       33   3    0.0646130000000000  -3.5206622732765736   18.4981669427578552  18.9895536478020901 0 0 0
234       33   5    0.1606230000000000  -3.5713388976287668   19.0638158454414146  20.2757516469986179 0 0 0
235       33   6   -0.3612230000000000  -3.6128137049955868   19.5268798691078231  21.3286870031054185 0 0 0
236       33   1    0.1129350000000000  -4.0423991899108938   18.6158162493312211  16.9464851963341232 0 0 0
237       33   1    0.1129350000000000  -4.6369141100232270   20.0161388196629133  18.0103982934353368 0 0 0
238       33   2    0.1443390000000000  -2.9893188966564526   17.5596101215144742  18.8770621391472027 0 0 0
239       34   4   -0.2342220000000000  -2.9137246474356875  -3.8961883515842959   18.3409168305934607 0 0 0
240       34   3    0.0646130000000000  -4.0748000183191397  -3.4035008877322386   18.7905442458951626 0 0 0
241       34   5    0.1606230000000000  -4.7755007800442932  -3.9847465819948704   19.8619937220343523 0 0 0
242       34   6   -0.3612230000000000  -5.3491323807539155  -4.4605799817272356   20.7391200961483975 0 0 0
243       34   1    0.1129350000000000  -2.3945829140361337  -3.4262126106718682   17.5112733101603055 0 0 0
244       34   1    0.1129350000000000  -2.4537477593542949  -4.7750565854199252   18.7853933289436092 0 0 0
245       34   2    0.1443390000000000  -4.5097638874125305  -2.5249673882255688   18.3270204030047736 0 0 0
246       35   4   -0.2342220000000000   27.3265261925702170 -19.4977841448418125  18.8148672869976039 0 0 0
247       35   3    0.0646130000000000   26.0521289427025771 -19.1415972438404829  19.0199143732604128 0 0 0
248       35   5    0.1606230000000000   25.6200540336535418 -17.8062988745695705  18.9355246079288264 0 0 0
249       35   6   -0.3612230000000000   25.2663360051221701 -16.7131686896137772  18.8664502361952842 0 0 0
250       35   1    0.1129350000000000   27.6315551134542794 -20.5372504823826603  18.8867059809147015 0 0 0
251       35   1    0.1129350000000000   28.0936549447082200 -18.7670853842017600  18.5716795684707634 0 0 0
252       35   2    0.1443390000000000   25.3085114792810693 -19.8930771173300016  19.2611198830124550 0 0 0
253       36   4   -0.2342220000000000   3.0994575023917972  -3.0948993914986440  -11.7335106995842988 0 0 0
254       36   3    0.0646130000000000   4.0688205063960066  -4.0164084404447955  -11.6690265489866647 0 0 0
255       36   5    0.1606230000000000   4.5068772067435949  -4.5652521410708724  -10.4509506014104616 0 0 0
256       36   6   -0.3612230000000000   4.8654989748007074  -5.0145547239163033  -9.4537851535914914  0 0 0
257       36   1    0.1129350000000000   2.7814839050304121  -2.6885967069564760  -12.6887617803556747 0 0 0
258       36   1    0.1129350000000000   2.6010837543462033  -2.7241561942944781  -10.8414789980255328 0 0 0
259       36   2    0.1443390000000000   4.5480305376472741  -4.3673847891744391  -12.5762433801139153 0 0 0
260       37   4   -0.2342220000000000   3.4474960656628495   19.7204287283459010  19.4705008201827710 0 0 0
261       37   3    0.0646130000000000   3.4404666473469367   18.5832983275243677  18.7634740842628318 0 0 0
262       37   5    0.1606230000000000   4.6115005224452084   18.0272357633653435  18.2191339492247977 0 0 0
263       37   6   -0.3612230000000000   5.5701530005602002   17.5720205011534674  17.7735042766789171 0 0 0
264       37   1    0.1129350000000000   2.5272725058834569   20.1265775739921366  19.8790658977495731 0 0 0
265       37   1    0.1129350000000000   4.3648349405044327   20.2722342431065314  19.6590413468186682 0 0 0
266       37   2    0.1443390000000000   2.5095287049529178   18.0544667992923102  18.5915415618625133 0 0 0
267       38   4   -0.2342220000000000  -12.1813203034393354  11.7334596773823172  3.2945678485640122  0 0 0
268       38   3    0.0646130000000000  -11.1714659711487414  11.6024972316608057  4.1640762337245931  0 0 0
269       38   5    0.1606230000000000  -10.2792564360531937  10.5165686884151359  4.1246625438575926  0 0 0
270       38   6   -0.3612230000000000  -9.5488595507192073   9.6275797658772255   4.0924073225858617  0 0 0
271       38   1    0.1129350000000000  -12.8550050255451112  12.5830930990067742  3.3490256437817534  0 0 0