
                                 *****************
                                 * O   R   C   A *
                                 *****************

           --- An Ab Initio, DFT and Semiempirical electronic structure package ---

                  #######################################################
                  #                        -***-                        #
                  #          Department of theory and spectroscopy      #
                  #               Directorship: Frank Neese             #
                  #        Max Planck Institute fuer Kohlenforschung    #
                  #                Kaiser Wilhelm Platz 1               #
                  #                 D-45470 Muelheim/Ruhr               #
                  #                      Germany                        #
                  #                                                     #
                  #                  All rights reserved                #
                  #                        -***-                        #
                  #######################################################


                         Program Version 4.1.2  - RELEASE  -


 With contributions from (in alphabetic order):
   Daniel Aravena         : Magnetic Properties
   Michael Atanasov       : Ab Initio Ligand Field Theory
   Alexander A. Auer      : GIAO ZORA
   Ute Becker             : Parallelization
   Giovanni Bistoni       : ED, Open-shell LED
   Martin Brehm           : Molecular dynamics
   Dmytro Bykov           : SCF Hessian
   Vijay G. Chilkuri      : MRCI spin determinant printing
   Dipayan Datta          : RHF DLPNO-CCSD density
   Achintya Kumar Dutta   : EOM-CC, STEOM-CC
   Dmitry Ganyushin       : Spin-Orbit,Spin-Spin,Magnetic field MRCI
   Miquel Garcia          : C-PCM Hessian
   Yang Guo               : DLPNO-NEVPT2, CIM, IAO-localization
   Andreas Hansen         : Spin unrestricted coupled pair/coupled cluster methods
   Benjamin Helmich-Paris : CASSCF linear response (MC-RPA)
   Lee Huntington         : MR-EOM, pCC
   Robert Izsak           : Overlap fitted RIJCOSX, COSX-SCS-MP3, EOM
   Christian Kollmar      : KDIIS, OOCD, Brueckner-CCSD(T), CCSD density
   Simone Kossmann        : Meta GGA functionals, TD-DFT gradient, OOMP2, MP2 Hessian
   Martin Krupicka        : AUTO-CI
   Lucas Lang             : DCDCAS
   Dagmar Lenk            : GEPOL surface, SMD
   Dimitrios Liakos       : Extrapolation schemes; parallel MDCI
   Dimitrios Manganas     : ROCIS; embedding schemes
   Dimitrios Pantazis     : SARC Basis sets
   Taras Petrenko         : DFT Hessian,TD-DFT gradient, ASA, ECA, R-Raman, ABS, FL, XAS/XES, NRVS
   Peter Pinski           : DLPNO-MP2, DLPNO-MP2 Gradient
   Christoph Reimann      : Effective Core Potentials
   Marius Retegan         : Local ZFS, SOC
   Christoph Riplinger    : Optimizer, TS searches, QM/MM, DLPNO-CCSD(T), (RO)-DLPNO pert. Triples
   Tobias Risthaus        : Range-separated hybrids, TD-DFT gradient, RPA, STAB
   Michael Roemelt        : Restricted open shell CIS
   Masaaki Saitow         : Open-shell DLPNO
   Barbara Sandhoefer     : DKH picture change effects
   Avijit Sen             : IP-ROCIS
   Kantharuban Sivalingam : CASSCF convergence, NEVPT2, FIC-MRCI
   Bernardo de Souza      : ESD, SOC TD-DFT
   Georgi Stoychev        : AutoAux, RI-MP2 NMR
   Willem Van den Heuvel  : Paramagnetic NMR
   Boris Wezisla          : Elementary symmetry handling
   Frank Wennmohs         : Technical directorship


 We gratefully acknowledge several colleagues who have allowed us to
 interface, adapt or use parts of their codes:
   Stefan Grimme, W. Hujo, H. Kruse,             : VdW corrections, initial TS optimization,
                  C. Bannwarth                     DFT functionals, gCP, sTDA/sTD-DF
   Ed Valeev                                     : LibInt (2-el integral package), F12 methods
   Garnet Chan, S. Sharma, J. Yang, R. Olivares  : DMRG
   Ulf Ekstrom                                   : XCFun DFT Library
   Mihaly Kallay                                 : mrcc  (arbitrary order and MRCC methods)
   Andreas Klamt, Michael Diedenhofen            : otool_cosmo (COSMO solvation model)
   Jiri Pittner, Ondrej Demel                    : Mk-CCSD
   Frank Weinhold                                : gennbo (NPA and NBO analysis)
   Christopher J. Cramer and Donald G. Truhlar   : smd solvation model
   Lars Goerigk                                  : TD-DFT with DH, B97 family of functionals
   V. Asgeirsson, H. Jonsson                     : NEB implementation
   FAccTs GmbH                                   : IRC, NEB, NEB-TS, Multilevel


 Your calculation uses the libint2 library for the computation of 2-el integrals
 For citations please refer to: http://libint.valeyev.net

 This ORCA versions uses:
   CBLAS   interface :  Fast vector & matrix operations
   LAPACKE interface :  Fast linear algebra routines
   SCALAPACK package :  Parallel linear algebra routines


Your calculation utilizes the atom-pairwise dispersion correction
with the zero-damping scheme (D30)
Cite in your paper:
S.Grimme, J.Antony, S.Ehrlich and H.Krieg, J.Chem.Phys., 132, (2010), 154104 
   

XCFun DFT library Copyright 2009-2010 Ulf Ekstrom and contributors.
See http://admol.org/xcfun for more information. This is free soft-
ware; see the source code for copying conditions. There is ABSOLUTELY
NO WARRANTY; not even for MERCHANTABILITY or FITNESS FOR A PARTICULAR
PURPOSE. For details see the documentation. Scientific users of this 
library should cite U. Ekstrom, L. Visscher, R. Bast, A. J. Thorvald-
sen and K. Ruud; J.Chem.Theor.Comp. 2010, DOI: 10.1021/ct100117s
XCFun Version 0.99 
----- Orbital basis set information -----
Your calculation utilizes the basis: def2-TZVP
   F. Weigend and R. Ahlrichs, Phys. Chem. Chem. Phys. 7, 3297 (2005).

================================================================================
                                        WARNINGS
                       Please study these warnings very carefully!
================================================================================


WARNING: Geometry Optimization
  ===> : Switching off AutoStart
         For restart on a previous wavefunction, please use MOREAD

INFO   : the flag for use of LIBINT has been found!

================================================================================
                                       INPUT FILE
================================================================================
NAME = bonds_angles_[6[8[1]][1][1][1]]-[8[6[1][1][1]][1]]_2.in
|  1> #Run DFT geometry optimization
|  2> ! wB97X-D3 def2-TZVP TIGHTSCF Grid5 FinalGrid6 Opt CHELPG PAL4
|  3> 
|  4> %base "2_geo_opt"
|  5> %geom MaxIter 500
|  6> end
|  7> 
|  8> %geom
|  9>   Constraints
| 10>     { B 0 1 C }
| 11>   end
| 12> end
| 13> 
| 14> 
| 15> * xyz 0 1
| 16>   C                    3.011014             -1.180908            0.598433            
| 17>   O                    4.394967             -1.128039            0.874366            
| 18>   H                    4.772490             -0.379011            0.412552            
| 19>   H                    2.806140             -1.318976            -0.469408           
| 20>   H                    2.611338             -2.040276            1.135840            
| 21>   H                    2.484463             -0.284502            0.945600            
| 22> *
| 23> 
| 24>                          ****END OF INPUT****
================================================================================

                       *****************************
                       * Geometry Optimization Run *
                       *****************************

Geometry optimization settings:
Update method            Update   .... BFGS
Choice of coordinates    CoordSys .... Z-matrix Internals
Initial Hessian          InHess   .... Almoef's Model

Convergence Tolerances:
Energy Change            TolE     ....  5.0000e-06 Eh
Max. Gradient            TolMAXG  ....  3.0000e-04 Eh/bohr
RMS Gradient             TolRMSG  ....  1.0000e-04 Eh/bohr
Max. Displacement        TolMAXD  ....  4.0000e-03 bohr
RMS Displacement         TolRMSD  ....  2.0000e-03 bohr

------------------------------------------------------------------------------
                        ORCA OPTIMIZATION COORDINATE SETUP
------------------------------------------------------------------------------

The optimization will be done in new redundant internal coordinates
Making redundant internal coordinates   ...  (new redundants) done
Evaluating the initial hessian          ...  (Almloef) done
Evaluating the coordinates              ...  done
Calculating the B-matrix                .... done
Calculating the G-matrix                .... done
Diagonalizing the G-matrix              .... done
Imposing constraints:
 Iter   0:  RMS(Cart)=    0.0000000000 RMS(Int)=    0.0000000000
CONVERGED
The first mode is                       ....    3
The number of degrees of freedom        ....   12
Storing new coordinates                 .... done

    -----------------------------------------------------------------
                    Redundant Internal Coordinates


    -----------------------------------------------------------------
         Definition                    Initial Value    Approx d2E/dq
    -----------------------------------------------------------------
      1. B(O   1,C   0)                  1.4122         0.515804 C 
      2. B(H   2,O   1)                  0.9575         0.524721   
      3. B(H   3,C   0)                  1.0960         0.352188   
      4. B(H   4,C   0)                  1.0895         0.360731   
      5. B(H   5,C   0)                  1.0960         0.352185   
      6. A(O   1,C   0,H   4)          107.0169         0.340161   
      7. A(O   1,C   0,H   3)          112.2263         0.338802   
      8. A(O   1,C   0,H   5)          112.2282         0.338802   
      9. A(H   3,C   0,H   5)          108.7729         0.288819   
     10. A(H   4,C   0,H   5)          108.2172         0.289906   
     11. A(H   3,C   0,H   4)          108.2177         0.289907   
     12. A(C   0,O   1,H   2)          108.7499         0.359207   
     13. D(H   2,O   1,C   0,H   5)    -61.4304         0.021080   
     14. D(H   2,O   1,C   0,H   3)     61.4272         0.021080   
     15. D(H   2,O   1,C   0,H   4)    179.9981         0.021080   
    -----------------------------------------------------------------

Number of atoms                         .... 6
Number of degrees of freedom            .... 15

         *************************************************************
         *                GEOMETRY OPTIMIZATION CYCLE   1            *
         *************************************************************
---------------------------------
CARTESIAN COORDINATES (ANGSTROEM)
---------------------------------
  C      3.011014   -1.180908    0.598433
  O      4.394967   -1.128039    0.874366
  H      4.772490   -0.379011    0.412552
  H      2.806140   -1.318976   -0.469408
  H      2.611338   -2.040276    1.135840
  H      2.484463   -0.284502    0.945600

----------------------------
CARTESIAN COORDINATES (A.U.)
----------------------------
  NO LB      ZA    FRAG     MASS         X           Y           Z
   0 C     6.0000    0    12.011    5.689992   -2.231593    1.130874
   1 O     8.0000    0    15.999    8.305284   -2.131685    1.652312
   2 H     1.0000    0     1.008    9.018699   -0.716227    0.779610
   3 H     1.0000    0     1.008    5.302836   -2.492503   -0.887053
   4 H     1.0000    0     1.008    4.934714   -3.855563    2.146427
   5 H     1.0000    0     1.008    4.694955   -0.537631    1.786925

--------------------------------
INTERNAL COORDINATES (ANGSTROEM)
--------------------------------
 C      0   0   0     0.000000000000     0.00000000     0.00000000
 O      1   0   0     1.412182728212     0.00000000     0.00000000
 H      2   1   0     0.957516961160   108.74990360     0.00000000
 H      1   2   3     1.096047685907   112.22633765    61.42715461
 H      1   2   3     1.089523082844   107.01688662   179.99811802
 H      1   2   3     1.096049541912   112.22817110   298.56960002

---------------------------
INTERNAL COORDINATES (A.U.)
---------------------------
 C      0   0   0     0.000000000000     0.00000000     0.00000000
 O      1   0   0     2.668638607374     0.00000000     0.00000000
 H      2   1   0     1.809444825177   108.74990360     0.00000000
 H      1   2   3     2.071229956081   112.22633765    61.42715461
 H      1   2   3     2.058900243160   107.01688662   179.99811802
 H      1   2   3     2.071233463424   112.22817110   298.56960002

---------------------
BASIS SET INFORMATION
---------------------
There are 3 groups of distinct atoms

 Group   1 Type C   : 11s6p2d1f contracted to 5s3p2d1f pattern {62111/411/11/1}
 Group   2 Type O   : 11s6p2d1f contracted to 5s3p2d1f pattern {62111/411/11/1}
 Group   3 Type H   : 5s1p contracted to 3s1p pattern {311/1}

Atom   0C    basis set group =>   1
Atom   1O    basis set group =>   2
Atom   2H    basis set group =>   3
Atom   3H    basis set group =>   3
Atom   4H    basis set group =>   3
Atom   5H    basis set group =>   3


           ************************************************************
           *        Program running with 4 parallel MPI-processes     *
           *              working on a common directory               *
           ************************************************************
------------------------------------------------------------------------------
                           ORCA GTO INTEGRAL CALCULATION
------------------------------------------------------------------------------

                         BASIS SET STATISTICS AND STARTUP INFO

 # of primitive gaussian shells          ...   64
 # of primitive gaussian functions       ...  124
 # of contracted shells                  ...   38
 # of contracted basis functions         ...   86
 Highest angular momentum                ...    3
 Maximum contraction depth               ...    6
 Integral package used                   ... LIBINT
 Integral threshhold            Thresh   ...  2.500e-11
 Primitive cut-off              TCut     ...  2.500e-12


------------------------------ INTEGRAL EVALUATION ----------------------------


 * One electron integrals 
 Pre-screening matrix                    ... done
 Shell pair data                         ... done (   0.000 sec)



           ************************************************************
           *        Program running with 4 parallel MPI-processes     *
           *              working on a common directory               *
           ************************************************************
-------------------------------------------------------------------------------
                                 ORCA SCF
-------------------------------------------------------------------------------

------------
SCF SETTINGS
------------
Hamiltonian:
 Density Functional     Method          .... DFT(GTOs)
 Exchange Functional    Exchange        .... WB97X-D3
 Correlation Functional Correlation     .... WB97X-D3
 Gradients option       PostSCFGGA      .... off
 Hybrid DFT is turned on
   Fraction HF Exchange ScalHFX         ....  0.195728
   Scaling of DF-GGA-X  ScalDFX         ....  0.000000
   Scaling of DF-GGA-C  ScalDFC         ....  1.000000
   Scaling of DF-LDA-C  ScalLDAC        ....  1.000000
   Perturbative correction              ....  0.000000
   Density functional embedding theory  .... OFF
 Long-range corrected/Screened/Range-Separated Hybrid DFT is turned on
   Amount of maximum screened exact exchange              ....  0.804272
   Range separation parameter mu (erf(mu*r12)/r12)        ....  0.250000


General Settings:
 Integral files         IntName         .... 2_geo_opt
 Hartree-Fock type      HFTyp           .... RHF
 Total Charge           Charge          ....    0
 Multiplicity           Mult            ....    1
 Number of Electrons    NEL             ....   18
 Basis Dimension        Dim             ....   86
 Nuclear Repulsion      ENuc            ....     40.4284052712 Eh

Convergence Acceleration:
 DIIS                   CNVDIIS         .... on
   Start iteration      DIISMaxIt       ....    12
   Startup error        DIISStart       ....  0.200000
   # of expansion vecs  DIISMaxEq       ....     5
   Bias factor          DIISBfac        ....   1.050
   Max. coefficient     DIISMaxC        ....  10.000
 Newton-Raphson         CNVNR           .... off
 SOSCF                  CNVSOSCF        .... on
   Start iteration      SOSCFMaxIt      ....   150
   Startup grad/error   SOSCFStart      ....  0.003300
 Level Shifting         CNVShift        .... on
   Level shift para.    LevelShift      ....    0.2500
   Turn off err/grad.   ShiftErr        ....    0.0010
 Zerner damping         CNVZerner       .... off
 Static damping         CNVDamp         .... on
   Fraction old density DampFac         ....    0.7000
   Max. Damping (<1)    DampMax         ....    0.9800
   Min. Damping (>=0)   DampMin         ....    0.0000
   Turn off err/grad.   DampErr         ....    0.1000
 Fernandez-Rico         CNVRico         .... off

SCF Procedure:
 Maximum # iterations   MaxIter         ....   125
 SCF integral mode      SCFMode         .... Direct
   Integral package                     .... LIBINT
 Reset frequency        DirectResetFreq ....    20
 Integral Threshold     Thresh          ....  2.500e-11 Eh
 Primitive CutOff       TCut            ....  2.500e-12 Eh

Convergence Tolerance:
 Convergence Check Mode ConvCheckMode   .... Total+1el-Energy
 Convergence forced     ConvForced      .... 0
 Energy Change          TolE            ....  1.000e-08 Eh
 1-El. energy change                    ....  1.000e-05 Eh
 Orbital Gradient       TolG            ....  1.000e-05
 Orbital Rotation angle TolX            ....  1.000e-05
 DIIS Error             TolErr          ....  5.000e-07


Diagonalization of the overlap matrix:
Smallest eigenvalue                        ... 1.650e-03
Time for diagonalization                   ...    0.343 sec
Threshold for overlap eigenvalues          ... 1.000e-08
Number of eigenvalues below threshold      ... 0
Time for construction of square roots      ...    0.009 sec
Total time needed                          ...    0.352 sec

-------------------
DFT GRID GENERATION
-------------------

General Integration Accuracy     IntAcc      ...  5.010
Radial Grid Type                 RadialGrid  ... Gauss-Chebyshev
Angular Grid (max. acc.)         AngularGrid ... Lebedev-434
Angular grid pruning method      GridPruning ... 3 (G Style)
Weight generation scheme         WeightScheme... Becke
Basis function cutoff            BFCut       ...    1.0000e-11
Integration weight cutoff        WCut        ...    1.0000e-14
Grids for H and He will be reduced by one unit

# of grid points (after initial pruning)     ...  48308 (   0.0 sec)
# of grid points (after weights+screening)   ...  46676 (   0.0 sec)
nearest neighbour list constructed           ...    0.0 sec
Grid point re-assignment to atoms done       ...    0.0 sec
Grid point division into batches done        ...    0.3 sec
Reduced shell lists constructed in    0.4 sec

Total number of grid points                  ...    46676
Total number of batches                      ...      733
Average number of points per batch           ...       63
Average number of grid points per atom       ...     7779
Average number of shells per batch           ...    33.14 (87.21%)
Average number of basis functions per batch  ...    76.85 (89.36%)
Average number of large shells per batch     ...    30.60 (92.33%)
Average number of large basis fcns per batch ...    72.26 (94.04%)
Maximum spatial batch extension              ...  15.76, 14.99, 16.58 au
Average spatial batch extension              ...   0.41,  0.41,  0.42 au

Time for grid setup =    0.456 sec

------------------------------
INITIAL GUESS: MODEL POTENTIAL
------------------------------
Loading Hartree-Fock densities                     ... done
Calculating cut-offs                               ... done
Setting up the integral package                    ... done
Initializing the effective Hamiltonian             ... done
Starting the Coulomb interaction                   ... done (   0.0 sec)
Reading the grid                                   ... done
Mapping shells                                     ... done
Starting the XC term evaluation                    ... done (   0.1 sec)
  promolecular density results
     # of electrons  =     17.998045192
     EX              =    -14.430091393
     EC              =     -0.575087950
     EX+EC           =    -15.005179343
Transforming the Hamiltonian                       ... done (   0.0 sec)
Diagonalizing the Hamiltonian                      ... done (   0.0 sec)
Back transforming the eigenvectors                 ... done (   0.0 sec)
Now organizing SCF variables                       ... done
                      ------------------
                      INITIAL GUESS DONE (   0.6 sec)
                      ------------------
--------------
SCF ITERATIONS
--------------
ITER       Energy         Delta-E        Max-DP      RMS-DP      [F,P]     Damp
               ***  Starting incremental Fock matrix formation  ***
  0   -115.6512509649   0.000000000000 0.03696090  0.00147431  0.2523464 0.7000
  1   -115.6883006221  -0.037049657148 0.02202439  0.00104050  0.1262394 0.7000
                               ***Turning on DIIS***
  2   -115.7053560099  -0.017055387880 0.03155247  0.00188052  0.0490860 0.0000
  3   -115.7330798149  -0.027723804972 0.01774068  0.00068017  0.0611254 0.0000
  4   -115.7376011467  -0.004521331773 0.00406493  0.00013179  0.0065620 0.0000
                      *** Initiating the SOSCF procedure ***
                           *** Shutting down DIIS ***
                      *** Re-Reading the Fockian *** 
                      *** Removing any level shift *** 
ITER      Energy       Delta-E        Grad      Rot      Max-DP    RMS-DP
  5   -115.73769531  -0.0000941637  0.000489  0.000489  0.000677  0.000043
               *** Restarting incremental Fock matrix formation ***
  6   -115.73770345  -0.0000081380  0.000152  0.000203  0.000490  0.000026
  7   -115.73770417  -0.0000007223  0.000056  0.000109  0.000208  0.000011
  8   -115.73770423  -0.0000000575  0.000019  0.000017  0.000030  0.000001
  9   -115.73770423  -0.0000000055  0.000011  0.000008  0.000015  0.000001
 10   -115.73770424  -0.0000000015  0.000003  0.000003  0.000003  0.000000
                  ***Gradient check signals convergence***
              ***Rediagonalizing the Fockian in SOSCF/NRSCF***

               *****************************************************
               *                     SUCCESS                       *
               *           SCF CONVERGED AFTER  11 CYCLES          *
               *****************************************************

Setting up the final grid:

General Integration Accuracy     IntAcc      ...  5.340
Radial Grid Type                 RadialGrid  ... Gauss-Chebyshev
Angular Grid (max. acc.)         AngularGrid ... Lebedev-590
Angular grid pruning method      GridPruning ... 3 (G Style)
Weight generation scheme         WeightScheme... Becke
Basis function cutoff            BFCut       ...    1.0000e-11
Integration weight cutoff        WCut        ...    1.0000e-14
Grids for H and He will be reduced by one unit

# of grid points (after initial pruning)     ...  77324 (   0.0 sec)
# of grid points (after weights+screening)   ...  74512 (   0.0 sec)
nearest neighbour list constructed           ...    0.0 sec
Grid point re-assignment to atoms done       ...    0.0 sec
Grid point division into batches done        ...    0.8 sec
Reduced shell lists constructed in    0.8 sec

Total number of grid points                  ...    74512
Total number of batches                      ...     1167
Average number of points per batch           ...       63
Average number of grid points per atom       ...    12419
Average number of shells per batch           ...    32.92 (86.64%)
Average number of basis functions per batch  ...    76.34 (88.77%)
Average number of large shells per batch     ...    30.30 (92.02%)
Average number of large basis fcns per batch ...    71.51 (93.66%)
Maximum spatial batch extension              ...  13.18, 14.25, 15.48 au
Average spatial batch extension              ...   0.34,  0.36,  0.37 au

Final grid set up in    0.9 sec
Final integration                            ... done (   0.2 sec)
Change in XC energy                          ...    -0.000107301
Integrated number of electrons               ...    18.000000746
Previous integrated no of electrons          ...    18.000002286

----------------
TOTAL SCF ENERGY
----------------

Total Energy       :         -115.73781154 Eh           -3149.38596 eV

Components:
Nuclear Repulsion  :           40.42840527 Eh            1100.11284 eV
Electronic Energy  :         -156.16621681 Eh           -4249.49880 eV
One Electron Energy:         -237.27676049 Eh           -6456.62890 eV
Two Electron Energy:           81.11054369 Eh            2207.13010 eV

Virial components:
Potential Energy   :         -230.98722886 Eh           -6285.48205 eV
Kinetic Energy     :          115.24941733 Eh            3136.09608 eV
Virial Ratio       :            2.00423772


DFT components:
N(Alpha)           :        9.000000373124 electrons
N(Beta)            :        9.000000373124 electrons
N(Total)           :       18.000000746249 electrons
E(XC)              :      -10.655373200792 Eh       
DFET-embed. en.    :        0.000000000000 Eh       

---------------
SCF CONVERGENCE
---------------

  Last Energy change         ...   -8.0149e-11  Tolerance :   1.0000e-08
  Last MAX-Density change    ...    1.8519e-06  Tolerance :   1.0000e-07
  Last RMS-Density change    ...    7.9073e-08  Tolerance :   5.0000e-09
  Last Orbital Gradient      ...    1.3496e-06  Tolerance :   1.0000e-05
  Last Orbital Rotation      ...    7.7970e-07  Tolerance :   1.0000e-05

             **** THE GBW FILE WAS UPDATED (2_geo_opt.gbw) ****
             **** DENSITY FILE WAS UPDATED (2_geo_opt.scfp.tmp) ****
             **** ENERGY FILE WAS UPDATED (2_geo_opt.en.tmp) ****
----------------
ORBITAL ENERGIES
----------------

  NO   OCC          E(Eh)            E(eV) 
   0   2.0000     -19.228088      -523.2229 
   1   2.0000     -10.315174      -280.6902 
   2   2.0000      -1.136610       -30.9287 
   3   2.0000      -0.795371       -21.6431 
   4   2.0000      -0.611481       -16.6392 
   5   2.0000      -0.541706       -14.7406 
   6   2.0000      -0.526246       -14.3199 
   7   2.0000      -0.433844       -11.8055 
   8   2.0000      -0.373638       -10.1672 
   9   0.0000       0.116645         3.1741 
  10   0.0000       0.156627         4.2620 
  11   0.0000       0.202553         5.5118 
  12   0.0000       0.205098         5.5810 
  13   0.0000       0.226310         6.1582 
  14   0.0000       0.304327         8.2812 
  15   0.0000       0.313368         8.5272 
  16   0.0000       0.404247        11.0001 
  17   0.0000       0.452549        12.3145 
  18   0.0000       0.484993        13.1973 
  19   0.0000       0.535861        14.5815 
  20   0.0000       0.543671        14.7940 
  21   0.0000       0.567619        15.4457 
  22   0.0000       0.598528        16.2868 
  23   0.0000       0.603441        16.4205 
  24   0.0000       0.671328        18.2678 
  25   0.0000       0.778938        21.1960 
  26   0.0000       0.832140        22.6437 
  27   0.0000       0.861302        23.4372 
  28   0.0000       0.989604        26.9285 
  29   0.0000       1.013920        27.5902 
  30   0.0000       1.109566        30.1928 
  31   0.0000       1.382630        37.6233 
  32   0.0000       1.512895        41.1680 
  33   0.0000       1.553450        42.2715 
  34   0.0000       1.602772        43.6137 
  35   0.0000       1.612899        43.8892 
  36   0.0000       1.624126        44.1947 
  37   0.0000       1.660556        45.1860 
  38   0.0000       1.687771        45.9266 
  39   0.0000       1.774644        48.2905 
  40   0.0000       1.952099        53.1193 
  41   0.0000       2.030709        55.2584 
  42   0.0000       2.055149        55.9234 
  43   0.0000       2.094084        56.9829 
  44   0.0000       2.114521        57.5390 
  45   0.0000       2.268451        61.7277 
  46   0.0000       2.333138        63.4879 
  47   0.0000       2.345617        63.8275 
  48   0.0000       2.380822        64.7855 
  49   0.0000       2.429426        66.1080 
  50   0.0000       2.497546        67.9617 
  51   0.0000       2.596246        70.6474 
  52   0.0000       2.639887        71.8350 
  53   0.0000       2.707122        73.6645 
  54   0.0000       2.841712        77.3269 
  55   0.0000       2.871043        78.1251 
  56   0.0000       2.888301        78.5947 
  57   0.0000       2.992746        81.4368 
  58   0.0000       3.095918        84.2442 
  59   0.0000       3.172710        86.3338 
  60   0.0000       3.298890        89.7674 
  61   0.0000       3.408364        92.7463 
  62   0.0000       3.441564        93.6497 
  63   0.0000       3.488082        94.9155 
  64   0.0000       3.611812        98.2824 
  65   0.0000       3.645073        99.1875 
  66   0.0000       3.666848        99.7800 
  67   0.0000       4.005352       108.9912 
  68   0.0000       4.223820       114.9360 
  69   0.0000       4.273339       116.2835 
  70   0.0000       4.455910       121.2515 
  71   0.0000       4.564520       124.2069 
  72   0.0000       5.345832       145.4675 
  73   0.0000       5.425034       147.6227 
  74   0.0000       5.554189       151.1372 
  75   0.0000       5.825091       158.5088 
  76   0.0000       5.833452       158.7363 
  77   0.0000       5.984707       162.8522 
  78   0.0000       6.379404       173.5924 
  79   0.0000       6.530811       177.7124 
  80   0.0000       6.744889       183.5378 
  81   0.0000       6.803615       185.1358 
  82   0.0000       7.039422       191.5524 
  83   0.0000       7.215625       196.3471 
  84   0.0000      22.404551       609.6588 
  85   0.0000      43.663985      1188.1574 

                    ********************************
                    * MULLIKEN POPULATION ANALYSIS *
                    ********************************

-----------------------
MULLIKEN ATOMIC CHARGES
-----------------------
   0 C :   -0.150991
   1 O :   -0.477752
   2 H :    0.312989
   3 H :    0.098726
   4 H :    0.118298
   5 H :    0.098729
Sum of atomic charges:    0.0000000

--------------------------------
MULLIKEN REDUCED ORBITAL CHARGES
--------------------------------
  0 C s       :     3.223210  s :     3.223210
      pz      :     1.047319  p :     2.826206
      px      :     0.702207
      py      :     1.076680
      dz2     :     0.011106  d :     0.094165
      dxz     :     0.032454
      dyz     :     0.002645
      dx2y2   :     0.012740
      dxy     :     0.035220
      f0      :     0.001355  f :     0.007409
      f+1     :     0.000955
      f-1     :     0.000175
      f+2     :     0.001461
      f-2     :     0.000122
      f+3     :     0.001360
      f-3     :     0.001982
  1 O s       :     3.792860  s :     3.792860
      pz      :     1.759478  p :     4.652656
      px      :     1.313547
      py      :     1.579632
      dz2     :     0.003133  d :     0.030552
      dxz     :     0.006469
      dyz     :     0.005834
      dx2y2   :     0.008932
      dxy     :     0.006183
      f0      :     0.000269  f :     0.001684
      f+1     :     0.000233
      f-1     :     0.000087
      f+2     :     0.000287
      f-2     :     0.000235
      f+3     :     0.000367
      f-3     :     0.000205
  2 H s       :     0.639314  s :     0.639314
      pz      :     0.017008  p :     0.047697
      px      :     0.012722
      py      :     0.017967
  3 H s       :     0.881909  s :     0.881909
      pz      :     0.012073  p :     0.019365
      px      :     0.003006
      py      :     0.004286
  4 H s       :     0.861483  s :     0.861483
      pz      :     0.006297  p :     0.020219
      px      :     0.004193
      py      :     0.009729
  5 H s       :     0.881906  s :     0.881906
      pz      :     0.004930  p :     0.019364
      px      :     0.004976
      py      :     0.009459


                     *******************************
                     * LOEWDIN POPULATION ANALYSIS *
                     *******************************

----------------------
LOEWDIN ATOMIC CHARGES
----------------------
   0 C :   -0.384713
   1 O :   -0.076545
   2 H :    0.165723
   3 H :    0.093422
   4 H :    0.108693
   5 H :    0.093420

-------------------------------
LOEWDIN REDUCED ORBITAL CHARGES
-------------------------------
  0 C s       :     2.863083  s :     2.863083
      pz      :     1.096731  p :     3.052236
      px      :     0.845863
      py      :     1.109642
      dz2     :     0.072354  d :     0.412485
      dxz     :     0.113874
      dyz     :     0.020705
      dx2y2   :     0.082090
      dxy     :     0.123462
      f0      :     0.007806  f :     0.056909
      f+1     :     0.007151
      f-1     :     0.000853
      f+2     :     0.012500
      f-2     :     0.004824
      f+3     :     0.011719
      f-3     :     0.012056
  1 O s       :     3.366631  s :     3.366631
      pz      :     1.699236  p :     4.633820
      px      :     1.381015
      py      :     1.553569
      dz2     :     0.006122  d :     0.071458
      dxz     :     0.017826
      dyz     :     0.008085
      dx2y2   :     0.019323
      dxy     :     0.020102
      f0      :     0.000483  f :     0.004635
      f+1     :     0.000621
      f-1     :     0.000072
      f+2     :     0.001048
      f-2     :     0.000560
      f+3     :     0.000889
      f-3     :     0.000963
  2 H s       :     0.675176  s :     0.675176
      pz      :     0.055761  p :     0.159101
      px      :     0.033908
      py      :     0.069432
  3 H s       :     0.846746  s :     0.846746
      pz      :     0.036188  p :     0.059832
      px      :     0.009714
      py      :     0.013930
  4 H s       :     0.831704  s :     0.831704
      pz      :     0.019214  p :     0.059604
      px      :     0.011610
      py      :     0.028780
  5 H s       :     0.846748  s :     0.846748
      pz      :     0.015606  p :     0.059831
      px      :     0.015204
      py      :     0.029021


                      *****************************
                      * MAYER POPULATION ANALYSIS *
                      *****************************

  NA   - Mulliken gross atomic population
  ZA   - Total nuclear charge
  QA   - Mulliken gross atomic charge
  VA   - Mayer's total valence
  BVA  - Mayer's bonded valence
  FA   - Mayer's free valence

  ATOM       NA         ZA         QA         VA         BVA        FA
  0 C      6.1510     6.0000    -0.1510     3.9348     3.9348     0.0000
  1 O      8.4778     8.0000    -0.4778     1.8880     1.8880     0.0000
  2 H      0.6870     1.0000     0.3130     0.9136     0.9136     0.0000
  3 H      0.9013     1.0000     0.0987     0.9596     0.9596     0.0000
  4 H      0.8817     1.0000     0.1183     0.9598     0.9598     0.0000
  5 H      0.9013     1.0000     0.0987     0.9596     0.9596    -0.0000

  Mayer bond orders larger than 0.1
B(  0-C ,  1-O ) :   0.9986 B(  0-C ,  3-H ) :   0.9755 B(  0-C ,  4-H ) :   0.9749 
B(  0-C ,  5-H ) :   0.9755 B(  1-O ,  2-H ) :   0.9002 

-------
TIMINGS
-------

Total SCF time: 0 days 0 hours 0 min 9 sec 

Total time                  ....       9.299 sec
Sum of individual times     ....       8.602 sec  ( 92.5%)

Fock matrix formation       ....       6.995 sec  ( 75.2%)
  XC integration            ....       1.969 sec  ( 28.1% of F)
    Basis function eval.    ....       0.414 sec  ( 21.0% of XC)
    Density eval.           ....       0.277 sec  ( 14.1% of XC)
    XC-Functional eval.     ....       0.690 sec  ( 35.1% of XC)
    XC-Potential eval.      ....       0.271 sec  ( 13.8% of XC)
Diagonalization             ....       0.016 sec  (  0.2%)
Density matrix formation    ....       0.002 sec  (  0.0%)
Population analysis         ....       0.012 sec  (  0.1%)
Initial guess               ....       0.192 sec  (  2.1%)
Orbital Transformation      ....       0.000 sec  (  0.0%)
Orbital Orthonormalization  ....       0.000 sec  (  0.0%)
DIIS solution               ....       0.011 sec  (  0.1%)
SOSCF solution              ....       0.022 sec  (  0.2%)
Grid generation             ....       1.351 sec  ( 14.5%)


-------------------------------------------------------------------------------
                          DFT DISPERSION CORRECTION                            
                                                                               
                              DFTD3 V3.1  Rev 1                                
                              USING zero damping                               
-------------------------------------------------------------------------------
The omegaB97X-D3 functional is recognized. Fit by Chai et al.
Active option DFTDOPT                   ...         3   

molecular C6(AA) [au] = 208.716455 


            DFT-D V3
 parameters
 s6 scaling factor         :     1.0000 
 rs6 scaling factor        :     1.2810 
 s8 scaling factor         :     1.0000 
 rs8 scaling factor        :     1.0940 
 Damping factor alpha6     :    14.0000 
 Damping factor alpha8     :    16.0000 
 ad hoc parameters k1-k3   :    16.0000     1.3333    -4.0000 

 Edisp/kcal,au: -0.150325790258  -0.000239559370 
 E6   /kcal   :  -0.029648750 
 E8   /kcal   :  -0.120677040 
 % E8         :  80.277003499 

-------------------------   ----------------
Dispersion correction           -0.000239559
-------------------------   ----------------


-------------------------   --------------------
FINAL SINGLE POINT ENERGY      -115.738051096127
-------------------------   --------------------



           ************************************************************
           *        Program running with 4 parallel MPI-processes     *
           *              working on a common directory               *
           ************************************************************
------------------------------------------------------------------------------
                         ORCA SCF GRADIENT CALCULATION
------------------------------------------------------------------------------

Gradient of the Kohn-Sham DFT energy:
Kohn-Sham wavefunction type      ... RKS
Hartree-Fock exchange scaling    ...    0.196
Number of operators              ...    1
Number of atoms                  ...    6
Basis set dimensions             ...   86
Integral neglect threshold       ... 2.5e-11
Integral primitive cutoff        ... 2.5e-12

Nuclear repulsion gradient       ... done
One Electron Gradient            ... done
Pre-screening matrix             ... done
Starting the two electron gradient:
Two electron gradient done
Exchange-correlation gradient    ... done
Dispersion correction            ... done

------------------
CARTESIAN GRADIENT
------------------

   1   C   :   -0.000408043    0.000001588   -0.000094175
   2   O   :    0.000421598    0.000010240    0.000086651
   3   H   :    0.000027208    0.000001227    0.000003669
   4   H   :   -0.000023764    0.000001224   -0.000011902
   5   H   :    0.000006326   -0.000018580    0.000010048
   6   H   :   -0.000023324    0.000004300    0.000005709

Difference to translation invariance:
           :    0.0000000000    0.0000000000   -0.0000000000

Norm of the cartesian gradient     ...    0.0006027214
RMS gradient                       ...    0.0001420628
MAX gradient                       ...    0.0004215976

-------
TIMINGS
-------

Total SCF gradient time            ...        1.670 sec

One electron gradient       ....       0.005 sec  (  0.3%)
Prescreening matrices       ....       0.025 sec  (  1.5%)
Two electron gradient       ....       0.842 sec  ( 50.4%)
XC gradient                 ....       0.436 sec  ( 26.1%)
------------------------------------------------------------------------------
                         ORCA GEOMETRY RELAXATION STEP
------------------------------------------------------------------------------

Reading the OPT-File                    .... done
Getting information on internals        .... done
Copying old internal coords+grads       .... done
Making the new internal coordinates     .... (new redundants).... done
Validating the new internal coordinates .... (new redundants).... done
Calculating the B-matrix                .... done
Calculating the G,G- and P matrices     .... done
Transforming gradient to internals      .... done
Projecting the internal gradient        .... done
Number of atoms                         ....   6
Number of internal coordinates          ....  15
Current Energy                          ....  -115.738051096 Eh
Current gradient norm                   ....     0.000602721 Eh/bohr
Maximum allowed component of the step   ....  0.300
Current trust radius                    ....  0.300
Evaluating the initial hessian          ....  (Almloef) done
Projecting the Hessian                  .... done
Forming the augmented Hessian           .... done
Diagonalizing the augmented Hessian     .... done
Last element of RFO vector              ....  0.999999969
Lowest eigenvalues of augmented Hessian:
 -0.000000019  0.021079670  0.181796507  0.192295616  0.313320731
Length of the computed step             ....  0.000249648
The final length of the internal step   ....  0.000249648
Converting the step to cartesian space:
 Initial RMS(Int)=    0.0000644590
Transforming coordinates:
 Iter   0:  RMS(Cart)=    0.0000948558 RMS(Int)=    1.6223021586
 Iter   1:  RMS(Cart)=    0.0000000055 RMS(Int)=    0.0000000070
Imposing constraints:
 Iter   0:  RMS(Cart)=    0.0000000007 RMS(Int)=    0.0000000000
CONVERGED
done
Storing new coordinates                 .... done

                                .--------------------.
          ----------------------|Geometry convergence|-------------------------
          Item                value                   Tolerance       Converged
          ---------------------------------------------------------------------
          RMS gradient        0.0000202091            0.0001000000      YES
          MAX gradient        0.0000474497            0.0003000000      YES
          RMS step            0.0000644590            0.0020000000      YES
          MAX step            0.0001320957            0.0040000000      YES
          ........................................................
          Max(Bonds)      0.0000      Max(Angles)    0.01
          Max(Dihed)        0.00      Max(Improp)    0.00
          ---------------------------------------------------------------------

                    ***********************HURRAY********************
                    ***        THE OPTIMIZATION HAS CONVERGED     ***
                    *************************************************


    ---------------------------------------------------------------------------
                         Redundant Internal Coordinates

                          --- Optimized Parameters ---  
                            (Angstroem and degrees)

        Definition                    OldVal   dE/dq     Step     FinalVal
    ----------------------------------------------------------------------------
     1. B(O   1,C   0)                1.4122  0.000458  0.0000    1.4122 C 
     2. B(H   2,O   1)                0.9575  0.000009 -0.0000    0.9575   
     3. B(H   3,C   0)                1.0960  0.000016 -0.0000    1.0960   
     4. B(H   4,C   0)                1.0895  0.000017 -0.0000    1.0895   
     5. B(H   5,C   0)                1.0960  0.000016 -0.0000    1.0960   
     6. A(O   1,C   0,H   4)          107.02 -0.000031    0.01    107.02   
     7. A(O   1,C   0,H   3)          112.23  0.000027   -0.01    112.22   
     8. A(O   1,C   0,H   5)          112.23  0.000027   -0.01    112.22   
     9. A(H   3,C   0,H   5)          108.77 -0.000015    0.00    108.77   
    10. A(H   4,C   0,H   5)          108.22 -0.000005    0.00    108.22   
    11. A(H   3,C   0,H   4)          108.22 -0.000005    0.00    108.22   
    12. A(C   0,O   1,H   2)          108.75  0.000047   -0.01    108.74   
    13. D(H   2,O   1,C   0,H   5)    -61.43 -0.000011    0.00    -61.43   
    14. D(H   2,O   1,C   0,H   3)     61.43  0.000010   -0.00     61.43   
    15. D(H   2,O   1,C   0,H   4)    180.00 -0.000001    0.00    180.00   
    ----------------------------------------------------------------------------
                 *******************************************************
                 *** FINAL ENERGY EVALUATION AT THE STATIONARY POINT ***
                 ***               (AFTER    1 CYCLES)               ***
                 *******************************************************
---------------------------------
CARTESIAN COORDINATES (ANGSTROEM)
---------------------------------
  C      3.011018   -1.180942    0.598455
  O      4.394975   -1.128051    0.874362
  H      4.772356   -0.378982    0.412519
  H      2.806227   -1.318968   -0.469382
  H      2.611271   -2.040268    1.135825
  H      2.484565   -0.284501    0.945604

----------------------------
CARTESIAN COORDINATES (A.U.)
----------------------------
  NO LB      ZA    FRAG     MASS         X           Y           Z
   0 C     6.0000    0    12.011    5.689999   -2.231657    1.130916
   1 O     8.0000    0    15.999    8.305300   -2.131708    1.652305
   2 H     1.0000    0     1.008    9.018445   -0.716172    0.779547
   3 H     1.0000    0     1.008    5.303000   -2.492487   -0.887004
   4 H     1.0000    0     1.008    4.934588   -3.855549    2.146398
   5 H     1.0000    0     1.008    4.695148   -0.537630    1.786933

--------------------------------
INTERNAL COORDINATES (ANGSTROEM)
--------------------------------
 C      0   0   0     0.000000000000     0.00000000     0.00000000
 O      1   0   0     1.412182729601     0.00000000     0.00000000
 H      2   1   0     0.957507533549   108.74233507     0.00000000
 H      1   2   3     1.096023450612   112.22119944    61.42623722
 H      1   2   3     1.089497932931   107.02274498   180.00018477
 H      1   2   3     1.096024754402   112.22304769   298.57454837

---------------------------
INTERNAL COORDINATES (A.U.)
---------------------------
 C      0   0   0     0.000000000000     0.00000000     0.00000000
 O      1   0   0     2.668638610000     0.00000000     0.00000000
 H      2   1   0     1.809427009574   108.74233507     0.00000000
 H      1   2   3     2.071184158012   112.22119944    61.42623722
 H      1   2   3     2.058852716712   107.02274498   180.00018477
 H      1   2   3     2.071186621819   112.22304769   298.57454837

---------------------
BASIS SET INFORMATION
---------------------
There are 3 groups of distinct atoms

 Group   1 Type C   : 11s6p2d1f contracted to 5s3p2d1f pattern {62111/411/11/1}
 Group   2 Type O   : 11s6p2d1f contracted to 5s3p2d1f pattern {62111/411/11/1}
 Group   3 Type H   : 5s1p contracted to 3s1p pattern {311/1}

Atom   0C    basis set group =>   1
Atom   1O    basis set group =>   2
Atom   2H    basis set group =>   3
Atom   3H    basis set group =>   3
Atom   4H    basis set group =>   3
Atom   5H    basis set group =>   3


           ************************************************************
           *        Program running with 4 parallel MPI-processes     *
           *              working on a common directory               *
           ************************************************************
------------------------------------------------------------------------------
                           ORCA GTO INTEGRAL CALCULATION
------------------------------------------------------------------------------

                         BASIS SET STATISTICS AND STARTUP INFO

 # of primitive gaussian shells          ...   64
 # of primitive gaussian functions       ...  124
 # of contracted shells                  ...   38
 # of contracted basis functions         ...   86
 Highest angular momentum                ...    3
 Maximum contraction depth               ...    6
 Integral package used                   ... LIBINT
 Integral threshhold            Thresh   ...  2.500e-11
 Primitive cut-off              TCut     ...  2.500e-12


------------------------------ INTEGRAL EVALUATION ----------------------------


 * One electron integrals 
 Pre-screening matrix                    ... done
 Shell pair data                         ... done (   0.000 sec)



           ************************************************************
           *        Program running with 4 parallel MPI-processes     *
           *              working on a common directory               *
           ************************************************************
-------------------------------------------------------------------------------
                                 ORCA SCF
-------------------------------------------------------------------------------

------------
SCF SETTINGS
------------
Hamiltonian:
 Density Functional     Method          .... DFT(GTOs)
 Exchange Functional    Exchange        .... WB97X-D3
 Correlation Functional Correlation     .... WB97X-D3
 Gradients option       PostSCFGGA      .... off
 Hybrid DFT is turned on
   Fraction HF Exchange ScalHFX         ....  0.195728
   Scaling of DF-GGA-X  ScalDFX         ....  0.000000
   Scaling of DF-GGA-C  ScalDFC         ....  1.000000
   Scaling of DF-LDA-C  ScalLDAC        ....  1.000000
   Perturbative correction              ....  0.000000
   Density functional embedding theory  .... OFF
 Long-range corrected/Screened/Range-Separated Hybrid DFT is turned on
   Amount of maximum screened exact exchange              ....  0.804272
   Range separation parameter mu (erf(mu*r12)/r12)        ....  0.250000


General Settings:
 Integral files         IntName         .... 2_geo_opt
 Hartree-Fock type      HFTyp           .... RHF
 Total Charge           Charge          ....    0
 Multiplicity           Mult            ....    1
 Number of Electrons    NEL             ....   18
 Basis Dimension        Dim             ....   86
 Nuclear Repulsion      ENuc            ....     40.4288763588 Eh

Convergence Acceleration:
 DIIS                   CNVDIIS         .... on
   Start iteration      DIISMaxIt       ....    12
   Startup error        DIISStart       ....  0.200000
   # of expansion vecs  DIISMaxEq       ....     5
   Bias factor          DIISBfac        ....   1.050
   Max. coefficient     DIISMaxC        ....  10.000
 Newton-Raphson         CNVNR           .... off
 SOSCF                  CNVSOSCF        .... on
   Start iteration      SOSCFMaxIt      ....   150
   Startup grad/error   SOSCFStart      ....  0.003300
 Level Shifting         CNVShift        .... on
   Level shift para.    LevelShift      ....    0.2500
   Turn off err/grad.   ShiftErr        ....    0.0010
 Zerner damping         CNVZerner       .... off
 Static damping         CNVDamp         .... on
   Fraction old density DampFac         ....    0.7000
   Max. Damping (<1)    DampMax         ....    0.9800
   Min. Damping (>=0)   DampMin         ....    0.0000
   Turn off err/grad.   DampErr         ....    0.1000
 Fernandez-Rico         CNVRico         .... off

SCF Procedure:
 Maximum # iterations   MaxIter         ....   125
 SCF integral mode      SCFMode         .... Direct
   Integral package                     .... LIBINT
 Reset frequency        DirectResetFreq ....    20
 Integral Threshold     Thresh          ....  2.500e-11 Eh
 Primitive CutOff       TCut            ....  2.500e-12 Eh

Convergence Tolerance:
 Convergence Check Mode ConvCheckMode   .... Total+1el-Energy
 Convergence forced     ConvForced      .... 0
 Energy Change          TolE            ....  1.000e-08 Eh
 1-El. energy change                    ....  1.000e-05 Eh
 Orbital Gradient       TolG            ....  1.000e-05
 Orbital Rotation angle TolX            ....  1.000e-05
 DIIS Error             TolErr          ....  5.000e-07


Diagonalization of the overlap matrix:
Smallest eigenvalue                        ... 1.650e-03
Time for diagonalization                   ...    0.002 sec
Threshold for overlap eigenvalues          ... 1.000e-08
Number of eigenvalues below threshold      ... 0
Time for construction of square roots      ...    0.004 sec
Total time needed                          ...    0.006 sec

---------------------
INITIAL GUESS: MOREAD
---------------------
Guess MOs are being read from file: 2_geo_opt.gbw
Input Geometry matches current geometry (good)
Input basis set matches current basis set (good)
MOs were renormalized
MOs were reorthogonalized (Cholesky)
                      ------------------
                      INITIAL GUESS DONE (   0.0 sec)
                      ------------------
-------------------
DFT GRID GENERATION
-------------------

General Integration Accuracy     IntAcc      ...  5.010
Radial Grid Type                 RadialGrid  ... Gauss-Chebyshev
Angular Grid (max. acc.)         AngularGrid ... Lebedev-434
Angular grid pruning method      GridPruning ... 3 (G Style)
Weight generation scheme         WeightScheme... Becke
Basis function cutoff            BFCut       ...    1.0000e-11
Integration weight cutoff        WCut        ...    1.0000e-14
Grids for H and He will be reduced by one unit

# of grid points (after initial pruning)     ...  48308 (   0.0 sec)
# of grid points (after weights+screening)   ...  46677 (   0.0 sec)
nearest neighbour list constructed           ...    0.0 sec
Grid point re-assignment to atoms done       ...    0.0 sec
Grid point division into batches done        ...    0.3 sec
Reduced shell lists constructed in    0.3 sec

Total number of grid points                  ...    46677
Total number of batches                      ...      733
Average number of points per batch           ...       63
Average number of grid points per atom       ...     7780
Average number of shells per batch           ...    33.12 (87.16%)
Average number of basis functions per batch  ...    76.83 (89.33%)
Average number of large shells per batch     ...    30.58 (92.35%)
Average number of large basis fcns per batch ...    72.24 (94.03%)
Maximum spatial batch extension              ...  15.76, 14.99, 16.58 au
Average spatial batch extension              ...   0.41,  0.42,  0.42 au

Time for grid setup =    0.379 sec

--------------
SCF ITERATIONS
--------------
ITER       Energy         Delta-E        Max-DP      RMS-DP      [F,P]     Damp
               ***  Starting incremental Fock matrix formation  ***
                      *** Initiating the SOSCF procedure ***
                      *** Re-Reading the Fockian *** 
                      *** Removing any level shift *** 
ITER      Energy       Delta-E        Grad      Rot      Max-DP    RMS-DP
  0   -115.73770429 -115.7377042939  0.000013  0.000013  0.000014  0.000001
               *** Restarting incremental Fock matrix formation ***
  1   -115.73770430  -0.0000000035  0.000006  0.000006  0.000008  0.000000
                  ***Gradient check signals convergence***
              ***Rediagonalizing the Fockian in SOSCF/NRSCF***

               *****************************************************
               *                     SUCCESS                       *
               *           SCF CONVERGED AFTER   2 CYCLES          *
               *****************************************************

Setting up the final grid:

General Integration Accuracy     IntAcc      ...  5.340
Radial Grid Type                 RadialGrid  ... Gauss-Chebyshev
Angular Grid (max. acc.)         AngularGrid ... Lebedev-590
Angular grid pruning method      GridPruning ... 3 (G Style)
Weight generation scheme         WeightScheme... Becke
Basis function cutoff            BFCut       ...    1.0000e-11
Integration weight cutoff        WCut        ...    1.0000e-14
Grids for H and He will be reduced by one unit

# of grid points (after initial pruning)     ...  77324 (   0.0 sec)
# of grid points (after weights+screening)   ...  74512 (   0.0 sec)
nearest neighbour list constructed           ...    0.0 sec
Grid point re-assignment to atoms done       ...    0.0 sec
Grid point division into batches done        ...    0.8 sec
Reduced shell lists constructed in    0.8 sec

Total number of grid points                  ...    74512
Total number of batches                      ...     1167
Average number of points per batch           ...       63
Average number of grid points per atom       ...    12419
Average number of shells per batch           ...    32.92 (86.64%)
Average number of basis functions per batch  ...    76.34 (88.77%)
Average number of large shells per batch     ...    30.30 (92.04%)
Average number of large basis fcns per batch ...    71.51 (93.67%)
Maximum spatial batch extension              ...  13.18, 14.25, 15.48 au
Average spatial batch extension              ...   0.34,  0.36,  0.37 au

Final grid set up in    0.9 sec
Final integration                            ... done (   0.3 sec)
Change in XC energy                          ...    -0.000107310
Integrated number of electrons               ...    18.000000747
Previous integrated no of electrons          ...    18.000002287

----------------
TOTAL SCF ENERGY
----------------

Total Energy       :         -115.73781161 Eh           -3149.38597 eV

Components:
Nuclear Repulsion  :           40.42887636 Eh            1100.12566 eV
Electronic Energy  :         -156.16668797 Eh           -4249.51162 eV
One Electron Energy:         -237.27767080 Eh           -6456.65367 eV
Two Electron Energy:           81.11098283 Eh            2207.14205 eV

Virial components:
Potential Energy   :         -230.98738797 Eh           -6285.48637 eV
Kinetic Energy     :          115.24957636 Eh            3136.10041 eV
Virial Ratio       :            2.00423633


DFT components:
N(Alpha)           :        9.000000373464 electrons
N(Beta)            :        9.000000373464 electrons
N(Total)           :       18.000000746928 electrons
E(XC)              :      -10.655402816695 Eh       
DFET-embed. en.    :        0.000000000000 Eh       

---------------
SCF CONVERGENCE
---------------

  Last Energy change         ...   -4.2775e-10  Tolerance :   1.0000e-08
  Last MAX-Density change    ...    4.1054e-06  Tolerance :   1.0000e-07
  Last RMS-Density change    ...    1.6705e-07  Tolerance :   5.0000e-09
  Last Orbital Gradient      ...    1.3309e-06  Tolerance :   1.0000e-05
  Last Orbital Rotation      ...    2.5319e-06  Tolerance :   1.0000e-05

             **** THE GBW FILE WAS UPDATED (2_geo_opt.gbw) ****
             **** DENSITY FILE WAS UPDATED (2_geo_opt.scfp.tmp) ****
             **** ENERGY FILE WAS UPDATED (2_geo_opt.en.tmp) ****
----------------
ORBITAL ENERGIES
----------------

  NO   OCC          E(Eh)            E(eV) 
   0   2.0000     -19.228082      -523.2227 
   1   2.0000     -10.315165      -280.6899 
   2   2.0000      -1.136614       -30.9288 
   3   2.0000      -0.795372       -21.6432 
   4   2.0000      -0.611477       -16.6391 
   5   2.0000      -0.541714       -14.7408 
   6   2.0000      -0.526253       -14.3201 
   7   2.0000      -0.433851       -11.8057 
   8   2.0000      -0.373635       -10.1671 
   9   0.0000       0.116644         3.1740 
  10   0.0000       0.156635         4.2622 
  11   0.0000       0.202561         5.5120 
  12   0.0000       0.205097         5.5810 
  13   0.0000       0.226306         6.1581 
  14   0.0000       0.304336         8.2814 
  15   0.0000       0.313359         8.5269 
  16   0.0000       0.404247        11.0001 
  17   0.0000       0.452545        12.3144 
  18   0.0000       0.485001        13.1976 
  19   0.0000       0.535870        14.5818 
  20   0.0000       0.543667        14.7939 
  21   0.0000       0.567628        15.4460 
  22   0.0000       0.598526        16.2867 
  23   0.0000       0.603465        16.4211 
  24   0.0000       0.671327        18.2677 
  25   0.0000       0.778955        21.1964 
  26   0.0000       0.832106        22.6428 
  27   0.0000       0.861308        23.4374 
  28   0.0000       0.989592        26.9282 
  29   0.0000       1.013919        27.5902 
  30   0.0000       1.109569        30.1929 
  31   0.0000       1.382618        37.6229 
  32   0.0000       1.512858        41.1669 
  33   0.0000       1.553440        42.2713 
  34   0.0000       1.602785        43.6140 
  35   0.0000       1.612912        43.8896 
  36   0.0000       1.624130        44.1948 
  37   0.0000       1.660548        45.1858 
  38   0.0000       1.687806        45.9275 
  39   0.0000       1.774672        48.2913 
  40   0.0000       1.952128        53.1201 
  41   0.0000       2.030703        55.2582 
  42   0.0000       2.055138        55.9231 
  43   0.0000       2.094121        56.9839 
  44   0.0000       2.114506        57.5386 
  45   0.0000       2.268459        61.7279 
  46   0.0000       2.333135        63.4878 
  47   0.0000       2.345647        63.8283 
  48   0.0000       2.380829        64.7857 
  49   0.0000       2.429436        66.1083 
  50   0.0000       2.497576        67.9625 
  51   0.0000       2.596255        70.6477 
  52   0.0000       2.639905        71.8355 
  53   0.0000       2.707167        73.6658 
  54   0.0000       2.841733        77.3275 
  55   0.0000       2.871081        78.1261 
  56   0.0000       2.888260        78.5936 
  57   0.0000       2.992720        81.4360 
  58   0.0000       3.095940        84.2448 
  59   0.0000       3.172737        86.3346 
  60   0.0000       3.298915        89.7681 
  61   0.0000       3.408412        92.7476 
  62   0.0000       3.441552        93.6494 
  63   0.0000       3.488044        94.9145 
  64   0.0000       3.611853        98.2835 
  65   0.0000       3.645094        99.1881 
  66   0.0000       3.666827        99.7794 
  67   0.0000       4.005413       108.9928 
  68   0.0000       4.223860       114.9371 
  69   0.0000       4.273378       116.2845 
  70   0.0000       4.455960       121.2528 
  71   0.0000       4.564507       124.2065 
  72   0.0000       5.345862       145.4683 
  73   0.0000       5.425103       147.6246 
  74   0.0000       5.554180       151.1369 
  75   0.0000       5.825098       158.5090 
  76   0.0000       5.833374       158.7342 
  77   0.0000       5.984759       162.8536 
  78   0.0000       6.379410       173.5926 
  79   0.0000       6.530835       177.7130 
  80   0.0000       6.744929       183.5389 
  81   0.0000       6.803633       185.1363 
  82   0.0000       7.039419       191.5523 
  83   0.0000       7.215630       196.3473 
  84   0.0000      22.404662       609.6619 
  85   0.0000      43.663974      1188.1571 

                    ********************************
                    * MULLIKEN POPULATION ANALYSIS *
                    ********************************

-----------------------
MULLIKEN ATOMIC CHARGES
-----------------------
   0 C :   -0.150995
   1 O :   -0.477743
   2 H :    0.312987
   3 H :    0.098726
   4 H :    0.118296
   5 H :    0.098729
Sum of atomic charges:    0.0000000

--------------------------------
MULLIKEN REDUCED ORBITAL CHARGES
--------------------------------
  0 C s       :     3.223208  s :     3.223208
      pz      :     1.047318  p :     2.826214
      px      :     0.702213
      py      :     1.076682
      dz2     :     0.011106  d :     0.094165
      dxz     :     0.032454
      dyz     :     0.002644
      dx2y2   :     0.012741
      dxy     :     0.035219
      f0      :     0.001355  f :     0.007409
      f+1     :     0.000955
      f-1     :     0.000175
      f+2     :     0.001461
      f-2     :     0.000122
      f+3     :     0.001360
      f-3     :     0.001982
  1 O s       :     3.792870  s :     3.792870
      pz      :     1.759474  p :     4.652637
      px      :     1.313570
      py      :     1.579593
      dz2     :     0.003133  d :     0.030553
      dxz     :     0.006469
      dyz     :     0.005835
      dx2y2   :     0.008934
      dxy     :     0.006181
      f0      :     0.000269  f :     0.001683
      f+1     :     0.000233
      f-1     :     0.000087
      f+2     :     0.000287
      f-2     :     0.000235
      f+3     :     0.000367
      f-3     :     0.000205
  2 H s       :     0.639316  s :     0.639316
      pz      :     0.017009  p :     0.047697
      px      :     0.012721
      py      :     0.017968
  3 H s       :     0.881908  s :     0.881908
      pz      :     0.012073  p :     0.019366
      px      :     0.003007
      py      :     0.004286
  4 H s       :     0.861484  s :     0.861484
      pz      :     0.006297  p :     0.020220
      px      :     0.004193
      py      :     0.009729
  5 H s       :     0.881906  s :     0.881906
      pz      :     0.004930  p :     0.019365
      px      :     0.004975
      py      :     0.009460


                     *******************************
                     * LOEWDIN POPULATION ANALYSIS *
                     *******************************

----------------------
LOEWDIN ATOMIC CHARGES
----------------------
   0 C :   -0.384700
   1 O :   -0.076544
   2 H :    0.165721
   3 H :    0.093420
   4 H :    0.108685
   5 H :    0.093418

-------------------------------
LOEWDIN REDUCED ORBITAL CHARGES
-------------------------------
  0 C s       :     2.863070  s :     2.863070
      pz      :     1.096729  p :     3.052235
      px      :     0.845864
      py      :     1.109642
      dz2     :     0.072359  d :     0.412484
      dxz     :     0.113869
      dyz     :     0.020703
      dx2y2   :     0.082091
      dxy     :     0.123462
      f0      :     0.007808  f :     0.056911
      f+1     :     0.007151
      f-1     :     0.000853
      f+2     :     0.012500
      f-2     :     0.004824
      f+3     :     0.011720
      f-3     :     0.012056
  1 O s       :     3.366635  s :     3.366635
      pz      :     1.699233  p :     4.633814
      px      :     1.381044
      py      :     1.553537
      dz2     :     0.006122  d :     0.071458
      dxz     :     0.017825
      dyz     :     0.008087
      dx2y2   :     0.019326
      dxy     :     0.020098
      f0      :     0.000483  f :     0.004636
      f+1     :     0.000621
      f-1     :     0.000072
      f+2     :     0.001049
      f-2     :     0.000559
      f+3     :     0.000889
      f-3     :     0.000963
  2 H s       :     0.675174  s :     0.675174
      pz      :     0.055764  p :     0.159104
      px      :     0.033905
      py      :     0.069435
  3 H s       :     0.846745  s :     0.846745
      pz      :     0.036190  p :     0.059835
      px      :     0.009714
      py      :     0.013931
  4 H s       :     0.831707  s :     0.831707
      pz      :     0.019215  p :     0.059608
      px      :     0.011613
      py      :     0.028780
  5 H s       :     0.846747  s :     0.846747
      pz      :     0.015607  p :     0.059835
      px      :     0.015203
      py      :     0.029024


                      *****************************
                      * MAYER POPULATION ANALYSIS *
                      *****************************

  NA   - Mulliken gross atomic population
  ZA   - Total nuclear charge
  QA   - Mulliken gross atomic charge
  VA   - Mayer's total valence
  BVA  - Mayer's bonded valence
  FA   - Mayer's free valence

  ATOM       NA         ZA         QA         VA         BVA        FA
  0 C      6.1510     6.0000    -0.1510     3.9348     3.9348    -0.0000
  1 O      8.4777     8.0000    -0.4777     1.8880     1.8880     0.0000
  2 H      0.6870     1.0000     0.3130     0.9136     0.9136    -0.0000
  3 H      0.9013     1.0000     0.0987     0.9596     0.9596    -0.0000
  4 H      0.8817     1.0000     0.1183     0.9598     0.9598     0.0000
  5 H      0.9013     1.0000     0.0987     0.9596     0.9596     0.0000

  Mayer bond orders larger than 0.1
B(  0-C ,  1-O ) :   0.9986 B(  0-C ,  3-H ) :   0.9755 B(  0-C ,  4-H ) :   0.9749 
B(  0-C ,  5-H ) :   0.9755 B(  1-O ,  2-H ) :   0.9002 

-------
TIMINGS
-------

Total SCF time: 0 days 0 hours 0 min 3 sec 

Total time                  ....       3.640 sec
Sum of individual times     ....       3.331 sec  ( 91.5%)

Fock matrix formation       ....       2.007 sec  ( 55.1%)
  XC integration            ....       0.708 sec  ( 35.3% of F)
    Basis function eval.    ....       0.139 sec  ( 19.7% of XC)
    Density eval.           ....       0.088 sec  ( 12.4% of XC)
    XC-Functional eval.     ....       0.222 sec  ( 31.4% of XC)
    XC-Potential eval.      ....       0.090 sec  ( 12.7% of XC)
Diagonalization             ....       0.010 sec  (  0.3%)
Density matrix formation    ....       0.002 sec  (  0.0%)
Population analysis         ....       0.014 sec  (  0.4%)
Initial guess               ....       0.003 sec  (  0.1%)
Orbital Transformation      ....       0.000 sec  (  0.0%)
Orbital Orthonormalization  ....       0.002 sec  (  0.0%)
DIIS solution               ....       0.000 sec  (  0.0%)
SOSCF solution              ....       0.012 sec  (  0.3%)
Grid generation             ....       1.283 sec  ( 35.2%)


-------------------------------------------------------------------------------
                          DFT DISPERSION CORRECTION                            
                                                                               
                              DFTD3 V3.1  Rev 1                                
                              USING zero damping                               
-------------------------------------------------------------------------------
The omegaB97X-D3 functional is recognized. Fit by Chai et al.
Active option DFTDOPT                   ...         3   

molecular C6(AA) [au] = 208.716311 


            DFT-D V3
 parameters
 s6 scaling factor         :     1.0000 
 rs6 scaling factor        :     1.2810 
 s8 scaling factor         :     1.0000 
 rs8 scaling factor        :     1.0940 
 Damping factor alpha6     :    14.0000 
 Damping factor alpha8     :    16.0000 
 ad hoc parameters k1-k3   :    16.0000     1.3333    -4.0000 

 Edisp/kcal,au: -0.150290171825  -0.000239502608 
 E6   /kcal   :  -0.029641219 
 E8   /kcal   :  -0.120648953 
 % E8         :  80.277340701 

-------------------------   ----------------
Dispersion correction           -0.000239503
-------------------------   ----------------


-------------------------   --------------------
FINAL SINGLE POINT ENERGY      -115.738051110131
-------------------------   --------------------

                                *** OPTIMIZATION RUN DONE ***

                            ***************************************
                            *     ORCA property calculations      *
                            ***************************************

                                    ---------------------
                                    Active property flags
                                    ---------------------
   (+) Dipole Moment


------------------------------------------------------------------------------
                       ORCA ELECTRIC PROPERTIES CALCULATION
------------------------------------------------------------------------------

Dipole Moment Calculation                       ... on
Quadrupole Moment Calculation                   ... off
Polarizability Calculation                      ... off
GBWName                                         ... 2_geo_opt.gbw
Electron density file                           ... 2_geo_opt.scfp.tmp
The origin for moment calculation is the CENTER OF MASS  = ( 7.033327, -2.140075  1.369301)

-------------
DIPOLE MOMENT
-------------
                                X             Y             Z
Electronic contribution:      1.75562      -0.02835       0.41979
Nuclear contribution   :     -2.06631       0.47590      -0.81761
                        -----------------------------------------
Total Dipole Moment    :     -0.31069       0.44756      -0.39781
                        -----------------------------------------
Magnitude (a.u.)       :      0.67461
Magnitude (Debye)      :      1.71471



--------------------
Rotational spectrum 
--------------------
 
Rotational constants in cm-1:     4.292809     0.833228     0.804373 
Rotational constants in MHz : 128695.172858 24979.548589 24114.492663 

 Dipole components along the rotational axes: 
x,y,z [a.u.] :    -0.333814     0.586227    -0.000005 
x,y,z [Debye]:    -0.848487     1.490069    -0.000013 

 
------------------------------------------------------------------------------
                      ORCA CHELPG CHARGES GENERATION
------------------------------------------------------------------------------

GBW file                           ... 2_geo_opt.gbw

Reading the GBW file               ... done

Grid spacing                       ...     0.300000
Point Cut-Off                      ...     2.800000
Van-der-Waals Radii                ...        COSMO
Total charge                       ...            0


Number of points X direction       ...           26
Number of points Y direction       ...           24
Number of points Z direction       ...           24
Maximum number of possible points  ...        14976
Final number of points             ...         5948


CHELPG Charges            
--------------------------------
  0   C   :       0.093151
  1   O   :      -0.606909
  2   H   :       0.403834
  3   H   :       0.014572
  4   H   :       0.081240
  5   H   :       0.014112
--------------------------------
Total charge:    -0.000000
--------------------------------

CHELPG charges calculated...

Timings for individual parts in CHELPG calculation:
Grid generation                 ...        0.002 sec (=   0.000 min)
Potential calculation           ...        0.789 sec (=   0.013 min)
Fit to the potential            ...        0.001 sec (=   0.000 min)
------------------------------------------------------------------------------


Timings for individual modules:

Sum of individual times         ...       32.993 sec (=   0.550 min)
GTO integral calculation        ...        6.333 sec (=   0.106 min)  19.2 %
SCF iterations                  ...       17.066 sec (=   0.284 min)  51.7 %
SCF Gradient evaluation         ...        3.154 sec (=   0.053 min)   9.6 %
Geometry relaxation             ...        2.493 sec (=   0.042 min)   7.6 %
CHELPG charge generation        ...        3.947 sec (=   0.066 min)  12.0 %
                             ****ORCA TERMINATED NORMALLY****
TOTAL RUN TIME: 0 days 0 hours 0 minutes 38 seconds 679 msec
