
                                 *****************
                                 * O   R   C   A *
                                 *****************

           --- An Ab Initio, DFT and Semiempirical electronic structure package ---

                  #######################################################
                  #                        -***-                        #
                  #          Department of theory and spectroscopy      #
                  #               Directorship: Frank Neese             #
                  #        Max Planck Institute fuer Kohlenforschung    #
                  #                Kaiser Wilhelm Platz 1               #
                  #                 D-45470 Muelheim/Ruhr               #
                  #                      Germany                        #
                  #                                                     #
                  #                  All rights reserved                #
                  #                        -***-                        #
                  #######################################################


                         Program Version 4.1.2  - RELEASE  -


 With contributions from (in alphabetic order):
   Daniel Aravena         : Magnetic Properties
   Michael Atanasov       : Ab Initio Ligand Field Theory
   Alexander A. Auer      : GIAO ZORA
   Ute Becker             : Parallelization
   Giovanni Bistoni       : ED, Open-shell LED
   Martin Brehm           : Molecular dynamics
   Dmytro Bykov           : SCF Hessian
   Vijay G. Chilkuri      : MRCI spin determinant printing
   Dipayan Datta          : RHF DLPNO-CCSD density
   Achintya Kumar Dutta   : EOM-CC, STEOM-CC
   Dmitry Ganyushin       : Spin-Orbit,Spin-Spin,Magnetic field MRCI
   Miquel Garcia          : C-PCM Hessian
   Yang Guo               : DLPNO-NEVPT2, CIM, IAO-localization
   Andreas Hansen         : Spin unrestricted coupled pair/coupled cluster methods
   Benjamin Helmich-Paris : CASSCF linear response (MC-RPA)
   Lee Huntington         : MR-EOM, pCC
   Robert Izsak           : Overlap fitted RIJCOSX, COSX-SCS-MP3, EOM
   Christian Kollmar      : KDIIS, OOCD, Brueckner-CCSD(T), CCSD density
   Simone Kossmann        : Meta GGA functionals, TD-DFT gradient, OOMP2, MP2 Hessian
   Martin Krupicka        : AUTO-CI
   Lucas Lang             : DCDCAS
   Dagmar Lenk            : GEPOL surface, SMD
   Dimitrios Liakos       : Extrapolation schemes; parallel MDCI
   Dimitrios Manganas     : ROCIS; embedding schemes
   Dimitrios Pantazis     : SARC Basis sets
   Taras Petrenko         : DFT Hessian,TD-DFT gradient, ASA, ECA, R-Raman, ABS, FL, XAS/XES, NRVS
   Peter Pinski           : DLPNO-MP2, DLPNO-MP2 Gradient
   Christoph Reimann      : Effective Core Potentials
   Marius Retegan         : Local ZFS, SOC
   Christoph Riplinger    : Optimizer, TS searches, QM/MM, DLPNO-CCSD(T), (RO)-DLPNO pert. Triples
   Tobias Risthaus        : Range-separated hybrids, TD-DFT gradient, RPA, STAB
   Michael Roemelt        : Restricted open shell CIS
   Masaaki Saitow         : Open-shell DLPNO
   Barbara Sandhoefer     : DKH picture change effects
   Avijit Sen             : IP-ROCIS
   Kantharuban Sivalingam : CASSCF convergence, NEVPT2, FIC-MRCI
   Bernardo de Souza      : ESD, SOC TD-DFT
   Georgi Stoychev        : AutoAux, RI-MP2 NMR
   Willem Van den Heuvel  : Paramagnetic NMR
   Boris Wezisla          : Elementary symmetry handling
   Frank Wennmohs         : Technical directorship


 We gratefully acknowledge several colleagues who have allowed us to
 interface, adapt or use parts of their codes:
   Stefan Grimme, W. Hujo, H. Kruse,             : VdW corrections, initial TS optimization,
                  C. Bannwarth                     DFT functionals, gCP, sTDA/sTD-DF
   Ed Valeev                                     : LibInt (2-el integral package), F12 methods
   Garnet Chan, S. Sharma, J. Yang, R. Olivares  : DMRG
   Ulf Ekstrom                                   : XCFun DFT Library
   Mihaly Kallay                                 : mrcc  (arbitrary order and MRCC methods)
   Andreas Klamt, Michael Diedenhofen            : otool_cosmo (COSMO solvation model)
   Jiri Pittner, Ondrej Demel                    : Mk-CCSD
   Frank Weinhold                                : gennbo (NPA and NBO analysis)
   Christopher J. Cramer and Donald G. Truhlar   : smd solvation model
   Lars Goerigk                                  : TD-DFT with DH, B97 family of functionals
   V. Asgeirsson, H. Jonsson                     : NEB implementation
   FAccTs GmbH                                   : IRC, NEB, NEB-TS, Multilevel


 Your calculation uses the libint2 library for the computation of 2-el integrals
 For citations please refer to: http://libint.valeyev.net

 This ORCA versions uses:
   CBLAS   interface :  Fast vector & matrix operations
   LAPACKE interface :  Fast linear algebra routines
   SCALAPACK package :  Parallel linear algebra routines


Your calculation utilizes the atom-pairwise dispersion correction
with the zero-damping scheme (D30)
Cite in your paper:
S.Grimme, J.Antony, S.Ehrlich and H.Krieg, J.Chem.Phys., 132, (2010), 154104 
   

XCFun DFT library Copyright 2009-2010 Ulf Ekstrom and contributors.
See http://admol.org/xcfun for more information. This is free soft-
ware; see the source code for copying conditions. There is ABSOLUTELY
NO WARRANTY; not even for MERCHANTABILITY or FITNESS FOR A PARTICULAR
PURPOSE. For details see the documentation. Scientific users of this 
library should cite U. Ekstrom, L. Visscher, R. Bast, A. J. Thorvald-
sen and K. Ruud; J.Chem.Theor.Comp. 2010, DOI: 10.1021/ct100117s
XCFun Version 0.99 
----- Orbital basis set information -----
Your calculation utilizes the basis: def2-TZVP
   F. Weigend and R. Ahlrichs, Phys. Chem. Chem. Phys. 7, 3297 (2005).

================================================================================
                                        WARNINGS
                       Please study these warnings very carefully!
================================================================================


INFO   : the flag for use of LIBINT has been found!

================================================================================
                                       INPUT FILE
================================================================================
NAME = 26.in
|  1> #Run DFT-D3 single point of the dimer
|  2> ! wB97X-D3 def2-TZVP TIGHTSCF  CHELPG PAL8
|  3> 
|  4> %base "26_charges"
|  5> 
|  6> %scf
|  7> MaxIter 1000
|  8> end
|  9> %output
| 10>   Print[ P_Mayer ] 1
| 11>   Print[ P_NatPop ] 1
| 12>   Print[ P_Hirshfeld ] 1
| 13>   Print[ P_Mulliken ] 1
| 14>   Print [ P_Loewdin ] 1
| 15> end
| 16> 
| 17> * xyz 0 1
| 18>   C                      -6.053073            -3.975525            -8.431801           
| 19>   O                      -6.375768            -4.051434            -7.027885           
| 20>   H                      -5.564738            -3.932327            -6.588004           
| 21>   H                      -5.594269            -2.944110            -8.602753           
| 22>   H                      -5.251478            -4.759371            -8.676464           
| 23>   H                      -6.960758            -4.076662            -9.015425           
| 24> *
| 25> 
| 26>                          ****END OF INPUT****
================================================================================

                       ****************************
                       * Single Point Calculation *
                       ****************************

---------------------------------
CARTESIAN COORDINATES (ANGSTROEM)
---------------------------------
  C     -6.053073   -3.975525   -8.431801
  O     -6.375768   -4.051434   -7.027885
  H     -5.564738   -3.932327   -6.588004
  H     -5.594269   -2.944110   -8.602753
  H     -5.251478   -4.759371   -8.676464
  H     -6.960758   -4.076662   -9.015425

----------------------------
CARTESIAN COORDINATES (A.U.)
----------------------------
  NO LB      ZA    FRAG     MASS         X           Y           Z
   0 C     6.0000    0    12.011  -11.438650   -7.512653  -15.933795
   1 O     8.0000    0    15.999  -12.048455   -7.656101  -13.280778
   2 H     1.0000    0     1.008  -10.515831   -7.431021  -12.449523
   3 H     1.0000    0     1.008  -10.571636   -5.563562  -16.256847
   4 H     1.0000    0     1.008   -9.923855   -8.993908  -16.396141
   5 H     1.0000    0     1.008  -13.153926   -7.703775  -17.036684

--------------------------------
INTERNAL COORDINATES (ANGSTROEM)
--------------------------------
 C      0   0   0     0.000000000000     0.00000000     0.00000000
 O      1   0   0     1.442523613104     0.00000000     0.00000000
 H      2   1   0     0.930296421852   104.97660917     0.00000000
 H      1   2   3     1.141727900572   106.44866992   300.36638686
 H      1   2   3     1.147531733465   109.13658282    56.37123889
 H      1   2   3     1.083853184417   109.37855112   181.68937815

---------------------------
INTERNAL COORDINATES (A.U.)
---------------------------
 C      0   0   0     0.000000000000     0.00000000     0.00000000
 O      1   0   0     2.725974570481     0.00000000     0.00000000
 H      2   1   0     1.758005460667   104.97660917     0.00000000
 H      1   2   3     2.157553051538   106.44866992   300.36638686
 H      1   2   3     2.168520706233   109.13658282    56.37123889
 H      1   2   3     2.048185687926   109.37855112   181.68937815

---------------------
BASIS SET INFORMATION
---------------------
There are 3 groups of distinct atoms

 Group   1 Type C   : 11s6p2d1f contracted to 5s3p2d1f pattern {62111/411/11/1}
 Group   2 Type O   : 11s6p2d1f contracted to 5s3p2d1f pattern {62111/411/11/1}
 Group   3 Type H   : 5s1p contracted to 3s1p pattern {311/1}

Atom   0C    basis set group =>   1
Atom   1O    basis set group =>   2
Atom   2H    basis set group =>   3
Atom   3H    basis set group =>   3
Atom   4H    basis set group =>   3
Atom   5H    basis set group =>   3


           ************************************************************
           *        Program running with 8 parallel MPI-processes     *
           *              working on a common directory               *
           ************************************************************
------------------------------------------------------------------------------
                           ORCA GTO INTEGRAL CALCULATION
------------------------------------------------------------------------------

                         BASIS SET STATISTICS AND STARTUP INFO

 # of primitive gaussian shells          ...   64
 # of primitive gaussian functions       ...  124
 # of contracted shells                  ...   38
 # of contracted basis functions         ...   86
 Highest angular momentum                ...    3
 Maximum contraction depth               ...    6
 Integral package used                   ... LIBINT
 Integral threshhold            Thresh   ...  2.500e-11
 Primitive cut-off              TCut     ...  2.500e-12


------------------------------ INTEGRAL EVALUATION ----------------------------


 * One electron integrals 
 Pre-screening matrix                    ... done
 Shell pair data                         ... done (   0.000 sec)



           ************************************************************
           *        Program running with 8 parallel MPI-processes     *
           *              working on a common directory               *
           ************************************************************
-------------------------------------------------------------------------------
                                 ORCA SCF
-------------------------------------------------------------------------------

------------
SCF SETTINGS
------------
Hamiltonian:
 Density Functional     Method          .... DFT(GTOs)
 Exchange Functional    Exchange        .... WB97X-D3
 Correlation Functional Correlation     .... WB97X-D3
 Gradients option       PostSCFGGA      .... off
 Hybrid DFT is turned on
   Fraction HF Exchange ScalHFX         ....  0.195728
   Scaling of DF-GGA-X  ScalDFX         ....  0.000000
   Scaling of DF-GGA-C  ScalDFC         ....  1.000000
   Scaling of DF-LDA-C  ScalLDAC        ....  1.000000
   Perturbative correction              ....  0.000000
   Density functional embedding theory  .... OFF
 Long-range corrected/Screened/Range-Separated Hybrid DFT is turned on
   Amount of maximum screened exact exchange              ....  0.804272
   Range separation parameter mu (erf(mu*r12)/r12)        ....  0.250000


General Settings:
 Integral files         IntName         .... 26_charges
 Hartree-Fock type      HFTyp           .... RHF
 Total Charge           Charge          ....    0
 Multiplicity           Mult            ....    1
 Number of Electrons    NEL             ....   18
 Basis Dimension        Dim             ....   86
 Nuclear Repulsion      ENuc            ....     39.8977129492 Eh

Convergence Acceleration:
 DIIS                   CNVDIIS         .... on
   Start iteration      DIISMaxIt       ....    12
   Startup error        DIISStart       ....  0.200000
   # of expansion vecs  DIISMaxEq       ....     5
   Bias factor          DIISBfac        ....   1.050
   Max. coefficient     DIISMaxC        ....  10.000
 Newton-Raphson         CNVNR           .... off
 SOSCF                  CNVSOSCF        .... on
   Start iteration      SOSCFMaxIt      ....   150
   Startup grad/error   SOSCFStart      ....  0.003300
 Level Shifting         CNVShift        .... on
   Level shift para.    LevelShift      ....    0.2500
   Turn off err/grad.   ShiftErr        ....    0.0010
 Zerner damping         CNVZerner       .... off
 Static damping         CNVDamp         .... on
   Fraction old density DampFac         ....    0.7000
   Max. Damping (<1)    DampMax         ....    0.9800
   Min. Damping (>=0)   DampMin         ....    0.0000
   Turn off err/grad.   DampErr         ....    0.1000
 Fernandez-Rico         CNVRico         .... off

SCF Procedure:
 Maximum # iterations   MaxIter         ....  1000
 SCF integral mode      SCFMode         .... Direct
   Integral package                     .... LIBINT
 Reset frequency        DirectResetFreq ....    20
 Integral Threshold     Thresh          ....  2.500e-11 Eh
 Primitive CutOff       TCut            ....  2.500e-12 Eh

Convergence Tolerance:
 Convergence Check Mode ConvCheckMode   .... Total+1el-Energy
 Convergence forced     ConvForced      .... 0
 Energy Change          TolE            ....  1.000e-08 Eh
 1-El. energy change                    ....  1.000e-05 Eh
 Orbital Gradient       TolG            ....  1.000e-05
 Orbital Rotation angle TolX            ....  1.000e-05
 DIIS Error             TolErr          ....  5.000e-07


Diagonalization of the overlap matrix:
Smallest eigenvalue                        ... 1.856e-03
Time for diagonalization                   ...    0.702 sec
Threshold for overlap eigenvalues          ... 1.000e-08
Number of eigenvalues below threshold      ... 0
Time for construction of square roots      ...    0.140 sec
Total time needed                          ...    0.842 sec

-------------------
DFT GRID GENERATION
-------------------

General Integration Accuracy     IntAcc      ...  4.340
Radial Grid Type                 RadialGrid  ... Gauss-Chebyshev
Angular Grid (max. acc.)         AngularGrid ... Lebedev-110
Angular grid pruning method      GridPruning ... 3 (G Style)
Weight generation scheme         WeightScheme... Becke
Basis function cutoff            BFCut       ...    1.0000e-11
Integration weight cutoff        WCut        ...    1.0000e-14
Grids for H and He will be reduced by one unit

# of grid points (after initial pruning)     ...   6548 (   0.0 sec)
# of grid points (after weights+screening)   ...   6402 (   0.1 sec)
nearest neighbour list constructed           ...    0.0 sec
Grid point re-assignment to atoms done       ...    0.0 sec
Grid point division into batches done        ...    0.0 sec
Reduced shell lists constructed in    0.0 sec

Total number of grid points                  ...     6402
Total number of batches                      ...      103
Average number of points per batch           ...       62
Average number of grid points per atom       ...     1067
Average number of shells per batch           ...    32.00 (84.21%)
Average number of basis functions per batch  ...    73.86 (85.88%)
Average number of large shells per batch     ...    30.14 (94.20%)
Average number of large basis fcns per batch ...    69.29 (93.81%)
Maximum spatial batch extension              ...  16.66, 25.60, 12.28 au
Average spatial batch extension              ...   0.40,  0.56,  0.34 au

Time for grid setup =    0.971 sec

------------------------------
INITIAL GUESS: MODEL POTENTIAL
------------------------------
Loading Hartree-Fock densities                     ... done
Calculating cut-offs                               ... done
Setting up the integral package                    ... done
Initializing the effective Hamiltonian             ... done
Starting the Coulomb interaction                   ... done (   0.0 sec)
Reading the grid                                   ... done
Mapping shells                                     ... done
Starting the XC term evaluation                    ... done (   0.2 sec)
  promolecular density results
     # of electrons  =     17.997303674
     EX              =    -14.414169709
     EC              =     -0.573113755
     EX+EC           =    -14.987283464
Transforming the Hamiltonian                       ... done (   0.0 sec)
Diagonalizing the Hamiltonian                      ... done (   0.1 sec)
Back transforming the eigenvectors                 ... done (   0.0 sec)
Now organizing SCF variables                       ... done
                      ------------------
                      INITIAL GUESS DONE (   1.5 sec)
                      ------------------
--------------
SCF ITERATIONS
--------------
ITER       Energy         Delta-E        Max-DP      RMS-DP      [F,P]     Damp
               ***  Starting incremental Fock matrix formation  ***
  0   -115.6470916408   0.000000000000 0.03874321  0.00148529  0.2580878 0.7000
  1   -115.6834511963  -0.036359555481 0.02434629  0.00103585  0.1283719 0.7000
                               ***Turning on DIIS***
  2   -115.6998577769  -0.016406580620 0.03732320  0.00183914  0.0494478 0.0000
  3   -115.7264622651  -0.026604488153 0.01864137  0.00067990  0.0643709 0.0000
  4   -115.7309432857  -0.004481020665 0.00416238  0.00013711  0.0062521 0.0000
                      *** Initiating the SOSCF procedure ***
                           *** Shutting down DIIS ***
                      *** Re-Reading the Fockian *** 
                      *** Removing any level shift *** 
ITER      Energy       Delta-E        Grad      Rot      Max-DP    RMS-DP
  5   -115.73103588  -0.0000925984  0.000485  0.000485  0.000688  0.000046
               *** Restarting incremental Fock matrix formation ***
  6   -115.73104407  -0.0000081903  0.000165  0.000228  0.000473  0.000029
  7   -115.73104492  -0.0000008426  0.000056  0.000112  0.000200  0.000012
  8   -115.73104499  -0.0000000747  0.000013  0.000014  0.000022  0.000001
  9   -115.73104499  -0.0000000022  0.000010  0.000007  0.000009  0.000001
                  ***Gradient check signals convergence***
              ***Rediagonalizing the Fockian in SOSCF/NRSCF***

               *****************************************************
               *                     SUCCESS                       *
               *           SCF CONVERGED AFTER  10 CYCLES          *
               *****************************************************

Setting up the final grid:

General Integration Accuracy     IntAcc      ...  4.670
Radial Grid Type                 RadialGrid  ... Gauss-Chebyshev
Angular Grid (max. acc.)         AngularGrid ... Lebedev-302
Angular grid pruning method      GridPruning ... 3 (G Style)
Weight generation scheme         WeightScheme... Becke
Basis function cutoff            BFCut       ...    1.0000e-11
Integration weight cutoff        WCut        ...    1.0000e-14
Grids for H and He will be reduced by one unit

# of grid points (after initial pruning)     ...  26000 (   0.0 sec)
# of grid points (after weights+screening)   ...  25174 (   0.1 sec)
nearest neighbour list constructed           ...    0.0 sec
Grid point re-assignment to atoms done       ...    0.0 sec
Grid point division into batches done        ...    0.1 sec
Reduced shell lists constructed in    0.1 sec

Total number of grid points                  ...    25174
Total number of batches                      ...      396
Average number of points per batch           ...       63
Average number of grid points per atom       ...     4196
Average number of shells per batch           ...    31.22 (82.15%)
Average number of basis functions per batch  ...    71.65 (83.31%)
Average number of large shells per batch     ...    29.76 (95.35%)
Average number of large basis fcns per batch ...    68.67 (95.84%)
Maximum spatial batch extension              ...  15.12, 16.88, 14.18 au
Average spatial batch extension              ...   0.30,  0.34,  0.29 au

Final grid set up in    0.6 sec
Final integration                            ... done (   0.4 sec)
Change in XC energy                          ...    -0.000238473
Integrated number of electrons               ...    17.999998854
Previous integrated no of electrons          ...    18.001035449

----------------
TOTAL SCF ENERGY
----------------

Total Energy       :         -115.73128347 Eh           -3149.20833 eV

Components:
Nuclear Repulsion  :           39.89771295 Eh            1085.67196 eV
Electronic Energy  :         -155.62899642 Eh           -4234.88029 eV
One Electron Energy:         -236.23340202 Eh           -6428.23767 eV
Two Electron Energy:           80.60440560 Eh            2193.35738 eV

Virial components:
Potential Energy   :         -230.88946533 Eh           -6282.82176 eV
Kinetic Energy     :          115.15818186 Eh            3133.61344 eV
Virial Ratio       :            2.00497665


DFT components:
N(Alpha)           :        8.999999426832 electrons
N(Beta)            :        8.999999426832 electrons
N(Total)           :       17.999998853664 electrons
E(XC)              :      -10.632296007036 Eh       
DFET-embed. en.    :        0.000000000000 Eh       

---------------
SCF CONVERGENCE
---------------

  Last Energy change         ...   -1.2288e-09  Tolerance :   1.0000e-08
  Last MAX-Density change    ...    2.3517e-06  Tolerance :   1.0000e-07
  Last RMS-Density change    ...    1.2082e-07  Tolerance :   5.0000e-09
  Last Orbital Gradient      ...    1.8712e-06  Tolerance :   1.0000e-05
  Last Orbital Rotation      ...    1.5180e-06  Tolerance :   1.0000e-05

             **** THE GBW FILE WAS UPDATED (26_charges.gbw) ****
             **** DENSITY FILE WAS UPDATED (26_charges.scfp.tmp) ****
             **** ENERGY FILE WAS UPDATED (26_charges.en.tmp) ****
----------------
ORBITAL ENERGIES
----------------

  NO   OCC          E(Eh)            E(eV) 
   0   2.0000     -19.225614      -523.1556 
   1   2.0000     -10.326405      -280.9958 
   2   2.0000      -1.135336       -30.8941 
   3   2.0000      -0.789959       -21.4959 
   4   2.0000      -0.604324       -16.4445 
   5   2.0000      -0.532994       -14.5035 
   6   2.0000      -0.528600       -14.3839 
   7   2.0000      -0.440085       -11.9753 
   8   2.0000      -0.370734       -10.0882 
   9   0.0000       0.114276         3.1096 
  10   0.0000       0.156531         4.2594 
  11   0.0000       0.191672         5.2157 
  12   0.0000       0.201125         5.4729 
  13   0.0000       0.219780         5.9805 
  14   0.0000       0.303388         8.2556 
  15   0.0000       0.311237         8.4692 
  16   0.0000       0.390094        10.6150 
  17   0.0000       0.443493        12.0681 
  18   0.0000       0.493803        13.4371 
  19   0.0000       0.517710        14.0876 
  20   0.0000       0.535516        14.5721 
  21   0.0000       0.565431        15.3862 
  22   0.0000       0.587250        15.9799 
  23   0.0000       0.594065        16.1653 
  24   0.0000       0.675581        18.3835 
  25   0.0000       0.790582        21.5128 
  26   0.0000       0.813119        22.1261 
  27   0.0000       0.861500        23.4426 
  28   0.0000       0.983706        26.7680 
  29   0.0000       1.010114        27.4866 
  30   0.0000       1.103608        30.0307 
  31   0.0000       1.380252        37.5586 
  32   0.0000       1.490802        40.5668 
  33   0.0000       1.540410        41.9167 
  34   0.0000       1.580248        43.0007 
  35   0.0000       1.615042        43.9475 
  36   0.0000       1.634782        44.4847 
  37   0.0000       1.653218        44.9863 
  38   0.0000       1.679910        45.7127 
  39   0.0000       1.767702        48.1016 
  40   0.0000       1.964493        53.4566 
  41   0.0000       2.013972        54.8030 
  42   0.0000       2.034653        55.3657 
  43   0.0000       2.100677        57.1623 
  44   0.0000       2.126772        57.8724 
  45   0.0000       2.259958        61.4966 
  46   0.0000       2.293810        62.4177 
  47   0.0000       2.332195        63.4622 
  48   0.0000       2.358651        64.1822 
  49   0.0000       2.418937        65.8226 
  50   0.0000       2.469958        67.2110 
  51   0.0000       2.569782        69.9273 
  52   0.0000       2.597992        70.6950 
  53   0.0000       2.746087        74.7248 
  54   0.0000       2.790480        75.9328 
  55   0.0000       2.882433        78.4350 
  56   0.0000       2.907676        79.1219 
  57   0.0000       2.990140        81.3658 
  58   0.0000       3.091268        84.1177 
  59   0.0000       3.151583        85.7589 
  60   0.0000       3.276659        89.1624 
  61   0.0000       3.387536        92.1796 
  62   0.0000       3.406409        92.6931 
  63   0.0000       3.428827        93.3031 
  64   0.0000       3.598541        97.9213 
  65   0.0000       3.618555        98.4659 
  66   0.0000       3.629802        98.7719 
  67   0.0000       4.042115       109.9915 
  68   0.0000       4.135810       112.5411 
  69   0.0000       4.190400       114.0266 
  70   0.0000       4.442173       120.8777 
  71   0.0000       4.564887       124.2169 
  72   0.0000       5.340189       145.3139 
  73   0.0000       5.441360       148.0669 
  74   0.0000       5.561626       151.3395 
  75   0.0000       5.755976       156.6281 
  76   0.0000       5.767465       156.9407 
  77   0.0000       5.974262       162.5679 
  78   0.0000       6.441321       175.2773 
  79   0.0000       6.539498       177.9488 
  80   0.0000       6.770848       184.2441 
  81   0.0000       6.797610       184.9724 
  82   0.0000       7.038775       191.5348 
  83   0.0000       7.234415       196.8584 
  84   0.0000      22.217389       604.5659 
  85   0.0000      43.638190      1187.4555 

                    ********************************
                    * MULLIKEN POPULATION ANALYSIS *
                    ********************************

-----------------------
MULLIKEN ATOMIC CHARGES
-----------------------
   0 C :   -0.178931
   1 O :   -0.467986
   2 H :    0.307485
   3 H :    0.103827
   4 H :    0.104946
   5 H :    0.130660
Sum of atomic charges:   -0.0000000

--------------------------------
MULLIKEN REDUCED ORBITAL CHARGES
--------------------------------
  0 C s       :     3.258303  s :     3.258303
      pz      :     0.720506  p :     2.820456
      px      :     1.055227
      py      :     1.044722
      dz2     :     0.016616  d :     0.092971
      dxz     :     0.032426
      dyz     :     0.032047
      dx2y2   :     0.002817
      dxy     :     0.009064
      f0      :     0.001824  f :     0.007201
      f+1     :     0.001934
      f-1     :     0.002328
      f+2     :     0.000276
      f-2     :     0.000157
      f+3     :     0.000504
      f-3     :     0.000178
  1 O s       :     3.794910  s :     3.794910
      pz      :     1.260820  p :     4.641618
      px      :     1.480781
      py      :     1.900017
      dz2     :     0.007478  d :     0.029825
      dxz     :     0.010500
      dyz     :     0.003523
      dx2y2   :     0.005918
      dxy     :     0.002405
      f0      :     0.000489  f :     0.001633
      f+1     :     0.000134
      f-1     :     0.000189
      f+2     :     0.000357
      f-2     :     0.000093
      f+3     :     0.000261
      f-3     :     0.000110
  2 H s       :     0.641351  s :     0.641351
      pz      :     0.013883  p :     0.051164
      px      :     0.018102
      py      :     0.019179
  3 H s       :     0.878396  s :     0.878396
      pz      :     0.002674  p :     0.017777
      px      :     0.004563
      py      :     0.010540
  4 H s       :     0.877382  s :     0.877382
      pz      :     0.002628  p :     0.017672
      px      :     0.007496
      py      :     0.007548
  5 H s       :     0.849246  s :     0.849246
      pz      :     0.005740  p :     0.020094
      px      :     0.010057
      py      :     0.004297


                     *******************************
                     * LOEWDIN POPULATION ANALYSIS *
                     *******************************

----------------------
LOEWDIN ATOMIC CHARGES
----------------------
   0 C :   -0.369839
   1 O :   -0.088567
   2 H :    0.146164
   3 H :    0.102833
   4 H :    0.103884
   5 H :    0.105526

-------------------------------
LOEWDIN REDUCED ORBITAL CHARGES
-------------------------------
  0 C s       :     2.896166  s :     2.896166
      pz      :     0.846581  p :     3.036103
      px      :     1.094124
      py      :     1.095398
      dz2     :     0.098070  d :     0.385587
      dxz     :     0.115914
      dyz     :     0.099672
      dx2y2   :     0.021278
      dxy     :     0.050653
      f0      :     0.013123  f :     0.051983
      f+1     :     0.012526
      f-1     :     0.017492
      f+2     :     0.004224
      f-2     :     0.001845
      f+3     :     0.001922
      f-3     :     0.000851
  1 O s       :     3.374258  s :     3.374258
      pz      :     1.329287  p :     4.642292
      px      :     1.512057
      py      :     1.800948
      dz2     :     0.019297  d :     0.067515
      dxz     :     0.026322
      dyz     :     0.011931
      dx2y2   :     0.008007
      dxy     :     0.001958
      f0      :     0.001333  f :     0.004501
      f+1     :     0.000819
      f-1     :     0.000731
      f+2     :     0.000910
      f-2     :     0.000213
      f+3     :     0.000401
      f-3     :     0.000094
  2 H s       :     0.681435  s :     0.681435
      pz      :     0.039374  p :     0.172401
      px      :     0.079305
      py      :     0.053722
  3 H s       :     0.843802  s :     0.843802
      pz      :     0.008402  p :     0.053365
      px      :     0.014017
      py      :     0.030946
  4 H s       :     0.843430  s :     0.843430
      pz      :     0.008534  p :     0.052686
      px      :     0.021881
      py      :     0.022272
  5 H s       :     0.832838  s :     0.832838
      pz      :     0.016431  p :     0.061637
      px      :     0.031676
      py      :     0.013530


                      *****************************
                      * MAYER POPULATION ANALYSIS *
                      *****************************

  NA   - Mulliken gross atomic population
  ZA   - Total nuclear charge
  QA   - Mulliken gross atomic charge
  VA   - Mayer's total valence
  BVA  - Mayer's bonded valence
  FA   - Mayer's free valence

  ATOM       NA         ZA         QA         VA         BVA        FA
  0 C      6.1789     6.0000    -0.1789     3.9186     3.9186     0.0000
  1 O      8.4680     8.0000    -0.4680     1.8867     1.8867    -0.0000
  2 H      0.6925     1.0000     0.3075     0.9193     0.9193    -0.0000
  3 H      0.8962     1.0000     0.1038     0.9623     0.9623    -0.0000
  4 H      0.8951     1.0000     0.1049     0.9616     0.9616     0.0000
  5 H      0.8693     1.0000     0.1307     0.9606     0.9606     0.0000

  Mayer bond orders larger than 0.1
B(  0-C ,  1-O ) :   0.9887 B(  0-C ,  3-H ) :   0.9776 B(  0-C ,  4-H ) :   0.9720 
B(  0-C ,  5-H ) :   0.9704 B(  1-O ,  2-H ) :   0.9094 


------------------
HIRSHFELD ANALYSIS
------------------

Total integrated alpha density =      9.000517725
Total integrated beta density  =      9.000517725

  ATOM     CHARGE      SPIN    
   0 C    0.014630    0.000000
   1 O   -0.262080    0.000000
   2 H    0.152673    0.000000
   3 H    0.022266    0.000000
   4 H    0.026179    0.000000
   5 H    0.045296    0.000000

  TOTAL  -0.001035    0.000000

-------
TIMINGS
-------

Total SCF time: 0 days 0 hours 0 min 27 sec 

Total time                  ....      27.336 sec
Sum of individual times     ....      23.087 sec  ( 84.5%)

Fock matrix formation       ....      16.504 sec  ( 60.4%)
  XC integration            ....       4.014 sec  ( 24.3% of F)
    Basis function eval.    ....       0.048 sec  (  1.2% of XC)
    Density eval.           ....       0.056 sec  (  1.4% of XC)
    XC-Functional eval.     ....       0.101 sec  (  2.5% of XC)
    XC-Potential eval.      ....       0.039 sec  (  1.0% of XC)
Diagonalization             ....       2.094 sec  (  7.7%)
Density matrix formation    ....       1.481 sec  (  5.4%)
Population analysis         ....       0.261 sec  (  1.0%)
Initial guess               ....       0.524 sec  (  1.9%)
Orbital Transformation      ....       0.000 sec  (  0.0%)
Orbital Orthonormalization  ....       0.000 sec  (  0.0%)
DIIS solution               ....       0.188 sec  (  0.7%)
SOSCF solution              ....       0.512 sec  (  1.9%)
Grid generation             ....       1.522 sec  (  5.6%)


-------------------------------------------------------------------------------
                          DFT DISPERSION CORRECTION                            
                                                                               
                              DFTD3 V3.1  Rev 1                                
                              USING zero damping                               
-------------------------------------------------------------------------------
The omegaB97X-D3 functional is recognized. Fit by Chai et al.
Active option DFTDOPT                   ...         3   

molecular C6(AA) [au] = 208.875499 


            DFT-D V3
 parameters
 s6 scaling factor         :     1.0000 
 rs6 scaling factor        :     1.2810 
 s8 scaling factor         :     1.0000 
 rs8 scaling factor        :     1.0940 
 Damping factor alpha6     :    14.0000 
 Damping factor alpha8     :    16.0000 
 ad hoc parameters k1-k3   :    16.0000     1.3333    -4.0000 

 Edisp/kcal,au: -0.147203230787  -0.000234583255 
 E6   /kcal   :  -0.028208426 
 E8   /kcal   :  -0.118994805 
 % E8         :  80.837087821 

-------------------------   ----------------
Dispersion correction           -0.000234583
-------------------------   ----------------


-------------------------   --------------------
FINAL SINGLE POINT ENERGY      -115.731518051053
-------------------------   --------------------


                            ***************************************
                            *     ORCA property calculations      *
                            ***************************************

                                    ---------------------
                                    Active property flags
                                    ---------------------
   (+) Dipole Moment


------------------------------------------------------------------------------
                       ORCA ELECTRIC PROPERTIES CALCULATION
------------------------------------------------------------------------------

Dipole Moment Calculation                       ... on
Quadrupole Moment Calculation                   ... off
Polarizability Calculation                      ... off
GBWName                                         ... 26_charges.gbw
Electron density file                           ... 26_charges.scfp.tmp
The origin for moment calculation is the CENTER OF MASS  = (-11.693135, -7.573005 -14.558900)

-------------
DIPOLE MOMENT
-------------
                                X             Y             Z
Electronic contribution:     -0.66815      -0.18766       1.64202
Nuclear contribution   :      1.29164       0.29711      -1.92798
                        -----------------------------------------
Total Dipole Moment    :      0.62349       0.10944      -0.28596
                        -----------------------------------------
Magnitude (a.u.)       :      0.69462
Magnitude (Debye)      :      1.76558



--------------------
Rotational spectrum 
--------------------
 
Rotational constants in cm-1:     4.017499     0.813061     0.784333 
Rotational constants in MHz : 120441.582550 24374.941511 23513.718071 

 Dipole components along the rotational axes: 
x,y,z [a.u.] :    -0.399220     0.566717     0.044149 
x,y,z [Debye]:    -1.014736     1.440480     0.112218 

 
------------------------------------------------------------------------------
                      ORCA CHELPG CHARGES GENERATION
------------------------------------------------------------------------------

GBW file                           ... 26_charges.gbw

Reading the GBW file               ... done

Grid spacing                       ...     0.300000
Point Cut-Off                      ...     2.800000
Van-der-Waals Radii                ...        COSMO
Total charge                       ...            0


Number of points X direction       ...           24
Number of points Y direction       ...           24
Number of points Z direction       ...           26
Maximum number of possible points  ...        14976
Final number of points             ...         5945


CHELPG Charges            
--------------------------------
  0   C   :      -0.011589
  1   O   :      -0.590747
  2   H   :       0.409419
  3   H   :       0.034915
  4   H   :       0.038345
  5   H   :       0.119656
--------------------------------
Total charge:    -0.000000
--------------------------------

CHELPG charges calculated...

Timings for individual parts in CHELPG calculation:
Grid generation                 ...        0.001 sec (=   0.000 min)
Potential calculation           ...        0.634 sec (=   0.011 min)
Fit to the potential            ...        0.001 sec (=   0.000 min)
------------------------------------------------------------------------------


Timings for individual modules:

Sum of individual times         ...       37.442 sec (=   0.624 min)
GTO integral calculation        ...        5.087 sec (=   0.085 min)  13.6 %
SCF iterations                  ...       31.679 sec (=   0.528 min)  84.6 %
CHELPG charge generation        ...        0.676 sec (=   0.011 min)   1.8 %
                             ****ORCA TERMINATED NORMALLY****
TOTAL RUN TIME: 0 days 0 hours 0 minutes 40 seconds 183 msec
