LAMMPS data file via vdw_self_gen.py, on 2021-08-05 13:20:57.260584

7500 atoms
7 atom types
7000 bonds
6 bond types
12000 angles
9 angle types
11000 dihedrals
6 dihedral types

-45.9692271358913018  45.9692271358912947 xlo xhi
-45.9692271358913018  45.9692271358912947 ylo yhi
-45.9692271358913018  45.9692271358912947 zlo zhi

Masses

1  1.007940
2  1.007940
3  12.011000
4  12.011000
5  12.011000
6  14.006740
7  15.999400

Atoms

1         0    5    0.0590150000000000   26.8938393219933438 -14.9547430518472435  14.8741976142328873 0 0 0
2         0    6    0.0701000000000000   25.8064745171723793 -15.6802690524770245  15.5083195250251435 0 0 0
3         0    5    0.0590150000000000   26.1217116941071339 -16.8992155966615982  16.2339028575919073 0 0 0
4         0    3    0.0347420000000000   24.4771305666157275 -15.2882778421637955  15.4689285634272835 0 0 0
5         0    4    0.0365500000000000   24.1151854122911047 -14.0260178571159102  14.7228150971851584 0 0 0
6         0    7   -0.3821910000000000   23.5876204940779530 -15.9383561765653905  16.0232435154135118 0 0 0
7         0    2    0.0061770000000000   27.8535164626165290 -15.4514669359638539  15.0387129937978692 0 0 0
8         0    2    0.0061770000000000   26.9407683210502107 -13.9449993726593497  15.2922633922961193 0 0 0
9         0    2    0.0061770000000000   26.7044054048001414 -14.8962863837341928  13.7984498577537202 0 0 0
10        0    2    0.0061770000000000   27.1918719142097629 -17.1188246815925247  16.2049667343945174 0 0 0
11        0    2    0.0061770000000000   25.5704443209257697 -17.7325462528106534  15.7870090118210165 0 0 0
12        0    2    0.0061770000000000   25.8050258968833575 -16.7858526961236372  17.2754882794457103 0 0 0
13        0    1    0.0285690000000000   24.9617049381496408 -13.5167769433640022  14.2644924471869743 0 0 0
14        0    1    0.0285690000000000   23.6418370659177164 -13.3312836751828474  15.4228512339233834 0 0 0
15        0    1    0.0285690000000000   23.4053564682833475 -14.2812191611944819  13.9304945559611966 0 0 0
16        1    5    0.0590150000000000   24.6152304952303993 -4.8520448440761736  -24.4175189989309409 0 0 0
17        1    6    0.0701000000000000   25.1858340167729402 -4.8565312004366854  -25.7536523335610816 0 0 0
18        1    5    0.0590150000000000   24.4547610325458038 -4.1896105898517062  -26.8178071713127082 0 0 0
19        1    3    0.0347420000000000   26.3893155495796137 -5.4583852361397343  -26.0879695715271360 0 0 0
20        1    4    0.0365500000000000   27.1742548915136624 -6.1605196030694449  -25.0054413135309019 0 0 0
21        1    7   -0.3821910000000000   26.8335752660076352 -5.4360798862214796  -27.2382872892574674 0 0 0
22        1    2    0.0061770000000000   23.6618526553733481 -4.3179452896085184  -24.3932599431589487 0 0 0
23        1    2    0.0061770000000000   25.3137180395937271 -4.3623179133610526  -23.7327954728989852 0 0 0
24        1    2    0.0061770000000000   24.4517087559764157 -5.8846478201898815  -24.0957623189498307 0 0 0
25        1    2    0.0061770000000000   23.5240267160399696 -3.7494268995453566  -26.4513644104799965 0 0 0
26        1    2    0.0061770000000000   24.2249977778722432 -4.9172634748194728  -27.6025236388345050 0 0 0
27        1    2    0.0061770000000000   25.0839085544413862 -3.4009129303252190  -27.2422722817164846 0 0 0
28        1    1    0.0285690000000000   26.7080314956526053 -6.1311610329591630  -24.0216958754663281 0 0 0
29        1    1    0.0285690000000000   28.1581681723875263 -5.6887846836153511  -24.9270470867812755 0 0 0
30        1    1    0.0285690000000000   27.2975093801068311 -7.2097471555996151  -25.2894950926875737 0 0 0
31        2    5    0.0590150000000000   26.7292088874626117 -4.2399397639682803  -5.0499245240826198  0 0 0
32        2    6    0.0701000000000000   25.8295290032311549 -5.3142101695148485  -5.4338255474937194  0 0 0
33        2    5    0.0590150000000000   26.2748176842601247 -6.2582994257853795  -6.4448101144095737  0 0 0
34        2    3    0.0347420000000000   24.5643343502763543 -5.5032726880448655  -4.8991275486928343  0 0 0
35        2    4    0.0365500000000000   24.0706805227860912 -4.5395543431540828  -3.8462539953042114  0 0 0
36        2    7   -0.3821910000000000   23.8355418172235893 -6.4313783768832895  -5.2577029941883193  0 0 0
37        2    2    0.0061770000000000   27.6701834677030369 -4.2912820951354069  -5.6037394261678495  0 0 0
38        2    2    0.0061770000000000   26.9426056987220335 -4.3183549644074732  -3.9799355144734601  0 0 0
39        2    2    0.0061770000000000   26.2475976860056157 -3.2798786696591691  -5.2569727610351293  0 0 0
40        2    2    0.0061770000000000   27.2810666003749773 -6.0221836619206925  -6.7998042143214974  0 0 0
41        2    2    0.0061770000000000   25.5788987704947033 -6.2307290734570255  -7.2891954232206864  0 0 0
42        2    2    0.0061770000000000   26.2704668176262075 -7.2660861058816923  -6.0177406706653676  0 0 0
43        2    1    0.0285690000000000   24.7782536833075078 -3.7520356849820624  -3.5910367291550123  0 0 0
44        2    1    0.0285690000000000   23.8491751926558386 -5.1028358944837837  -2.9349833900746254  0 0 0
45        2    1    0.0285690000000000   23.1545326169642713 -4.0653376425407988  -4.2103257065339506  0 0 0
46        3    5    0.0590150000000000  -26.4481229542237308 -36.8016584971050165 -25.0396502272345742 0 0 0
47        3    6    0.0701000000000000  -25.4689535648330754 -35.7285111002017715 -25.0606922209644587 0 0 0
48        3    5    0.0590150000000000  -24.9251469036614743 -35.2664444410102149 -23.7948150367443816 0 0 0
49        3    3    0.0347420000000000  -25.0133045549042592 -35.1082055876644930 -26.2139351036941761 0 0 0
50        3    4    0.0365500000000000  -25.5585336793159605 -35.5643687271290574 -27.5464628749571538 0 0 0
51        3    7   -0.3821910000000000  -24.1799325177766917 -34.1996200990771300 -26.1813999893973097 0 0 0
52        3    2    0.0061770000000000  -26.6532156612722879 -37.1338651903340917 -24.0186919343110645 0 0 0
53        3    2    0.0061770000000000  -26.0634140457172663 -37.6471800296641916 -25.6172798811604707 0 0 0
54        3    2    0.0061770000000000  -27.3787196122323522 -36.4446277403977277 -25.4902659454116112 0 0 0
55        3    2    0.0061770000000000  -25.3471449449765061 -35.8178188605603580 -22.9508883523149692 0 0 0
56        3    2    0.0061770000000000  -25.1495477372828447 -34.2015130783811614 -23.6781305589461262 0 0 0
57        3    2    0.0061770000000000  -23.8386108195551394 -35.3983071898352648 -23.8044475757228291 0 0 0
58        3    1    0.0285690000000000  -26.2886551624711124 -36.3697449645349735 -27.4810946605314754 0 0 0
59        3    1    0.0285690000000000  -24.7248504568187286 -35.9135492173803428 -28.1627502292445087 0 0 0
60        3    1    0.0285690000000000  -26.0387401840527346 -34.7122351954560244 -28.0363882084590550 0 0 0
61        4    5    0.0590150000000000  -6.1542442700112989   35.9897222015671474  26.5500445164089669 0 0 0
62        4    6    0.0701000000000000  -4.8885140137509051   35.6115908439260735  25.9452268671496817 0 0 0
63        4    5    0.0590150000000000  -3.8394207926819126   35.0946452983705441  26.8076925442855227 0 0 0
64        4    3    0.0347420000000000  -4.6084120175203713   35.7108151410220884  24.5909515973933956 0 0 0
65        4    4    0.0365500000000000  -5.6770034885833240   36.2445394073741483  23.6667002546416150 0 0 0
66        4    7   -0.3821910000000000  -3.5170350937329129   35.3770966004264622  24.1233797613222478 0 0 0
67        4    2    0.0061770000000000  -6.1446798635133311   35.8243122048311022  27.6304741515579266 0 0 0
68        4    2    0.0061770000000000  -6.9548183611531265   35.3906097926423513  26.1065255546217969 0 0 0
69        4    2    0.0061770000000000  -6.3404241002797521   37.0498406322786167  26.3550532082255877 0 0 0
70        4    2    0.0061770000000000  -4.1598918744500271   35.0564335698890446  27.8517933515148037 0 0 0
71        4    2    0.0061770000000000  -2.9592362650833444   35.7398876505038672  26.7241023954070300 0 0 0
72        4    2    0.0061770000000000  -3.5699700836523389   34.0868953149893414  26.4762147640367616 0 0 0
73        4    1    0.0285690000000000  -6.6073162023972962   36.5145716503246973  24.1642764896882341 0 0 0
74        4    1    0.0285690000000000  -5.9040036714302291   35.4795600379374463  22.9183405051736813 0 0 0
75        4    1    0.0285690000000000  -5.2904084615786848   37.1371295726488810  23.1661168376668662 0 0 0
76        5    5    0.0590150000000000   37.1747147291596391 -15.6824745926530102  25.7002365536370014 0 0 0
77        5    6    0.0701000000000000   35.9467336031566305 -15.1592231071451522  25.1265371278100247 0 0 0
78        5    5    0.0590150000000000   36.0104489879947351 -14.5294895027037718  23.8184651630572404 0 0 0
79        5    3    0.0347420000000000   34.7073236944370933 -15.2183706949906714  25.7451878666925289 0 0 0
80        5    4    0.0365500000000000   34.6062226173946499 -15.8661639229460949  27.1057511232653177 0 0 0
81        5    7   -0.3821910000000000   33.6913597155126681 -14.7592009328260794  25.2178593172646011 0 0 0
82        5    2    0.0061770000000000   38.0257292842782846 -15.5229574105865424  25.0330719285242935 0 0 0
83        5    2    0.0061770000000000   37.0577008769163783 -16.7558550503098829  25.8755242454568233 0 0 0
84        5    2    0.0061770000000000   37.3688993999842154 -15.1762222300564975  26.6502557563809290 0 0 0
85        5    2    0.0061770000000000   37.0276914025225707 -14.5345320043396473  23.4190896638552530 0 0 0
86        5    2    0.0061770000000000   35.6616126312215300 -13.4954969883047227  23.9034503674160845 0 0 0
87        5    2    0.0061770000000000   35.3506654054655698 -15.0682862674271050  23.1311334360515275 0 0 0
88        5    1    0.0285690000000000   35.5508534994560890 -16.2431171702980066  27.4950582171727618 0 0 0
89        5    1    0.0285690000000000   33.9085661998080994 -16.7062716787967638  27.0404876966017582 0 0 0
90        5    1    0.0285690000000000   34.2191278714236660 -15.1284741260725628  27.8147843359079658 0 0 0
91        6    5    0.0590150000000000   25.2201290473037609 -36.6286897055261988 -6.2511622484739631  0 0 0
92        6    6    0.0701000000000000   25.6011176549157859 -35.4557396050974702 -5.4831150253983978  0 0 0
93        6    5    0.0590150000000000   25.9089855667500757 -34.2309789776552478 -6.2020413652484079  0 0 0
94        6    3    0.0347420000000000   25.6931170507990139 -35.4226512448861826 -4.1000729554397033  0 0 0
95        6    4    0.0365500000000000   25.3800652771518891 -36.6788552637082290 -3.3222941184868491  0 0 0
96        6    7   -0.3821910000000000   26.0216104898435567 -34.4015117206764671 -3.4914177093426648  0 0 0
97        6    2    0.0061770000000000   25.2162163253334946 -36.4185099632105391 -7.3238175089966067  0 0 0
98        6    2    0.0061770000000000   24.2175136262980004 -36.9437624099913293 -5.9477563621393843  0 0 0
99        6    2    0.0061770000000000   25.9326100742174468 -37.4339487762482932 -6.0500049918118846  0 0 0
100       6    2    0.0061770000000000   25.8065726379492588 -34.3623622432229610 -7.2821146848166709  0 0 0
101       6    2    0.0061770000000000   26.9359487343379058 -33.9308507545213374 -5.9711311863986127  0 0 0
102       6    2    0.0061770000000000   25.2280685703036838 -33.4414658715984316 -5.8687812090416465  0 0 0
103       6    1    0.0285690000000000   25.0997470150532784 -37.5311648834407237 -3.9395228049924720  0 0 0
104       6    1    0.0285690000000000   24.5509887308572807 -36.4686347207479855 -2.6402352962422304  0 0 0
105       6    1    0.0285690000000000   26.2642019979796828 -36.9585237782004157 -2.7419110929893606  0 0 0
106       7    5    0.0590150000000000   3.8609841593911707  -25.1363604544473809 -35.0769009049288414 0 0 0
107       7    6    0.0701000000000000   5.1538422989358441  -25.0575731962241299 -35.7350583276285718 0 0 0
108       7    5    0.0590150000000000   5.7508104504993165  -23.7467399091298041 -35.9274679096778584 0 0 0
109       7    3    0.0347420000000000   5.8641786418286648  -26.1549171482075522 -36.1972516061507079 0 0 0
110       7    4    0.0365500000000000   5.2718161678900719  -27.5319724981452119 -36.0133626946377490 0 0 0
111       7    7   -0.3821910000000000   6.9599330885242852  -26.0378026110978062 -36.7510579384947391 0 0 0
112       7    2    0.0061770000000000   3.4935641828524355  -24.1447038725564802 -34.8004955398710578 0 0 0
113       7    2    0.0061770000000000   3.9574438993907299  -25.7437734187626219 -34.1722967745264938 0 0 0
114       7    2    0.0061770000000000   3.1425643190847206  -25.6042688926456279 -35.7562169235217624 0 0 0
115       7    2    0.0061770000000000   5.1140402796418742  -22.9527650244241954 -35.5294277382593080 0 0 0
116       7    2    0.0061770000000000   5.9078756437951183  -23.5804087215318141 -36.9978483419014594 0 0 0
117       7    2    0.0061770000000000   6.7206515448935287  -23.7190775433175105 -35.4208277241991283 0 0 0
118       7    1    0.0285690000000000   4.3030941960918270  -27.5414485563953058 -35.5158999190702218 0 0 0
119       7    1    0.0285690000000000   5.9642662593837485  -28.1319622342771396 -35.4156252768473365 0 0 0
120       7    1    0.0285690000000000   5.1503134276154681  -27.9931187179315835 -36.9979122990165834 0 0 0
121       8    5    0.0590150000000000   24.9422047605700925  37.0921047618667075  35.9204311404173211 0 0 0
122       8    6    0.0701000000000000   25.2729515093261128  35.7965577322508466  35.3520780139714077 0 0 0
123       8    5    0.0590150000000000   24.6857531297420003  35.4345466914375749  34.0730852864146456 0 0 0
124       8    3    0.0347420000000000   26.1164719656914528  34.8727217392195357  35.9498776404124527 0 0 0
125       8    4    0.0365500000000000   26.7432669587265686  35.2175115964958891  37.2800046494328186 0 0 0
126       8    7   -0.3821910000000000   26.3673590570627816  33.7837103033475472  35.4281451074769791 0 0 0
127       8    2    0.0061770000000000   24.2598258196995147  37.6487370531788201  35.2728976550090536 0 0 0
128       8    2    0.0061770000000000   25.8615093056831959  37.6710181761422334  36.0481105651741558 0 0 0
129       8    2    0.0061770000000000   24.4657778831475419  36.9437222631077518  36.8938455902440410 0 0 0
130       8    2    0.0061770000000000   24.0399068102478175  36.2277872293345311  33.6884291715109967 0 0 0
131       8    2    0.0061770000000000   24.0980820711158543  34.5194962425756771  34.1970821069015329 0 0 0
132       8    2    0.0061770000000000   25.4884093721771556  35.2427681720385237  33.3540545580191150 0 0 0
133       8    1    0.0285690000000000   26.4666588271140171  36.1974162636340111  37.6663413578190713 0 0 0
134       8    1    0.0285690000000000   27.8313171026855706  35.1931054740369476  37.1690269096949635 0 0 0
135       8    1    0.0285690000000000   26.4373982261044347  34.4664462200652153  38.0142401662332503 0 0 0
136       9    5    0.0590150000000000  -25.4227252474575778  16.7890807644071494  15.4310093366121190 0 0 0
137       9    6    0.0701000000000000  -25.5081205624521239  15.3867932580984821  15.8013580694675291 0 0 0
138       9    5    0.0590150000000000  -25.4575130307203921  15.0419553901414673  17.2121032804659180 0 0 0
139       9    3    0.0347420000000000  -25.6349454252189766  14.3450339554286437  14.8952581273060627 0 0 0
140       9    4    0.0365500000000000  -25.6902510756404432  14.6688942818189005  13.4211327448769229 0 0 0
141       9    7   -0.3821910000000000  -25.7034319635417070  13.1682809088710542  15.2581037383943059 0 0 0
142       9    2    0.0061770000000000  -25.3273702326270396  17.4287607432041582  16.3122000578937971 0 0 0
143       9    2    0.0061770000000000  -26.3281499359448929  17.0698246129390903  14.8851589464967358 0 0 0
144       9    2    0.0061770000000000  -24.5490183852301875  16.9362675654900592  14.7895204504389000 0 0 0
145       9    2    0.0061770000000000  -25.3574906725630456  15.9309331513617529  17.8398153275260434 0 0 0
146       9    2    0.0061770000000000  -24.6038257898309958  14.3795096386670487  17.3865553647072204 0 0 0
147       9    2    0.0061770000000000  -26.3759079744957070  14.5113313909000521  17.4823441564950741 0 0 0
148       9    1    0.0285690000000000  -25.6227459909841180  15.7313680727080367  13.1918430272287086 0 0 0
149       9    1    0.0285690000000000  -26.6362873898350898  14.2958459593463676  13.0178771502158614 0 0 0
150       9    1    0.0285690000000000  -24.8591091225518710  14.1622559860741291  12.9218559013312166 0 0 0
151       10   5    0.0590150000000000   35.1374409838010209 -5.6532904375389963  -36.9771933568537676 0 0 0
152       10   6    0.0701000000000000   35.7156337820465524 -4.7138703697576343  -36.0316544531556318 0 0 0
153       10   5    0.0590150000000000   35.8269447180650857 -3.3195631619437895  -36.4256006595862090 0 0 0
154       10   3    0.0347420000000000   36.1734271325925292 -5.0573495617250588  -34.7687960333075168 0 0 0
155       10   4    0.0365500000000000   36.0726563082259801 -6.4984091614518666  -34.3281347800849304 0 0 0
156       10   7   -0.3821910000000000   36.6577141352312879 -4.2231845511747599  -34.0002064742782579 0 0 0
157       10   2    0.0061770000000000   34.8486131995862465 -5.1560361291405252  -37.9067614314156813 0 0 0
158       10   2    0.0061770000000000   34.2504700880552591 -6.1104350050053622  -36.5290135961149076 0 0 0
159       10   2    0.0061770000000000   35.8735506607733896 -6.4299257328341612  -37.2041642540398101 0 0 0
160       10   2    0.0061770000000000   35.4394257372270332 -3.1546674278493692  -37.4340384526442165 0 0 0
161       10   2    0.0061770000000000   36.8798430797557444 -3.0224906866004519  -36.3909193542113769 0 0 0
162       10   2    0.0061770000000000   35.2637400213684771 -2.7032822768840781  -35.7177591711660156 0 0 0
163       10   1    0.0285690000000000   35.6333921435197709 -7.1649518632007450  -35.0689107838473646 0 0 0
164       10   1    0.0285690000000000   35.4566889475960849 -6.5442121112632039  -33.4252221964273346 0 0 0
165       10   1    0.0285690000000000   37.0781089808873503 -6.8637100834488356  -34.0992749215987914 0 0 0
166       11   5    0.0590150000000000  -26.6405638842423329  14.6212627729400495 -4.4242890420170218  0 0 0
167       11   6    0.0701000000000000  -25.8549865894378996  15.6808723746406109 -5.0333511077966424  0 0 0
168       11   5    0.0590150000000000  -26.4108855552539374  17.0232437242139270 -5.0596537207728947  0 0 0
169       11   3    0.0347420000000000  -24.6012426338233077  15.4996071099874708 -5.5969405800990302  0 0 0
170       11   4    0.0365500000000000  -23.9946324029083229  14.1165293170082489 -5.5864660673658681  0 0 0
171       11   7   -0.3821910000000000  -23.9717406838159057  16.4314075901389351 -6.1034682063213186  0 0 0
172       11   2    0.0061770000000000  -27.5947082981774443  14.9988575981774677 -4.0477113917105445  0 0 0
173       11   2    0.0061770000000000  -26.0756982351037863  14.1915857990832119 -3.5919020407006208  0 0 0
174       11   2    0.0061770000000000  -26.8356094923360402  13.8468101918071476 -5.1717621431651191  0 0 0
175       11   2    0.0061770000000000  -27.3980123854903326  17.0587080167947391 -4.5920735125955217  0 0 0
176       11   2    0.0061770000000000  -26.4924261413756739  17.3547953247355835 -6.0995933717173356  0 0 0
177       11   2    0.0061770000000000  -25.7350011854438776  17.6992772438951533 -4.5265493864124569  0 0 0
178       11   1    0.0285690000000000  -24.6189785883282539  13.3557532468435962 -5.1202119743903882  0 0 0
179       11   1    0.0285690000000000  -23.0468569397831367  14.1560665108809758 -5.0415593642519090  0 0 0
180       11   1    0.0285690000000000  -23.8055497835739160  13.8113588583092977 -6.6198466505021765  0 0 0
181       12   5    0.0590150000000000  -34.9787070841099066  35.3285539620758300 -26.7185051384599213 0 0 0
182       12   6    0.0701000000000000  -36.1023882607245312  35.6137092939773083 -25.8427838105763605 0 0 0
183       12   5    0.0590150000000000  -37.4438746152363962  35.3458181763352641 -26.3330133869453888 0 0 0
184       12   3    0.0347420000000000  -35.9837867123610735  36.1287384712561703 -24.5609715329876188 0 0 0
185       12   4    0.0365500000000000  -34.6034977056748332  36.4188324281334914 -24.0209366977182874 0 0 0
186       12   7   -0.3821910000000000  -36.9687809370248104  36.3550078512581081 -23.8540885009005343 0 0 0
187       12   2    0.0061770000000000  -35.3136935398734266  34.9289819778793316 -27.6791853377459631 0 0 0
188       12   2    0.0061770000000000  -34.3278497551267563  34.5935326090767390 -26.2361235764736627 0 0 0
189       12   2    0.0061770000000000  -34.4195528482233399  36.2521865737034190 -26.8939615884072545 0 0 0
190       12   2    0.0061770000000000  -37.4276265430152009  34.9433158832098769 -27.3489052366409702 0 0 0
191       12   2    0.0061770000000000  -38.0193154899856012  36.2768511426934595 -26.3232551175227982 0 0 0
192       12   2    0.0061770000000000  -37.9291154153870096  34.6250157034740127 -25.6674111082636500 0 0 0
193       12   1    0.0285690000000000  -33.7935339274719624  36.1896522344554086 -24.7118899408722505 0 0 0
194       12   1    0.0285690000000000  -34.4523053685615750  35.8252057357327374 -23.1145631210030409 0 0 0
195       12   1    0.0285690000000000  -34.5436217159554104  37.4822478754706410 -23.7712987045764663 0 0 0
196       13   5    0.0590150000000000   4.7368235583535876   36.6744976086792747  4.0172482931285884  0 0 0
197       13   6    0.0701000000000000   5.5236316258746614   35.9864897111111190  5.0264256768761735  0 0 0
198       13   5    0.0590150000000000   6.9213615806524302   36.3533962210372792  5.1794188606809843  0 0 0
199       13   3    0.0347420000000000   5.0304365106842903   34.9950687019508493  5.8608159073127339  0 0 0
200       13   4    0.0365500000000000   3.5816739806444486   34.5896727970285269  5.7276575019273928  0 0 0
201       13   7   -0.3821910000000000   5.7383051746492528   34.4386460499975797  6.7036746516879422  0 0 0
202       13   2    0.0061770000000000   5.3360242950488015   37.4153075488719367  3.4815811846968212  0 0 0
203       13   2    0.0061770000000000   3.8977201342737242   37.1810038553844251  4.5029647630429874  0 0 0
204       13   2    0.0061770000000000   4.3556102148532787   35.9411999713248562  3.3006685080468756  0 0 0
205       13   2    0.0061770000000000   7.2093646918969156   37.1405026446995805  4.4781157651202594  0 0 0
206       13   2    0.0061770000000000   7.5429253463563377   35.4695815889397892  5.0045475083835189  0 0 0
207       13   2    0.0061770000000000   7.0877359124208095   36.7039281502973225  6.2028875610807006  0 0 0
208       13   1    0.0285690000000000   3.0323619223364071   35.1317901671328414  4.9593175465505208  0 0 0
209       13   1    0.0285690000000000   3.0821963336618996   34.7626690500359956  6.6854462103125822  0 0 0
210       13   1    0.0285690000000000   3.5392072781119692   33.5238958522404715  5.4846086209707288  0 0 0
211       14   5    0.0590150000000000   25.5041369008272660  36.9286091582151457  14.4325915151787871 0 0 0
212       14   6    0.0701000000000000   25.7696546205426813  35.5900926498854986  14.9313246016550760 0 0 0
213       14   5    0.0590150000000000   26.4824208595168784  34.6620657438914392  14.0696943572174433 0 0 0
214       14   3    0.0347420000000000   25.3867587439074676  35.1315596733263149  16.1825249664102593 0 0 0
215       14   4    0.0365500000000000   24.6438807415960177  36.0707514928324287  17.1028731988497711 0 0 0
216       14   7   -0.3821910000000000   25.6348203503794707  33.9845994126859381  16.5620545119087623 0 0 0
217       14   2    0.0061770000000000   25.8987342331434363  37.0628057638468320  13.4221142231202819 0 0 0
218       14   2    0.0061770000000000   25.9764975877222284  37.6574678174623116  15.0975757704183646 0 0 0
219       14   2    0.0061770000000000   24.4232176395453742  37.0956083114844262  14.4164527420791231 0 0 0
220       14   2    0.0061770000000000   26.7380341604678549  35.1194653031569146  13.1106553435893680 0 0 0
221       14   2    0.0061770000000000   25.8530767942258457  33.7839423517767159  13.8939810557747609 0 0 0
222       14   2    0.0061770000000000   27.4004816687817971  34.3423116870648144  14.5726485559620080 0 0 0
223       14   1    0.0285690000000000   24.4678650917068268  37.0616164983541410  16.6867166186704843 0 0 0
224       14   1    0.0285690000000000   25.2245751705978805  36.1889681151582039  18.0224294198782111 0 0 0
225       14   1    0.0285690000000000   23.6727382361331209  35.6277859395906873  17.3424987987436872 0 0 0
226       15   5    0.0590150000000000  -3.9558455550634664   24.7867839438686381  4.5762328559381151  0 0 0
227       15   6    0.0701000000000000  -5.0862296901071202   25.1608314019807473  5.4088077777448618  0 0 0
228       15   5    0.0590150000000000  -5.4445014296718579   24.2909479779295125  6.5163367918073112  0 0 0
229       15   3    0.0347420000000000  -5.8545116281441931   26.2992571433165203  5.2188241183157578  0 0 0
230       15   4    0.0365500000000000  -5.5091331654614759   27.2247834932142005  4.0764123876949672  0 0 0
231       15   7   -0.3821910000000000  -6.8064538833186052   26.5749953645676413  5.9529013977317158  0 0 0
232       15   2    0.0061770000000000  -3.5037744727698739   23.8510879104568865  4.9151794756460090  0 0 0
233       15   2    0.0061770000000000  -3.2036471310564214   25.5798688077051679  4.6183938933387712  0 0 0
234       15   2    0.0061770000000000  -4.2980062911084138   24.6622881265126317  3.5447473016184969  0 0 0
235       15   2    0.0061770000000000  -4.7798697641307690   23.4257118327588820  6.5791022946760087  0 0 0
236       15   2    0.0061770000000000  -6.4740664157211327   23.9455321987179239  6.3794657299534343  0 0 0
237       15   2    0.0061770000000000  -5.3850628232560087   24.8596090976977884  7.4496817523290151  0 0 0
238       15   1    0.0285690000000000  -4.6558057587279444   26.9039666436466511  3.4806858116964197  0 0 0
239       15   1    0.0285690000000000  -5.2825892688107814   28.2136937667808922  4.4856790086458895  0 0 0
240       15   1    0.0285690000000000  -6.3758812824707789   27.2975350899400127  3.4129279626820601  0 0 0
241       16   5    0.0590150000000000  -35.4876152560352907 -36.8588305230018989 -4.1683619218281969  0 0 0
242       16   6    0.0701000000000000  -36.1948738391448970 -35.9420199857881713 -5.0459179197973842  0 0 0
243       16   5    0.0590150000000000  -37.6298477656866410 -36.1078404812615830 -5.2041257616583811  0 0 0
244       16   3    0.0347420000000000  -35.5914482205473064 -34.9111808266571657 -5.7499152539700242  0 0 0
245       16   4    0.0365500000000000  -34.1011563765900974 -34.7114294889752841 -5.6080720587546953  0 0 0
246       16   7   -0.3821910000000000  -36.2346617593565199 -34.1574992127825894 -6.4843098647889956  0 0 0
247       16   2    0.0061770000000000  -36.1685418221869668 -37.5880100548624156 -3.7218013288236609  0 0 0
248       16   2    0.0061770000000000  -35.0056439023785160 -36.2878750448320204 -3.3694394727744426  0 0 0
249       16   2    0.0061770000000000  -34.7270926783786109 -37.3913902041122199 -4.7467400174802723  0 0 0
250       16   2    0.0061770000000000  -38.0057760510614528 -36.9441484950051375 -4.6095038847454335  0 0 0
251       16   2    0.0061770000000000  -37.8534566025829236 -36.2872673503989631 -6.2604660928459417  0 0 0
252       16   2    0.0061770000000000  -38.1317061613170765 -35.1874410158539703 -4.8894128651754887  0 0 0
253       16   1    0.0285690000000000  -33.6143178119295598 -35.4212981541586913 -4.9409469149098753  0 0 0
254       16   1    0.0285690000000000  -33.9200914187973694 -33.7046820655601209 -5.2202061801233510  0 0 0
255       16   1    0.0285690000000000  -33.6414202527386266 -34.8067370154815876 -6.5961590221426931  0 0 0
256       17   5    0.0590150000000000  -5.8038341156617577   24.2492925592956041 -25.7047408227249825 0 0 0
257       17   6    0.0701000000000000  -4.7914298316349440   25.2276148925577850 -25.3458762632814114 0 0 0
258       17   5    0.0590150000000000  -3.5773511554579178   24.7581803307710508 -24.6998727895660402 0 0 0
259       17   3    0.0347420000000000  -4.9034911415229718   26.5899590939678809 -25.5778776326964632 0 0 0
260       17   4    0.0365500000000000  -6.1529652403669264   27.1111177848638150 -26.2473535204786117 0 0 0
261       17   7   -0.3821910000000000  -4.0159910124546050   27.3829333532224446 -25.2544113731525819 0 0 0
262       17   2    0.0061770000000000  -5.4974178218198162   23.2380017115691757 -25.4251339244321706 0 0 0
263       17   2    0.0061770000000000  -5.9667488133277695   24.2844405659171620 -26.7858453700814856 0 0 0
264       17   2    0.0061770000000000  -6.7357770405251953   24.4936169698573778 -25.1867412148094623 0 0 0
265       17   2    0.0061770000000000  -3.5880024654367020   23.6739093309191588 -24.5636696523924662 0 0 0
266       17   2    0.0061770000000000  -3.4829689613022730   25.2433167222921462 -23.7232538814712548 0 0 0
267       17   2    0.0061770000000000  -2.7159895564721075   25.0356987957066721 -25.3155682742111772 0 0 0
268       17   1    0.0285690000000000  -6.8825168330614073   26.3422633118040501 -26.4975505233641613 0 0 0
269       17   1    0.0285690000000000  -5.8662158727990397   27.6185932016357505 -27.1731009670705994 0 0 0
270       17   1    0.0285690000000000  -6.6346786979753896   27.8279541747140122 -25.5758965893612995 0 0 0
271       18   5    0.0590150000000000  -34.9317478105764678  26.2338214562288989  26.5458549938610382 0 0 0