
                                 *****************
                                 * O   R   C   A *
                                 *****************

           --- An Ab Initio, DFT and Semiempirical electronic structure package ---

                  #######################################################
                  #                        -***-                        #
                  #          Department of theory and spectroscopy      #
                  #               Directorship: Frank Neese             #
                  #        Max Planck Institute fuer Kohlenforschung    #
                  #                Kaiser Wilhelm Platz 1               #
                  #                 D-45470 Muelheim/Ruhr               #
                  #                      Germany                        #
                  #                                                     #
                  #                  All rights reserved                #
                  #                        -***-                        #
                  #######################################################


                         Program Version 4.1.2  - RELEASE  -


 With contributions from (in alphabetic order):
   Daniel Aravena         : Magnetic Properties
   Michael Atanasov       : Ab Initio Ligand Field Theory
   Alexander A. Auer      : GIAO ZORA
   Ute Becker             : Parallelization
   Giovanni Bistoni       : ED, Open-shell LED
   Martin Brehm           : Molecular dynamics
   Dmytro Bykov           : SCF Hessian
   Vijay G. Chilkuri      : MRCI spin determinant printing
   Dipayan Datta          : RHF DLPNO-CCSD density
   Achintya Kumar Dutta   : EOM-CC, STEOM-CC
   Dmitry Ganyushin       : Spin-Orbit,Spin-Spin,Magnetic field MRCI
   Miquel Garcia          : C-PCM Hessian
   Yang Guo               : DLPNO-NEVPT2, CIM, IAO-localization
   Andreas Hansen         : Spin unrestricted coupled pair/coupled cluster methods
   Benjamin Helmich-Paris : CASSCF linear response (MC-RPA)
   Lee Huntington         : MR-EOM, pCC
   Robert Izsak           : Overlap fitted RIJCOSX, COSX-SCS-MP3, EOM
   Christian Kollmar      : KDIIS, OOCD, Brueckner-CCSD(T), CCSD density
   Simone Kossmann        : Meta GGA functionals, TD-DFT gradient, OOMP2, MP2 Hessian
   Martin Krupicka        : AUTO-CI
   Lucas Lang             : DCDCAS
   Dagmar Lenk            : GEPOL surface, SMD
   Dimitrios Liakos       : Extrapolation schemes; parallel MDCI
   Dimitrios Manganas     : ROCIS; embedding schemes
   Dimitrios Pantazis     : SARC Basis sets
   Taras Petrenko         : DFT Hessian,TD-DFT gradient, ASA, ECA, R-Raman, ABS, FL, XAS/XES, NRVS
   Peter Pinski           : DLPNO-MP2, DLPNO-MP2 Gradient
   Christoph Reimann      : Effective Core Potentials
   Marius Retegan         : Local ZFS, SOC
   Christoph Riplinger    : Optimizer, TS searches, QM/MM, DLPNO-CCSD(T), (RO)-DLPNO pert. Triples
   Tobias Risthaus        : Range-separated hybrids, TD-DFT gradient, RPA, STAB
   Michael Roemelt        : Restricted open shell CIS
   Masaaki Saitow         : Open-shell DLPNO
   Barbara Sandhoefer     : DKH picture change effects
   Avijit Sen             : IP-ROCIS
   Kantharuban Sivalingam : CASSCF convergence, NEVPT2, FIC-MRCI
   Bernardo de Souza      : ESD, SOC TD-DFT
   Georgi Stoychev        : AutoAux, RI-MP2 NMR
   Willem Van den Heuvel  : Paramagnetic NMR
   Boris Wezisla          : Elementary symmetry handling
   Frank Wennmohs         : Technical directorship


 We gratefully acknowledge several colleagues who have allowed us to
 interface, adapt or use parts of their codes:
   Stefan Grimme, W. Hujo, H. Kruse,             : VdW corrections, initial TS optimization,
                  C. Bannwarth                     DFT functionals, gCP, sTDA/sTD-DF
   Ed Valeev                                     : LibInt (2-el integral package), F12 methods
   Garnet Chan, S. Sharma, J. Yang, R. Olivares  : DMRG
   Ulf Ekstrom                                   : XCFun DFT Library
   Mihaly Kallay                                 : mrcc  (arbitrary order and MRCC methods)
   Andreas Klamt, Michael Diedenhofen            : otool_cosmo (COSMO solvation model)
   Jiri Pittner, Ondrej Demel                    : Mk-CCSD
   Frank Weinhold                                : gennbo (NPA and NBO analysis)
   Christopher J. Cramer and Donald G. Truhlar   : smd solvation model
   Lars Goerigk                                  : TD-DFT with DH, B97 family of functionals
   V. Asgeirsson, H. Jonsson                     : NEB implementation
   FAccTs GmbH                                   : IRC, NEB, NEB-TS, Multilevel


 Your calculation uses the libint2 library for the computation of 2-el integrals
 For citations please refer to: http://libint.valeyev.net

 This ORCA versions uses:
   CBLAS   interface :  Fast vector & matrix operations
   LAPACKE interface :  Fast linear algebra routines
   SCALAPACK package :  Parallel linear algebra routines


Your calculation utilizes the atom-pairwise dispersion correction
with the zero-damping scheme (D30)
Cite in your paper:
S.Grimme, J.Antony, S.Ehrlich and H.Krieg, J.Chem.Phys., 132, (2010), 154104 
   

XCFun DFT library Copyright 2009-2010 Ulf Ekstrom and contributors.
See http://admol.org/xcfun for more information. This is free soft-
ware; see the source code for copying conditions. There is ABSOLUTELY
NO WARRANTY; not even for MERCHANTABILITY or FITNESS FOR A PARTICULAR
PURPOSE. For details see the documentation. Scientific users of this 
library should cite U. Ekstrom, L. Visscher, R. Bast, A. J. Thorvald-
sen and K. Ruud; J.Chem.Theor.Comp. 2010, DOI: 10.1021/ct100117s
XCFun Version 0.99 
----- Orbital basis set information -----
Your calculation utilizes the basis: def2-TZVP
   F. Weigend and R. Ahlrichs, Phys. Chem. Chem. Phys. 7, 3297 (2005).

================================================================================
                                        WARNINGS
                       Please study these warnings very carefully!
================================================================================


INFO   : the flag for use of LIBINT has been found!

================================================================================
                                       INPUT FILE
================================================================================
NAME = 119.in
|  1> #Run DFT-D3 single point of the dimer
|  2> ! wB97X-D3 def2-TZVP TIGHTSCF  CHELPG PAL8
|  3> 
|  4> %base "119_charges"
|  5> 
|  6> %scf
|  7> MaxIter 1000
|  8> end
|  9> %output
| 10>   Print[ P_Mayer ] 1
| 11>   Print[ P_NatPop ] 1
| 12>   Print[ P_Hirshfeld ] 1
| 13>   Print[ P_Mulliken ] 1
| 14>   Print [ P_Loewdin ] 1
| 15> end
| 16> 
| 17> * xyz 0 1
| 18>   C                      5.463850             9.221880             -0.277459           
| 19>   O                      5.036390             10.494550            -0.505910           
| 20>   H                      5.743985             10.983707            -0.944206           
| 21>   H                      5.916438             8.874486             -1.241364           
| 22>   H                      6.067915             9.211910             0.580314            
| 23>   H                      4.583290             8.543651             -0.093264           
| 24> *
| 25> 
| 26>                          ****END OF INPUT****
================================================================================

                       ****************************
                       * Single Point Calculation *
                       ****************************

---------------------------------
CARTESIAN COORDINATES (ANGSTROEM)
---------------------------------
  C      5.463850    9.221880   -0.277459
  O      5.036390   10.494550   -0.505910
  H      5.743985   10.983707   -0.944206
  H      5.916438    8.874486   -1.241364
  H      6.067915    9.211910    0.580314
  H      4.583290    8.543651   -0.093264

----------------------------
CARTESIAN COORDINATES (A.U.)
----------------------------
  NO LB      ZA    FRAG     MASS         X           Y           Z
   0 C     6.0000    0    12.011   10.325180   17.426828   -0.524322
   1 O     8.0000    0    15.999    9.517398   19.831825   -0.956031
   2 H     1.0000    0     1.008   10.854559   20.756198   -1.784291
   3 H     1.0000    0     1.008   11.180448   16.770348   -2.345838
   4 H     1.0000    0     1.008   11.466698   17.407987    1.096635
   5 H     1.0000    0     1.008    8.661163   16.145161   -0.176243

--------------------------------
INTERNAL COORDINATES (ANGSTROEM)
--------------------------------
 C      0   0   0     0.000000000000     0.00000000     0.00000000
 O      1   0   0     1.361837303022     0.00000000     0.00000000
 H      2   1   0     0.965437019329   108.63855880     0.00000000
 H      1   2   3     1.120103271134   105.80157196   312.56359309
 H      1   2   3     1.049175125827   109.07158706    80.32969093
 H      1   2   3     1.126635827615   110.16211819   198.82253333

---------------------------
INTERNAL COORDINATES (A.U.)
---------------------------
 C      0   0   0     0.000000000000     0.00000000     0.00000000
 O      1   0   0     2.573499541669     0.00000000     0.00000000
 H      2   1   0     1.824411566080   108.63855880     0.00000000
 H      1   2   3     2.116688424153   105.80157196   312.56359309
 H      1   2   3     1.982653654335   109.07158706    80.32969093
 H      1   2   3     2.129033166856   110.16211819   198.82253333

---------------------
BASIS SET INFORMATION
---------------------
There are 3 groups of distinct atoms

 Group   1 Type C   : 11s6p2d1f contracted to 5s3p2d1f pattern {62111/411/11/1}
 Group   2 Type O   : 11s6p2d1f contracted to 5s3p2d1f pattern {62111/411/11/1}
 Group   3 Type H   : 5s1p contracted to 3s1p pattern {311/1}

Atom   0C    basis set group =>   1
Atom   1O    basis set group =>   2
Atom   2H    basis set group =>   3
Atom   3H    basis set group =>   3
Atom   4H    basis set group =>   3
Atom   5H    basis set group =>   3


           ************************************************************
           *        Program running with 8 parallel MPI-processes     *
           *              working on a common directory               *
           ************************************************************
------------------------------------------------------------------------------
                           ORCA GTO INTEGRAL CALCULATION
------------------------------------------------------------------------------

                         BASIS SET STATISTICS AND STARTUP INFO

 # of primitive gaussian shells          ...   64
 # of primitive gaussian functions       ...  124
 # of contracted shells                  ...   38
 # of contracted basis functions         ...   86
 Highest angular momentum                ...    3
 Maximum contraction depth               ...    6
 Integral package used                   ... LIBINT
 Integral threshhold            Thresh   ...  2.500e-11
 Primitive cut-off              TCut     ...  2.500e-12


------------------------------ INTEGRAL EVALUATION ----------------------------


 * One electron integrals 
 Pre-screening matrix                    ... done
 Shell pair data                         ... done (   0.000 sec)



           ************************************************************
           *        Program running with 8 parallel MPI-processes     *
           *              working on a common directory               *
           ************************************************************
-------------------------------------------------------------------------------
                                 ORCA SCF
-------------------------------------------------------------------------------

------------
SCF SETTINGS
------------
Hamiltonian:
 Density Functional     Method          .... DFT(GTOs)
 Exchange Functional    Exchange        .... WB97X-D3
 Correlation Functional Correlation     .... WB97X-D3
 Gradients option       PostSCFGGA      .... off
 Hybrid DFT is turned on
   Fraction HF Exchange ScalHFX         ....  0.195728
   Scaling of DF-GGA-X  ScalDFX         ....  0.000000
   Scaling of DF-GGA-C  ScalDFC         ....  1.000000
   Scaling of DF-LDA-C  ScalLDAC        ....  1.000000
   Perturbative correction              ....  0.000000
   Density functional embedding theory  .... OFF
 Long-range corrected/Screened/Range-Separated Hybrid DFT is turned on
   Amount of maximum screened exact exchange              ....  0.804272
   Range separation parameter mu (erf(mu*r12)/r12)        ....  0.250000


General Settings:
 Integral files         IntName         .... 119_charges
 Hartree-Fock type      HFTyp           .... RHF
 Total Charge           Charge          ....    0
 Multiplicity           Mult            ....    1
 Number of Electrons    NEL             ....   18
 Basis Dimension        Dim             ....   86
 Nuclear Repulsion      ENuc            ....     41.2717934640 Eh

Convergence Acceleration:
 DIIS                   CNVDIIS         .... on
   Start iteration      DIISMaxIt       ....    12
   Startup error        DIISStart       ....  0.200000
   # of expansion vecs  DIISMaxEq       ....     5
   Bias factor          DIISBfac        ....   1.050
   Max. coefficient     DIISMaxC        ....  10.000
 Newton-Raphson         CNVNR           .... off
 SOSCF                  CNVSOSCF        .... on
   Start iteration      SOSCFMaxIt      ....   150
   Startup grad/error   SOSCFStart      ....  0.003300
 Level Shifting         CNVShift        .... on
   Level shift para.    LevelShift      ....    0.2500
   Turn off err/grad.   ShiftErr        ....    0.0010
 Zerner damping         CNVZerner       .... off
 Static damping         CNVDamp         .... on
   Fraction old density DampFac         ....    0.7000
   Max. Damping (<1)    DampMax         ....    0.9800
   Min. Damping (>=0)   DampMin         ....    0.0000
   Turn off err/grad.   DampErr         ....    0.1000
 Fernandez-Rico         CNVRico         .... off

SCF Procedure:
 Maximum # iterations   MaxIter         ....  1000
 SCF integral mode      SCFMode         .... Direct
   Integral package                     .... LIBINT
 Reset frequency        DirectResetFreq ....    20
 Integral Threshold     Thresh          ....  2.500e-11 Eh
 Primitive CutOff       TCut            ....  2.500e-12 Eh

Convergence Tolerance:
 Convergence Check Mode ConvCheckMode   .... Total+1el-Energy
 Convergence forced     ConvForced      .... 0
 Energy Change          TolE            ....  1.000e-08 Eh
 1-El. energy change                    ....  1.000e-05 Eh
 Orbital Gradient       TolG            ....  1.000e-05
 Orbital Rotation angle TolX            ....  1.000e-05
 DIIS Error             TolErr          ....  5.000e-07


Diagonalization of the overlap matrix:
Smallest eigenvalue                        ... 1.696e-03
Time for diagonalization                   ...    0.223 sec
Threshold for overlap eigenvalues          ... 1.000e-08
Number of eigenvalues below threshold      ... 0
Time for construction of square roots      ...    0.111 sec
Total time needed                          ...    0.334 sec

-------------------
DFT GRID GENERATION
-------------------

General Integration Accuracy     IntAcc      ...  4.340
Radial Grid Type                 RadialGrid  ... Gauss-Chebyshev
Angular Grid (max. acc.)         AngularGrid ... Lebedev-110
Angular grid pruning method      GridPruning ... 3 (G Style)
Weight generation scheme         WeightScheme... Becke
Basis function cutoff            BFCut       ...    1.0000e-11
Integration weight cutoff        WCut        ...    1.0000e-14
Grids for H and He will be reduced by one unit

# of grid points (after initial pruning)     ...   6548 (   0.0 sec)
# of grid points (after weights+screening)   ...   6360 (   4.1 sec)
nearest neighbour list constructed           ...    0.0 sec
Grid point re-assignment to atoms done       ...    0.0 sec
Grid point division into batches done        ...    0.0 sec
Reduced shell lists constructed in    0.0 sec

Total number of grid points                  ...     6360
Total number of batches                      ...      103
Average number of points per batch           ...       61
Average number of grid points per atom       ...     1060
Average number of shells per batch           ...    32.00 (84.21%)
Average number of basis functions per batch  ...    73.29 (85.22%)
Average number of large shells per batch     ...    30.57 (95.54%)
Average number of large basis fcns per batch ...    70.29 (95.91%)
Maximum spatial batch extension              ...  16.26, 13.27, 15.15 au
Average spatial batch extension              ...   0.42,  0.39,  0.43 au

Time for grid setup =    5.798 sec

------------------------------
INITIAL GUESS: MODEL POTENTIAL
------------------------------
Loading Hartree-Fock densities                     ... done
Calculating cut-offs                               ... done
Setting up the integral package                    ... done
Initializing the effective Hamiltonian             ... done
Starting the Coulomb interaction                   ... done (   0.0 sec)
Reading the grid                                   ... done
Mapping shells                                     ... done
Starting the XC term evaluation                    ... done (   0.2 sec)
  promolecular density results
     # of electrons  =     17.998618108
     EX              =    -14.444968916
     EC              =     -0.577699153
     EX+EC           =    -15.022668069
Transforming the Hamiltonian                       ... done (   0.0 sec)
Diagonalizing the Hamiltonian                      ... done (   0.0 sec)
Back transforming the eigenvectors                 ... done (   0.0 sec)
Now organizing SCF variables                       ... done
                      ------------------
                      INITIAL GUESS DONE (   6.4 sec)
                      ------------------
--------------
SCF ITERATIONS
--------------
ITER       Energy         Delta-E        Max-DP      RMS-DP      [F,P]     Damp
               ***  Starting incremental Fock matrix formation  ***
  0   -115.6361016130   0.000000000000 0.03825766  0.00154742  0.2533463 0.7000
  1   -115.6759737886  -0.039872175549 0.02237308  0.00109426  0.1267744 0.7000
                               ***Turning on DIIS***
  2   -115.6942320467  -0.018258258155 0.03222994  0.00196350  0.0492590 0.0000
  3   -115.7236723738  -0.029440327091 0.01811380  0.00071358  0.0630868 0.0000
  4   -115.7286349014  -0.004962527569 0.00419213  0.00014095  0.0066287 0.0000
                      *** Initiating the SOSCF procedure ***
                           *** Shutting down DIIS ***
                      *** Re-Reading the Fockian *** 
                      *** Removing any level shift *** 
ITER      Energy       Delta-E        Grad      Rot      Max-DP    RMS-DP
  5   -115.72873523  -0.0001003299  0.000536  0.000536  0.000761  0.000049
               *** Restarting incremental Fock matrix formation ***
  6   -115.72874414  -0.0000089112  0.000134  0.000170  0.000469  0.000030
  7   -115.72874495  -0.0000008098  0.000039  0.000102  0.000237  0.000014
  8   -115.72874502  -0.0000000677  0.000025  0.000017  0.000037  0.000002
  9   -115.72874503  -0.0000000126  0.000011  0.000009  0.000018  0.000001
 10   -115.72874503  -0.0000000017  0.000003  0.000004  0.000005  0.000000
                  ***Gradient check signals convergence***
              ***Rediagonalizing the Fockian in SOSCF/NRSCF***

               *****************************************************
               *                     SUCCESS                       *
               *           SCF CONVERGED AFTER  11 CYCLES          *
               *****************************************************

Setting up the final grid:

General Integration Accuracy     IntAcc      ...  4.670
Radial Grid Type                 RadialGrid  ... Gauss-Chebyshev
Angular Grid (max. acc.)         AngularGrid ... Lebedev-302
Angular grid pruning method      GridPruning ... 3 (G Style)
Weight generation scheme         WeightScheme... Becke
Basis function cutoff            BFCut       ...    1.0000e-11
Integration weight cutoff        WCut        ...    1.0000e-14
Grids for H and He will be reduced by one unit

# of grid points (after initial pruning)     ...  26000 (   0.0 sec)
# of grid points (after weights+screening)   ...  25159 (   0.9 sec)
nearest neighbour list constructed           ...    0.0 sec
Grid point re-assignment to atoms done       ...    0.0 sec
Grid point division into batches done        ...    0.1 sec
Reduced shell lists constructed in    0.2 sec

Total number of grid points                  ...    25159
Total number of batches                      ...      397
Average number of points per batch           ...       63
Average number of grid points per atom       ...     4193
Average number of shells per batch           ...    31.82 (83.75%)
Average number of basis functions per batch  ...    72.73 (84.56%)
Average number of large shells per batch     ...    30.31 (95.26%)
Average number of large basis fcns per batch ...    69.76 (95.93%)
Maximum spatial batch extension              ...  17.86, 13.27, 16.88 au
Average spatial batch extension              ...   0.32,  0.27,  0.31 au

Final grid set up in    1.9 sec
Final integration                            ... done (   0.2 sec)
Change in XC energy                          ...     0.000003759
Integrated number of electrons               ...    18.000027891
Previous integrated no of electrons          ...    18.000131918

----------------
TOTAL SCF ENERGY
----------------

Total Energy       :         -115.72874128 Eh           -3149.13915 eV

Components:
Nuclear Repulsion  :           41.27179346 Eh            1123.06260 eV
Electronic Energy  :         -157.00053474 Eh           -4272.20174 eV
One Electron Energy:         -238.91966491 Eh           -6501.33460 eV
Two Electron Energy:           81.91913017 Eh            2229.13286 eV

Virial components:
Potential Energy   :         -231.07938669 Eh           -6287.98979 eV
Kinetic Energy     :          115.35064541 Eh            3138.85064 eV
Virial Ratio       :            2.00327780


DFT components:
N(Alpha)           :        9.000013945289 electrons
N(Beta)            :        9.000013945289 electrons
N(Total)           :       18.000027890578 electrons
E(XC)              :      -10.672840158521 Eh       
DFET-embed. en.    :        0.000000000000 Eh       

---------------
SCF CONVERGENCE
---------------

  Last Energy change         ...   -2.1535e-10  Tolerance :   1.0000e-08
  Last MAX-Density change    ...    2.0750e-06  Tolerance :   1.0000e-07
  Last RMS-Density change    ...    1.2592e-07  Tolerance :   5.0000e-09
  Last Orbital Gradient      ...    1.0931e-06  Tolerance :   1.0000e-05
  Last Orbital Rotation      ...    2.1155e-06  Tolerance :   1.0000e-05

             **** THE GBW FILE WAS UPDATED (119_charges.gbw) ****
             **** DENSITY FILE WAS UPDATED (119_charges.scfp.tmp) ****
             **** ENERGY FILE WAS UPDATED (119_charges.en.tmp) ****
----------------
ORBITAL ENERGIES
----------------

  NO   OCC          E(Eh)            E(eV) 
   0   2.0000     -19.224992      -523.1386 
   1   2.0000     -10.309132      -280.5257 
   2   2.0000      -1.150835       -31.3158 
   3   2.0000      -0.789950       -21.4956 
   4   2.0000      -0.612200       -16.6588 
   5   2.0000      -0.563544       -15.3348 
   6   2.0000      -0.531214       -14.4551 
   7   2.0000      -0.417431       -11.3589 
   8   2.0000      -0.370726       -10.0880 
   9   0.0000       0.113675         3.0933 
  10   0.0000       0.160454         4.3662 
  11   0.0000       0.199138         5.4188 
  12   0.0000       0.210074         5.7164 
  13   0.0000       0.222346         6.0504 
  14   0.0000       0.306954         8.3526 
  15   0.0000       0.311422         8.4742 
  16   0.0000       0.417400        11.3580 
  17   0.0000       0.456911        12.4332 
  18   0.0000       0.472587        12.8598 
  19   0.0000       0.537952        14.6384 
  20   0.0000       0.549127        14.9425 
  21   0.0000       0.558370        15.1940 
  22   0.0000       0.608165        16.5490 
  23   0.0000       0.621104        16.9011 
  24   0.0000       0.675050        18.3690 
  25   0.0000       0.789143        21.4737 
  26   0.0000       0.822327        22.3767 
  27   0.0000       0.875116        23.8131 
  28   0.0000       0.976679        26.5768 
  29   0.0000       1.019727        27.7482 
  30   0.0000       1.129736        30.7417 
  31   0.0000       1.374523        37.4027 
  32   0.0000       1.506468        40.9931 
  33   0.0000       1.544964        42.0406 
  34   0.0000       1.599662        43.5290 
  35   0.0000       1.605281        43.6819 
  36   0.0000       1.650315        44.9074 
  37   0.0000       1.673220        45.5306 
  38   0.0000       1.744601        47.4730 
  39   0.0000       1.756505        47.7969 
  40   0.0000       1.955142        53.2021 
  41   0.0000       2.004352        54.5412 
  42   0.0000       2.038337        55.4660 
  43   0.0000       2.116254        57.5862 
  44   0.0000       2.131717        58.0070 
  45   0.0000       2.287524        62.2467 
  46   0.0000       2.309184        62.8361 
  47   0.0000       2.352174        64.0059 
  48   0.0000       2.395767        65.1921 
  49   0.0000       2.428064        66.0710 
  50   0.0000       2.538047        69.0638 
  51   0.0000       2.566626        69.8414 
  52   0.0000       2.668484        72.6131 
  53   0.0000       2.677930        72.8702 
  54   0.0000       2.827618        76.9434 
  55   0.0000       2.874384        78.2160 
  56   0.0000       2.972773        80.8933 
  57   0.0000       2.998156        81.5840 
  58   0.0000       3.126978        85.0894 
  59   0.0000       3.191240        86.8380 
  60   0.0000       3.321392        90.3797 
  61   0.0000       3.419959        93.0618 
  62   0.0000       3.475418        94.5709 
  63   0.0000       3.518456        95.7420 
  64   0.0000       3.637330        98.9768 
  65   0.0000       3.663460        99.6878 
  66   0.0000       3.728933       101.4694 
  67   0.0000       4.012563       109.1874 
  68   0.0000       4.162852       113.2770 
  69   0.0000       4.236010       115.2677 
  70   0.0000       4.467609       121.5698 
  71   0.0000       4.568689       124.3204 
  72   0.0000       5.370588       146.1411 
  73   0.0000       5.453597       148.3999 
  74   0.0000       5.573231       151.6553 
  75   0.0000       5.879967       160.0020 
  76   0.0000       5.931554       161.4058 
  77   0.0000       6.056999       164.8193 
  78   0.0000       6.363669       173.1642 
  79   0.0000       6.545585       178.1144 
  80   0.0000       6.757114       183.8704 
  81   0.0000       6.863204       186.7573 
  82   0.0000       7.045956       191.7302 
  83   0.0000       7.233033       196.8208 
  84   0.0000      22.517370       612.7288 
  85   0.0000      43.703419      1189.2305 

                    ********************************
                    * MULLIKEN POPULATION ANALYSIS *
                    ********************************

-----------------------
MULLIKEN ATOMIC CHARGES
-----------------------
   0 C :   -0.146771
   1 O :   -0.470895
   2 H :    0.318643
   3 H :    0.091186
   4 H :    0.101487
   5 H :    0.106350
Sum of atomic charges:   -0.0000000

--------------------------------
MULLIKEN REDUCED ORBITAL CHARGES
--------------------------------
  0 C s       :     3.224350  s :     3.224350
      pz      :     1.032314  p :     2.809580
      px      :     1.038969
      py      :     0.738297
      dz2     :     0.009709  d :     0.104039
      dxz     :     0.011453
      dyz     :     0.031477
      dx2y2   :     0.015037
      dxy     :     0.036362
      f0      :     0.001090  f :     0.008802
      f+1     :     0.000989
      f-1     :     0.000948
      f+2     :     0.001212
      f-2     :     0.000789
      f+3     :     0.001547
      f-3     :     0.002227
  1 O s       :     3.785254  s :     3.785254
      pz      :     1.781761  p :     4.651256
      px      :     1.558157
      py      :     1.311338
      dz2     :     0.003606  d :     0.032565
      dxz     :     0.005466
      dyz     :     0.004893
      dx2y2   :     0.006886
      dxy     :     0.011714
      f0      :     0.000351  f :     0.001820
      f+1     :     0.000090
      f-1     :     0.000264
      f+2     :     0.000208
      f-2     :     0.000391
      f+3     :     0.000178
      f-3     :     0.000339
  2 H s       :     0.634975  s :     0.634975
      pz      :     0.017503  p :     0.046381
      px      :     0.015579
      py      :     0.013299
  3 H s       :     0.889921  s :     0.889921
      pz      :     0.010088  p :     0.018893
      px      :     0.004776
      py      :     0.004029
  4 H s       :     0.877480  s :     0.877480
      pz      :     0.010297  p :     0.021033
      px      :     0.007207
      py      :     0.003530
  5 H s       :     0.874701  s :     0.874701
      pz      :     0.004057  p :     0.018950
      px      :     0.008724
      py      :     0.006169


                     *******************************
                     * LOEWDIN POPULATION ANALYSIS *
                     *******************************

----------------------
LOEWDIN ATOMIC CHARGES
----------------------
   0 C :   -0.424009
   1 O :   -0.048358
   2 H :    0.175935
   3 H :    0.100020
   4 H :    0.083704
   5 H :    0.112707

-------------------------------
LOEWDIN REDUCED ORBITAL CHARGES
-------------------------------
  0 C s       :     2.859272  s :     2.859272
      pz      :     1.078807  p :     3.047718
      px      :     1.085655
      py      :     0.883257
      dz2     :     0.057563  d :     0.448569
      dxz     :     0.067886
      dyz     :     0.110521
      dx2y2   :     0.075205
      dxy     :     0.137394
      f0      :     0.008305  f :     0.068450
      f+1     :     0.003995
      f-1     :     0.011526
      f+2     :     0.010708
      f-2     :     0.004586
      f+3     :     0.013241
      f-3     :     0.016087
  1 O s       :     3.339044  s :     3.339044
      pz      :     1.688544  p :     4.622227
      px      :     1.557074
      py      :     1.376609
      dz2     :     0.006894  d :     0.081576
      dxz     :     0.008943
      dyz     :     0.018244
      dx2y2   :     0.016740
      dxy     :     0.030755
      f0      :     0.000766  f :     0.005511
      f+1     :     0.000122
      f-1     :     0.000597
      f+2     :     0.000656
      f-2     :     0.000947
      f+3     :     0.000892
      f-3     :     0.001530
  2 H s       :     0.670078  s :     0.670078
      pz      :     0.052064  p :     0.153987
      px      :     0.064808
      py      :     0.037115
  3 H s       :     0.844483  s :     0.844483
      pz      :     0.028788  p :     0.055497
      px      :     0.015061
      py      :     0.011647
  4 H s       :     0.848986  s :     0.848986
      pz      :     0.032126  p :     0.067310
      px      :     0.023738
      py      :     0.011446
  5 H s       :     0.833780  s :     0.833780
      pz      :     0.011650  p :     0.053512
      px      :     0.025830
      py      :     0.016032


                      *****************************
                      * MAYER POPULATION ANALYSIS *
                      *****************************

  NA   - Mulliken gross atomic population
  ZA   - Total nuclear charge
  QA   - Mulliken gross atomic charge
  VA   - Mayer's total valence
  BVA  - Mayer's bonded valence
  FA   - Mayer's free valence

  ATOM       NA         ZA         QA         VA         BVA        FA
  0 C      6.1468     6.0000    -0.1468     3.9507     3.9507    -0.0000
  1 O      8.4709     8.0000    -0.4709     1.8701     1.8701    -0.0000
  2 H      0.6814     1.0000     0.3186     0.9070     0.9070    -0.0000
  3 H      0.9088     1.0000     0.0912     0.9693     0.9693    -0.0000
  4 H      0.8985     1.0000     0.1015     0.9572     0.9572    -0.0000
  5 H      0.8937     1.0000     0.1063     0.9572     0.9572    -0.0000

  Mayer bond orders larger than 0.1
B(  0-C ,  1-O ) :   1.0011 B(  0-C ,  3-H ) :   0.9925 B(  0-C ,  4-H ) :   0.9772 
B(  0-C ,  5-H ) :   0.9703 B(  1-O ,  2-H ) :   0.8944 


------------------
HIRSHFELD ANALYSIS
------------------

Total integrated alpha density =      9.000065959
Total integrated beta density  =      9.000065959

  ATOM     CHARGE      SPIN    
   0 C    0.003626    0.000000
   1 O   -0.250183    0.000000
   2 H    0.165237    0.000000
   3 H    0.022302    0.000000
   4 H    0.024169    0.000000
   5 H    0.034717    0.000000

  TOTAL  -0.000132    0.000000

-------
TIMINGS
-------

Total SCF time: 0 days 0 hours 0 min 33 sec 

Total time                  ....      33.867 sec
Sum of individual times     ....      29.767 sec  ( 87.9%)

Fock matrix formation       ....      17.592 sec  ( 51.9%)
  XC integration            ....       4.323 sec  ( 24.6% of F)
    Basis function eval.    ....       0.049 sec  (  1.1% of XC)
    Density eval.           ....       0.058 sec  (  1.3% of XC)
    XC-Functional eval.     ....       0.080 sec  (  1.9% of XC)
    XC-Potential eval.      ....       0.035 sec  (  0.8% of XC)
Diagonalization             ....       0.763 sec  (  2.3%)
Density matrix formation    ....       1.630 sec  (  4.8%)
Population analysis         ....       0.392 sec  (  1.2%)
Initial guess               ....       0.567 sec  (  1.7%)
Orbital Transformation      ....       0.000 sec  (  0.0%)
Orbital Orthonormalization  ....       0.000 sec  (  0.0%)
DIIS solution               ....       0.302 sec  (  0.9%)
SOSCF solution              ....       0.849 sec  (  2.5%)
Grid generation             ....       7.670 sec  ( 22.6%)


-------------------------------------------------------------------------------
                          DFT DISPERSION CORRECTION                            
                                                                               
                              DFTD3 V3.1  Rev 1                                
                              USING zero damping                               
-------------------------------------------------------------------------------
The omegaB97X-D3 functional is recognized. Fit by Chai et al.
Active option DFTDOPT                   ...         3   

molecular C6(AA) [au] = 208.710661 


            DFT-D V3
 parameters
 s6 scaling factor         :     1.0000 
 rs6 scaling factor        :     1.2810 
 s8 scaling factor         :     1.0000 
 rs8 scaling factor        :     1.0940 
 Damping factor alpha6     :    14.0000 
 Damping factor alpha8     :    16.0000 
 ad hoc parameters k1-k3   :    16.0000     1.3333    -4.0000 

 Edisp/kcal,au: -0.127958714542  -0.000203915170 
 E6   /kcal   :  -0.026626730 
 E8   /kcal   :  -0.101331984 
 % E8         :  79.191155213 

-------------------------   ----------------
Dispersion correction           -0.000203915
-------------------------   ----------------


-------------------------   --------------------
FINAL SINGLE POINT ENERGY      -115.728945190958
-------------------------   --------------------


                            ***************************************
                            *     ORCA property calculations      *
                            ***************************************

                                    ---------------------
                                    Active property flags
                                    ---------------------
   (+) Dipole Moment


------------------------------------------------------------------------------
                       ORCA ELECTRIC PROPERTIES CALCULATION
------------------------------------------------------------------------------

Dipole Moment Calculation                       ... on
Quadrupole Moment Calculation                   ... off
Polarizability Calculation                      ... off
GBWName                                         ... 119_charges.gbw
Electron density file                           ... 119_charges.scfp.tmp
The origin for moment calculation is the CENTER OF MASS  = ( 9.948966, 18.670849 -0.774876)

-------------
DIPOLE MOMENT
-------------
                                X             Y             Z
Electronic contribution:     -0.57520       1.62637      -0.13580
Nuclear contribution   :      1.17175      -1.78001      -0.05614
                        -----------------------------------------
Total Dipole Moment    :      0.59655      -0.15364      -0.19194
                        -----------------------------------------
Magnitude (a.u.)       :      0.64523
Magnitude (Debye)      :      1.64004



--------------------
Rotational spectrum 
--------------------
 
Rotational constants in cm-1:     4.181433     0.890363     0.861861 
Rotational constants in MHz : 125356.203280 26692.423949 25837.951600 

 Dipole components along the rotational axes: 
x,y,z [a.u.] :     0.256352    -0.586708    -0.079847 
x,y,z [Debye]:     0.651595    -1.491293    -0.202955 

 
------------------------------------------------------------------------------
                      ORCA CHELPG CHARGES GENERATION
------------------------------------------------------------------------------

GBW file                           ... 119_charges.gbw

Reading the GBW file               ... done

Grid spacing                       ...     0.300000
Point Cut-Off                      ...     2.800000
Van-der-Waals Radii                ...        COSMO
Total charge                       ...            0


Number of points X direction       ...           23
Number of points Y direction       ...           26
Number of points Z direction       ...           24
Maximum number of possible points  ...        14352
Final number of points             ...         5847


CHELPG Charges            
--------------------------------
  0   C   :       0.024030
  1   O   :      -0.573590
  2   H   :       0.400552
  3   H   :       0.020071
  4   H   :       0.043442
  5   H   :       0.085494
--------------------------------
Total charge:     0.000000
--------------------------------

CHELPG charges calculated...

Timings for individual parts in CHELPG calculation:
Grid generation                 ...        0.001 sec (=   0.000 min)
Potential calculation           ...        0.951 sec (=   0.016 min)
Fit to the potential            ...        0.005 sec (=   0.000 min)
------------------------------------------------------------------------------


Timings for individual modules:

Sum of individual times         ...       43.496 sec (=   0.725 min)
GTO integral calculation        ...        4.485 sec (=   0.075 min)  10.3 %
SCF iterations                  ...       37.769 sec (=   0.629 min)  86.8 %
CHELPG charge generation        ...        1.242 sec (=   0.021 min)   2.9 %
                             ****ORCA TERMINATED NORMALLY****
TOTAL RUN TIME: 0 days 0 hours 0 minutes 45 seconds 347 msec
