
                                 *****************
                                 * O   R   C   A *
                                 *****************

           --- An Ab Initio, DFT and Semiempirical electronic structure package ---

                  #######################################################
                  #                        -***-                        #
                  #          Department of theory and spectroscopy      #
                  #               Directorship: Frank Neese             #
                  #        Max Planck Institute fuer Kohlenforschung    #
                  #                Kaiser Wilhelm Platz 1               #
                  #                 D-45470 Muelheim/Ruhr               #
                  #                      Germany                        #
                  #                                                     #
                  #                  All rights reserved                #
                  #                        -***-                        #
                  #######################################################


                         Program Version 4.1.2  - RELEASE  -


 With contributions from (in alphabetic order):
   Daniel Aravena         : Magnetic Properties
   Michael Atanasov       : Ab Initio Ligand Field Theory
   Alexander A. Auer      : GIAO ZORA
   Ute Becker             : Parallelization
   Giovanni Bistoni       : ED, Open-shell LED
   Martin Brehm           : Molecular dynamics
   Dmytro Bykov           : SCF Hessian
   Vijay G. Chilkuri      : MRCI spin determinant printing
   Dipayan Datta          : RHF DLPNO-CCSD density
   Achintya Kumar Dutta   : EOM-CC, STEOM-CC
   Dmitry Ganyushin       : Spin-Orbit,Spin-Spin,Magnetic field MRCI
   Miquel Garcia          : C-PCM Hessian
   Yang Guo               : DLPNO-NEVPT2, CIM, IAO-localization
   Andreas Hansen         : Spin unrestricted coupled pair/coupled cluster methods
   Benjamin Helmich-Paris : CASSCF linear response (MC-RPA)
   Lee Huntington         : MR-EOM, pCC
   Robert Izsak           : Overlap fitted RIJCOSX, COSX-SCS-MP3, EOM
   Christian Kollmar      : KDIIS, OOCD, Brueckner-CCSD(T), CCSD density
   Simone Kossmann        : Meta GGA functionals, TD-DFT gradient, OOMP2, MP2 Hessian
   Martin Krupicka        : AUTO-CI
   Lucas Lang             : DCDCAS
   Dagmar Lenk            : GEPOL surface, SMD
   Dimitrios Liakos       : Extrapolation schemes; parallel MDCI
   Dimitrios Manganas     : ROCIS; embedding schemes
   Dimitrios Pantazis     : SARC Basis sets
   Taras Petrenko         : DFT Hessian,TD-DFT gradient, ASA, ECA, R-Raman, ABS, FL, XAS/XES, NRVS
   Peter Pinski           : DLPNO-MP2, DLPNO-MP2 Gradient
   Christoph Reimann      : Effective Core Potentials
   Marius Retegan         : Local ZFS, SOC
   Christoph Riplinger    : Optimizer, TS searches, QM/MM, DLPNO-CCSD(T), (RO)-DLPNO pert. Triples
   Tobias Risthaus        : Range-separated hybrids, TD-DFT gradient, RPA, STAB
   Michael Roemelt        : Restricted open shell CIS
   Masaaki Saitow         : Open-shell DLPNO
   Barbara Sandhoefer     : DKH picture change effects
   Avijit Sen             : IP-ROCIS
   Kantharuban Sivalingam : CASSCF convergence, NEVPT2, FIC-MRCI
   Bernardo de Souza      : ESD, SOC TD-DFT
   Georgi Stoychev        : AutoAux, RI-MP2 NMR
   Willem Van den Heuvel  : Paramagnetic NMR
   Boris Wezisla          : Elementary symmetry handling
   Frank Wennmohs         : Technical directorship


 We gratefully acknowledge several colleagues who have allowed us to
 interface, adapt or use parts of their codes:
   Stefan Grimme, W. Hujo, H. Kruse,             : VdW corrections, initial TS optimization,
                  C. Bannwarth                     DFT functionals, gCP, sTDA/sTD-DF
   Ed Valeev                                     : LibInt (2-el integral package), F12 methods
   Garnet Chan, S. Sharma, J. Yang, R. Olivares  : DMRG
   Ulf Ekstrom                                   : XCFun DFT Library
   Mihaly Kallay                                 : mrcc  (arbitrary order and MRCC methods)
   Andreas Klamt, Michael Diedenhofen            : otool_cosmo (COSMO solvation model)
   Jiri Pittner, Ondrej Demel                    : Mk-CCSD
   Frank Weinhold                                : gennbo (NPA and NBO analysis)
   Christopher J. Cramer and Donald G. Truhlar   : smd solvation model
   Lars Goerigk                                  : TD-DFT with DH, B97 family of functionals
   V. Asgeirsson, H. Jonsson                     : NEB implementation
   FAccTs GmbH                                   : IRC, NEB, NEB-TS, Multilevel


 Your calculation uses the libint2 library for the computation of 2-el integrals
 For citations please refer to: http://libint.valeyev.net

 This ORCA versions uses:
   CBLAS   interface :  Fast vector & matrix operations
   LAPACKE interface :  Fast linear algebra routines
   SCALAPACK package :  Parallel linear algebra routines


Your calculation utilizes the atom-pairwise dispersion correction
with the zero-damping scheme (D30)
Cite in your paper:
S.Grimme, J.Antony, S.Ehrlich and H.Krieg, J.Chem.Phys., 132, (2010), 154104 
   

XCFun DFT library Copyright 2009-2010 Ulf Ekstrom and contributors.
See http://admol.org/xcfun for more information. This is free soft-
ware; see the source code for copying conditions. There is ABSOLUTELY
NO WARRANTY; not even for MERCHANTABILITY or FITNESS FOR A PARTICULAR
PURPOSE. For details see the documentation. Scientific users of this 
library should cite U. Ekstrom, L. Visscher, R. Bast, A. J. Thorvald-
sen and K. Ruud; J.Chem.Theor.Comp. 2010, DOI: 10.1021/ct100117s
XCFun Version 0.99 
----- Orbital basis set information -----
Your calculation utilizes the basis: def2-TZVP
   F. Weigend and R. Ahlrichs, Phys. Chem. Chem. Phys. 7, 3297 (2005).

================================================================================
                                        WARNINGS
                       Please study these warnings very carefully!
================================================================================


INFO   : the flag for use of LIBINT has been found!

Your calculation utilizes the atom-pairwise dispersion correction
with the zero-damping scheme (D30)
Cite in your paper:
S.Grimme, J.Antony, S.Ehrlich and H.Krieg, J.Chem.Phys., 132, (2010), 154104 
   

XCFun DFT library Copyright 2009-2010 Ulf Ekstrom and contributors.
See http://admol.org/xcfun for more information. This is free soft-
ware; see the source code for copying conditions. There is ABSOLUTELY
NO WARRANTY; not even for MERCHANTABILITY or FITNESS FOR A PARTICULAR
PURPOSE. For details see the documentation. Scientific users of this 
library should cite U. Ekstrom, L. Visscher, R. Bast, A. J. Thorvald-
sen and K. Ruud; J.Chem.Theor.Comp. 2010, DOI: 10.1021/ct100117s
XCFun Version 0.99 
----- Orbital basis set information -----
Your calculation utilizes the basis: def2-TZVP
   F. Weigend and R. Ahlrichs, Phys. Chem. Chem. Phys. 7, 3297 (2005).

================================================================================
                                        WARNINGS
                       Please study these warnings very carefully!
================================================================================


WARNING: MOInp is set but Guess=PModel. MOInp will be ignored!
         To read the initial guess from a file you must also specify
         'MORead' in the simple input or 'Guess MORead' in the %scf block


INFO   : the flag for use of LIBINT has been found!

Your calculation utilizes the atom-pairwise dispersion correction
with the zero-damping scheme (D30)
Cite in your paper:
S.Grimme, J.Antony, S.Ehrlich and H.Krieg, J.Chem.Phys., 132, (2010), 154104 
   

XCFun DFT library Copyright 2009-2010 Ulf Ekstrom and contributors.
See http://admol.org/xcfun for more information. This is free soft-
ware; see the source code for copying conditions. There is ABSOLUTELY
NO WARRANTY; not even for MERCHANTABILITY or FITNESS FOR A PARTICULAR
PURPOSE. For details see the documentation. Scientific users of this 
library should cite U. Ekstrom, L. Visscher, R. Bast, A. J. Thorvald-
sen and K. Ruud; J.Chem.Theor.Comp. 2010, DOI: 10.1021/ct100117s
XCFun Version 0.99 
----- Orbital basis set information -----
Your calculation utilizes the basis: def2-TZVP
   F. Weigend and R. Ahlrichs, Phys. Chem. Chem. Phys. 7, 3297 (2005).

================================================================================
                                        WARNINGS
                       Please study these warnings very carefully!
================================================================================


WARNING: MOInp is set but Guess=PModel. MOInp will be ignored!
         To read the initial guess from a file you must also specify
         'MORead' in the simple input or 'Guess MORead' in the %scf block


INFO   : the flag for use of LIBINT has been found!

================================================================================
                                       INPUT FILE
================================================================================
NAME = 9-80.in
|  1> #Run DFT-D3 single point of the dimer
|  2> ! wB97X-D3 def2-TZVP TIGHTSCF CHELPG PMODEL PAL8
|  3> 
|  4> %base "9-80_DFT_AB"
|  5> 
|  6> %scf
|  7> MaxIter 1000
|  8> end
|  9> 
| 10> * xyz 0 1
| 11>   C                      -6.988085            5.917320             -1.756806           
| 12>   O                      -5.841079            5.346315             -1.198149           
| 13>   H                      -6.238028            4.725105             -0.596400           
| 14>   H                      -7.469596            5.138823             -2.402609           
| 15>   H                      -7.670168            6.304700             -1.043612           
| 16>   H                      -6.732474            6.712058             -2.340388           
| 17>   C                      -3.561589            5.623391             -3.331351           
| 18>   O                      -3.120860            5.579767             -2.011548           
| 19>   H                      -3.818249            5.950726             -1.462350           
| 20>   H                      -3.094282            4.848925             -3.971790           
| 21>   H                      -4.606795            5.456275             -3.438757           
| 22>   H                      -3.368484            6.524600             -3.853765           
| 23> *
| 24> 
| 25> #Run DFT-D3 single point of the molecule with dimer basis set
| 26> $new_job
| 27> %base "9-80_DFT_A"
| 28> ! wB97X-D3 def2-TZVP TIGHTSCF CHELPG PMODEL
| 29> 
| 30> %scf
| 31> MaxIter 1000
| 32> end
| 33> 
| 34> * xyz 0 1
| 35>   C                      -6.988085            5.917320             -1.756806           
| 36>   O                      -5.841079            5.346315             -1.198149           
| 37>   H                      -6.238028            4.725105             -0.596400           
| 38>   H                      -7.469596            5.138823             -2.402609           
| 39>   H                      -7.670168            6.304700             -1.043612           
| 40>   H                      -6.732474            6.712058             -2.340388           
| 41>   C                    : -3.561589            5.623391             -3.331351           
| 42>   O                    : -3.120860            5.579767             -2.011548           
| 43>   H                    : -3.818249            5.950726             -1.462350           
| 44>   H                    : -3.094282            4.848925             -3.971790           
| 45>   H                    : -4.606795            5.456275             -3.438757           
| 46>   H                    : -3.368484            6.524600             -3.853765           
| 47> *
| 48> 
| 49> #Run DFT-D3 single point of the particle with dimer basis set
| 50> $new_job
| 51> %base "9-80_DFT_B"
| 52> ! wB97X-D3 def2-TZVP TIGHTSCF CHELPG PMODEL
| 53> 
| 54> %scf
| 55> MaxIter 1000
| 56> end
| 57> 
| 58> * xyz 0 1
| 59>   C                    : -6.988085            5.917320             -1.756806           
| 60>   O                    : -5.841079            5.346315             -1.198149           
| 61>   H                    : -6.238028            4.725105             -0.596400           
| 62>   H                    : -7.469596            5.138823             -2.402609           
| 63>   H                    : -7.670168            6.304700             -1.043612           
| 64>   H                    : -6.732474            6.712058             -2.340388           
| 65>   C                      -3.561589            5.623391             -3.331351           
| 66>   O                      -3.120860            5.579767             -2.011548           
| 67>   H                      -3.818249            5.950726             -1.462350           
| 68>   H                      -3.094282            4.848925             -3.971790           
| 69>   H                      -4.606795            5.456275             -3.438757           
| 70>   H                      -3.368484            6.524600             -3.853765           
| 71> *
| 72> 
| 73>                          ****END OF INPUT****
================================================================================


                 $$$$$$$$$$$$$$$$$$$$$$$$$$$$$$$$$$$$$$$$$$$$$$ 
                 $ THERE ARE  3 JOBS TO BE PROCESSED THIS RUN $
                 $$$$$$$$$$$$$$$$$$$$$$$$$$$$$$$$$$$$$$$$$$$$$$ 




                 $$$$$$$$$$$$$$$$  JOB NUMBER  1 $$$$$$$$$$$$$$


                       ****************************
                       * Single Point Calculation *
                       ****************************

---------------------------------
CARTESIAN COORDINATES (ANGSTROEM)
---------------------------------
  C     -6.988085    5.917320   -1.756806
  O     -5.841079    5.346315   -1.198149
  H     -6.238028    4.725105   -0.596400
  H     -7.469596    5.138823   -2.402609
  H     -7.670168    6.304700   -1.043612
  H     -6.732474    6.712058   -2.340388
  C     -3.561589    5.623391   -3.331351
  O     -3.120860    5.579767   -2.011548
  H     -3.818249    5.950726   -1.462350
  H     -3.094282    4.848925   -3.971790
  H     -4.606795    5.456275   -3.438757
  H     -3.368484    6.524600   -3.853765

----------------------------
CARTESIAN COORDINATES (A.U.)
----------------------------
  NO LB      ZA    FRAG     MASS         X           Y           Z
   0 C     6.0000    0    12.011  -13.205567   11.182114   -3.319882
   1 O     8.0000    0    15.999  -11.038040   10.103071   -2.264173
   2 H     1.0000    0     1.008  -11.788165    8.929154   -1.127033
   3 H     1.0000    0     1.008  -14.115491    9.710968   -4.540273
   4 H     1.0000    0     1.008  -14.494517   11.914156   -1.972141
   5 H     1.0000    0     1.008  -12.722532   12.683951   -4.422692
   6 C     6.0000    0    12.011   -6.730428   10.626669   -6.295341
   7 O     8.0000    0    15.999   -5.897571   10.544232   -3.801275
   8 H     1.0000    0     1.008   -7.215445   11.245242   -2.763441
   9 H     1.0000    0     1.008   -5.847346    9.163140   -7.505595
  10 H     1.0000    0     1.008   -8.705581   10.310865   -6.498309
  11 H     1.0000    0     1.008   -6.365512   12.329707   -7.282560

--------------------------------
INTERNAL COORDINATES (ANGSTROEM)
--------------------------------
 C      0   0   0     0.000000000000     0.00000000     0.00000000
 O      1   0   0     1.397772198074     0.00000000     0.00000000
 H      2   1   0     0.951615590300   100.20151453     0.00000000
 H      1   2   3     1.120255299893   107.41135691   290.01378383
 H      1   2   3     1.060163272767   114.10114611    54.03986184
 H      1   2   3     1.018584028291   109.98644826   171.93543650
 C      2   1   3     3.134229816507   106.77838788   153.40531770
 O      7   2   1     1.392129686353    65.30584098   152.57360819
 H      8   7   2     0.962070912254   107.43485250   330.77414927
 H      7   2   1     1.108302995632   129.65604114   252.93746683
 H      7   2   1     1.063917002744    48.72500860   325.34719170
 H      7   2   1     1.059426066369   122.91431315    46.63627199

---------------------------
INTERNAL COORDINATES (A.U.)
---------------------------
 C      0   0   0     0.000000000000     0.00000000     0.00000000
 O      1   0   0     2.641406651970     0.00000000     0.00000000
 H      2   1   0     1.798292850437   100.20151453     0.00000000
 H      1   2   3     2.116975716872   107.41135691   290.01378383
 H      1   2   3     2.003418242772   114.10114611    54.03986184
 H      1   2   3     1.924844857856   109.98644826   171.93543650
 C      2   1   3     5.922835993968   106.77838788   153.40531770
 O      7   2   1     2.630743850109    65.30584098   152.57360819
 H      8   7   2     1.818050545573   107.43485250   330.77414927
 H      7   2   1     2.094389135148   129.65604114   252.93746683
 H      7   2   1     2.010511764409    48.72500860   325.34719170
 H      7   2   1     2.002025124575   122.91431315    46.63627199

---------------------
BASIS SET INFORMATION
---------------------
There are 3 groups of distinct atoms

 Group   1 Type C   : 11s6p2d1f contracted to 5s3p2d1f pattern {62111/411/11/1}
 Group   2 Type O   : 11s6p2d1f contracted to 5s3p2d1f pattern {62111/411/11/1}
 Group   3 Type H   : 5s1p contracted to 3s1p pattern {311/1}

Atom   0C    basis set group =>   1
Atom   1O    basis set group =>   2
Atom   2H    basis set group =>   3
Atom   3H    basis set group =>   3
Atom   4H    basis set group =>   3
Atom   5H    basis set group =>   3
Atom   6C    basis set group =>   1
Atom   7O    basis set group =>   2
Atom   8H    basis set group =>   3
Atom   9H    basis set group =>   3
Atom  10H    basis set group =>   3
Atom  11H    basis set group =>   3


           ************************************************************
           *        Program running with 8 parallel MPI-processes     *
           *              working on a common directory               *
           ************************************************************
------------------------------------------------------------------------------
                           ORCA GTO INTEGRAL CALCULATION
------------------------------------------------------------------------------

                         BASIS SET STATISTICS AND STARTUP INFO

 # of primitive gaussian shells          ...  128
 # of primitive gaussian functions       ...  248
 # of contracted shells                  ...   76
 # of contracted basis functions         ...  172
 Highest angular momentum                ...    3
 Maximum contraction depth               ...    6
 Integral package used                   ... LIBINT
 Integral threshhold            Thresh   ...  2.500e-11
 Primitive cut-off              TCut     ...  2.500e-12


------------------------------ INTEGRAL EVALUATION ----------------------------


 * One electron integrals 
 Pre-screening matrix                    ... done
 Shell pair data                         ... done (   0.001 sec)



           ************************************************************
           *        Program running with 8 parallel MPI-processes     *
           *              working on a common directory               *
           ************************************************************
-------------------------------------------------------------------------------
                                 ORCA SCF
-------------------------------------------------------------------------------

------------
SCF SETTINGS
------------
Hamiltonian:
 Density Functional     Method          .... DFT(GTOs)
 Exchange Functional    Exchange        .... WB97X-D3
 Correlation Functional Correlation     .... WB97X-D3
 Gradients option       PostSCFGGA      .... off
 Hybrid DFT is turned on
   Fraction HF Exchange ScalHFX         ....  0.195728
   Scaling of DF-GGA-X  ScalDFX         ....  0.000000
   Scaling of DF-GGA-C  ScalDFC         ....  1.000000
   Scaling of DF-LDA-C  ScalLDAC        ....  1.000000
   Perturbative correction              ....  0.000000
   Density functional embedding theory  .... OFF
 Long-range corrected/Screened/Range-Separated Hybrid DFT is turned on
   Amount of maximum screened exact exchange              ....  0.804272
   Range separation parameter mu (erf(mu*r12)/r12)        ....  0.250000


General Settings:
 Integral files         IntName         .... 9-80_DFT_AB
 Hartree-Fock type      HFTyp           .... RHF
 Total Charge           Charge          ....    0
 Multiplicity           Mult            ....    1
 Number of Electrons    NEL             ....   36
 Basis Dimension        Dim             ....  172
 Nuclear Repulsion      ENuc            ....    132.4331736360 Eh

Convergence Acceleration:
 DIIS                   CNVDIIS         .... on
   Start iteration      DIISMaxIt       ....    12
   Startup error        DIISStart       ....  0.200000
   # of expansion vecs  DIISMaxEq       ....     5
   Bias factor          DIISBfac        ....   1.050
   Max. coefficient     DIISMaxC        ....  10.000
 Newton-Raphson         CNVNR           .... off
 SOSCF                  CNVSOSCF        .... on
   Start iteration      SOSCFMaxIt      ....   150
   Startup grad/error   SOSCFStart      ....  0.003300
 Level Shifting         CNVShift        .... on
   Level shift para.    LevelShift      ....    0.2500
   Turn off err/grad.   ShiftErr        ....    0.0010
 Zerner damping         CNVZerner       .... off
 Static damping         CNVDamp         .... on
   Fraction old density DampFac         ....    0.7000
   Max. Damping (<1)    DampMax         ....    0.9800
   Min. Damping (>=0)   DampMin         ....    0.0000
   Turn off err/grad.   DampErr         ....    0.1000
 Fernandez-Rico         CNVRico         .... off

SCF Procedure:
 Maximum # iterations   MaxIter         ....  1000
 SCF integral mode      SCFMode         .... Direct
   Integral package                     .... LIBINT
 Reset frequency        DirectResetFreq ....    20
 Integral Threshold     Thresh          ....  2.500e-11 Eh
 Primitive CutOff       TCut            ....  2.500e-12 Eh

Convergence Tolerance:
 Convergence Check Mode ConvCheckMode   .... Total+1el-Energy
 Convergence forced     ConvForced      .... 0
 Energy Change          TolE            ....  1.000e-08 Eh
 1-El. energy change                    ....  1.000e-05 Eh
 Orbital Gradient       TolG            ....  1.000e-05
 Orbital Rotation angle TolX            ....  1.000e-05
 DIIS Error             TolErr          ....  5.000e-07


Diagonalization of the overlap matrix:
Smallest eigenvalue                        ... 1.148e-03
Time for diagonalization                   ...    0.011 sec
Threshold for overlap eigenvalues          ... 1.000e-08
Number of eigenvalues below threshold      ... 0
Time for construction of square roots      ...    0.012 sec
Total time needed                          ...    0.023 sec

-------------------
DFT GRID GENERATION
-------------------

General Integration Accuracy     IntAcc      ...  4.340
Radial Grid Type                 RadialGrid  ... Gauss-Chebyshev
Angular Grid (max. acc.)         AngularGrid ... Lebedev-110
Angular grid pruning method      GridPruning ... 3 (G Style)
Weight generation scheme         WeightScheme... Becke
Basis function cutoff            BFCut       ...    1.0000e-11
Integration weight cutoff        WCut        ...    1.0000e-14
Grids for H and He will be reduced by one unit

# of grid points (after initial pruning)     ...  13096 (   0.0 sec)
# of grid points (after weights+screening)   ...  12453 (   0.0 sec)
nearest neighbour list constructed           ...    0.0 sec
Grid point re-assignment to atoms done       ...    0.0 sec
Grid point division into batches done        ...    0.0 sec
Reduced shell lists constructed in    0.0 sec

Total number of grid points                  ...    12453
Total number of batches                      ...      201
Average number of points per batch           ...       61
Average number of grid points per atom       ...     1038
Average number of shells per batch           ...    60.26 (79.29%)
Average number of basis functions per batch  ...   137.37 (79.87%)
Average number of large shells per batch     ...    51.00 (84.63%)
Average number of large basis fcns per batch ...   113.89 (82.91%)
Maximum spatial batch extension              ...   3.16,  3.83,  3.99 au
Average spatial batch extension              ...   0.21,  0.22,  0.21 au

Time for grid setup =    0.077 sec

------------------------------
INITIAL GUESS: MODEL POTENTIAL
------------------------------
Loading Hartree-Fock densities                     ... done
Calculating cut-offs                               ... done
Setting up the integral package                    ... done
Initializing the effective Hamiltonian             ... done
Starting the Coulomb interaction                   ... done (   0.0 sec)
Reading the grid                                   ... done
Mapping shells                                     ... done
Starting the XC term evaluation                    ... done (   0.0 sec)
  promolecular density results
     # of electrons  =     36.003185990
     EX              =    -28.906414794
     EC              =     -1.162000021
     EX+EC           =    -30.068414815
Transforming the Hamiltonian                       ... done (   0.0 sec)
Diagonalizing the Hamiltonian                      ... done (   0.0 sec)
Back transforming the eigenvectors                 ... done (   0.0 sec)
Now organizing SCF variables                       ... done
                      ------------------
                      INITIAL GUESS DONE (   0.2 sec)
                      ------------------
--------------
SCF ITERATIONS
--------------
ITER       Energy         Delta-E        Max-DP      RMS-DP      [F,P]     Damp
               ***  Starting incremental Fock matrix formation  ***
  0   -231.2946424405   0.000000000000 0.03734136  0.00106056  0.2448426 0.7000
  1   -231.3669689367  -0.072326496182 0.02228112  0.00076579  0.1234012 0.7000
                               ***Turning on DIIS***
  2   -231.4010950606  -0.034126123864 0.03722283  0.00142032  0.0481922 0.0000
  3   -231.4567453713  -0.055650310757 0.01824797  0.00049423  0.0608070 0.0000
  4   -231.4654655092  -0.008720137814 0.00408963  0.00009720  0.0061704 0.0000
                      *** Initiating the SOSCF procedure ***
                           *** Shutting down DIIS ***
                      *** Re-Reading the Fockian *** 
                      *** Removing any level shift *** 
ITER      Energy       Delta-E        Grad      Rot      Max-DP    RMS-DP
  5   -231.46564778  -0.0001822741  0.000399  0.000399  0.000985  0.000036
               *** Restarting incremental Fock matrix formation ***
  6   -231.46566577  -0.0000179854  0.000122  0.000238  0.000736  0.000022
  7   -231.46566757  -0.0000017972  0.000048  0.000146  0.000340  0.000010
  8   -231.46566773  -0.0000001623  0.000020  0.000018  0.000036  0.000001
  9   -231.46566775  -0.0000000202  0.000008  0.000005  0.000018  0.000001
 10   -231.46566775  -0.0000000023  0.000003  0.000004  0.000006  0.000000
                  ***Gradient check signals convergence***
              ***Rediagonalizing the Fockian in SOSCF/NRSCF***

               *****************************************************
               *                     SUCCESS                       *
               *           SCF CONVERGED AFTER  11 CYCLES          *
               *****************************************************

Setting up the final grid:

General Integration Accuracy     IntAcc      ...  4.670
Radial Grid Type                 RadialGrid  ... Gauss-Chebyshev
Angular Grid (max. acc.)         AngularGrid ... Lebedev-302
Angular grid pruning method      GridPruning ... 3 (G Style)
Weight generation scheme         WeightScheme... Becke
Basis function cutoff            BFCut       ...    1.0000e-11
Integration weight cutoff        WCut        ...    1.0000e-14
Grids for H and He will be reduced by one unit

# of grid points (after initial pruning)     ...  52000 (   0.0 sec)
# of grid points (after weights+screening)   ...  48860 (   0.0 sec)
nearest neighbour list constructed           ...    0.0 sec
Grid point re-assignment to atoms done       ...    0.0 sec
Grid point division into batches done        ...    0.2 sec
Reduced shell lists constructed in    0.2 sec

Total number of grid points                  ...    48860
Total number of batches                      ...      769
Average number of points per batch           ...       63
Average number of grid points per atom       ...     4072
Average number of shells per batch           ...    60.23 (79.26%)
Average number of basis functions per batch  ...   136.21 (79.19%)
Average number of large shells per batch     ...    50.50 (83.84%)
Average number of large basis fcns per batch ...   112.89 (82.88%)
Maximum spatial batch extension              ...   2.38,  3.57,  4.85 au
Average spatial batch extension              ...   0.13,  0.14,  0.14 au

Final grid set up in    0.2 sec
Final integration                            ... done (   0.1 sec)
Change in XC energy                          ...    -0.000522270
Integrated number of electrons               ...    35.999933359
Previous integrated no of electrons          ...    36.004437239

----------------
TOTAL SCF ENERGY
----------------

Total Energy       :         -231.46619002 Eh           -6298.51524 eV

Components:
Nuclear Repulsion  :          132.43317364 Eh            3603.68986 eV
Electronic Energy  :         -363.89936366 Eh           -9902.20510 eV
One Electron Energy:         -577.61203642 Eh          -15717.62258 eV
Two Electron Energy:          213.71267277 Eh            5815.41748 eV

Virial components:
Potential Energy   :         -462.26246841 Eh          -12578.80126 eV
Kinetic Energy     :          230.79627839 Eh            6280.28602 eV
Virial Ratio       :            2.00290261


DFT components:
N(Alpha)           :       17.999966679365 electrons
N(Beta)            :       17.999966679365 electrons
N(Total)           :       35.999933358731 electrons
E(XC)              :      -21.370593505103 Eh       
DFET-embed. en.    :        0.000000000000 Eh       

---------------
SCF CONVERGENCE
---------------

  Last Energy change         ...   -4.7027e-10  Tolerance :   1.0000e-08
  Last MAX-Density change    ...    2.6569e-06  Tolerance :   1.0000e-07
  Last RMS-Density change    ...    9.1810e-08  Tolerance :   5.0000e-09
  Last Orbital Gradient      ...    1.4142e-06  Tolerance :   1.0000e-05
  Last Orbital Rotation      ...    2.1634e-06  Tolerance :   1.0000e-05

             **** THE GBW FILE WAS UPDATED (9-80_DFT_AB.gbw) ****
             **** DENSITY FILE WAS UPDATED (9-80_DFT_AB.scfp.tmp) ****
             **** ENERGY FILE WAS UPDATED (9-80_DFT_AB.en.tmp) ****
----------------
ORBITAL ENERGIES
----------------

  NO   OCC          E(Eh)            E(eV) 
   0   2.0000     -19.250401      -523.8300 
   1   2.0000     -19.206542      -522.6366 
   2   2.0000     -10.316212      -280.7184 
   3   2.0000     -10.286866      -279.9199 
   4   2.0000      -1.168266       -31.7901 
   5   2.0000      -1.118116       -30.4255 
   6   2.0000      -0.815824       -22.1997 
   7   2.0000      -0.780957       -21.2509 
   8   2.0000      -0.636261       -17.3135 
   9   2.0000      -0.598020       -16.2730 
  10   2.0000      -0.566853       -15.4248 
  11   2.0000      -0.549648       -14.9567 
  12   2.0000      -0.522656       -14.2222 
  13   2.0000      -0.509418       -13.8620 
  14   2.0000      -0.462969       -12.5980 
  15   2.0000      -0.411003       -11.1840 
  16   2.0000      -0.391458       -10.6521 
  17   2.0000      -0.351988        -9.5781 
  18   0.0000       0.099320         2.7026 
  19   0.0000       0.142989         3.8909 
  20   0.0000       0.158636         4.3167 
  21   0.0000       0.178826         4.8661 
  22   0.0000       0.188217         5.1217 
  23   0.0000       0.206831         5.6281 
  24   0.0000       0.214021         5.8238 
  25   0.0000       0.222787         6.0623 
  26   0.0000       0.238661         6.4943 
  27   0.0000       0.253227         6.8906 
  28   0.0000       0.305321         8.3082 
  29   0.0000       0.324262         8.8236 
  30   0.0000       0.332788         9.0556 
  31   0.0000       0.370667        10.0864 
  32   0.0000       0.427247        11.6260 
  33   0.0000       0.438390        11.9292 
  34   0.0000       0.449014        12.2183 
  35   0.0000       0.477126        12.9833 
  36   0.0000       0.485126        13.2009 
  37   0.0000       0.507150        13.8002 
  38   0.0000       0.527194        14.3457 
  39   0.0000       0.550739        14.9864 
  40   0.0000       0.554517        15.0892 
  41   0.0000       0.572493        15.5783 
  42   0.0000       0.594533        16.1781 
  43   0.0000       0.615485        16.7482 
  44   0.0000       0.630011        17.1435 
  45   0.0000       0.637289        17.3415 
  46   0.0000       0.644009        17.5244 
  47   0.0000       0.671466        18.2715 
  48   0.0000       0.702762        19.1231 
  49   0.0000       0.733474        19.9588 
  50   0.0000       0.782945        21.3050 
  51   0.0000       0.800637        21.7864 
  52   0.0000       0.834076        22.6964 
  53   0.0000       0.863880        23.5074 
  54   0.0000       0.898373        24.4460 
  55   0.0000       0.955244        25.9935 
  56   0.0000       0.970730        26.4149 
  57   0.0000       1.022867        27.8336 
  58   0.0000       1.037690        28.2370 
  59   0.0000       1.082155        29.4469 
  60   0.0000       1.109099        30.1801 
  61   0.0000       1.153540        31.3894 
  62   0.0000       1.406685        38.2778 
  63   0.0000       1.457064        39.6487 
  64   0.0000       1.491212        40.5779 
  65   0.0000       1.528292        41.5869 
  66   0.0000       1.539027        41.8791 
  67   0.0000       1.586723        43.1769 
  68   0.0000       1.615153        43.9506 
  69   0.0000       1.618097        44.0307 
  70   0.0000       1.625053        44.2199 
  71   0.0000       1.637551        44.5600 
  72   0.0000       1.651578        44.9417 
  73   0.0000       1.659949        45.1695 
  74   0.0000       1.692521        46.0558 
  75   0.0000       1.698147        46.2089 
  76   0.0000       1.724807        46.9344 
  77   0.0000       1.745936        47.5093 
  78   0.0000       1.811652        49.2976 
  79   0.0000       1.847829        50.2820 
  80   0.0000       1.967726        53.5445 
  81   0.0000       1.983702        53.9793 
  82   0.0000       2.017650        54.9030 
  83   0.0000       2.047492        55.7151 
  84   0.0000       2.063753        56.1576 
  85   0.0000       2.096984        57.0618 
  86   0.0000       2.110925        57.4412 
  87   0.0000       2.125251        57.8310 
  88   0.0000       2.146776        58.4167 
  89   0.0000       2.216426        60.3120 
  90   0.0000       2.262395        61.5629 
  91   0.0000       2.307357        62.7864 
  92   0.0000       2.337641        63.6104 
  93   0.0000       2.356680        64.1285 
  94   0.0000       2.381462        64.8029 
  95   0.0000       2.392687        65.1083 
  96   0.0000       2.421820        65.9011 
  97   0.0000       2.441936        66.4485 
  98   0.0000       2.471540        67.2540 
  99   0.0000       2.506529        68.2061 
 100   0.0000       2.557786        69.6009 
 101   0.0000       2.585470        70.3542 
 102   0.0000       2.614846        71.1536 
 103   0.0000       2.645297        71.9822 
 104   0.0000       2.664666        72.5093 
 105   0.0000       2.705465        73.6194 
 106   0.0000       2.745740        74.7154 
 107   0.0000       2.783020        75.7298 
 108   0.0000       2.815846        76.6231 
 109   0.0000       2.845571        77.4319 
 110   0.0000       2.887795        78.5809 
 111   0.0000       2.925151        79.5974 
 112   0.0000       2.949736        80.2664 
 113   0.0000       2.962673        80.6184 
 114   0.0000       2.999243        81.6136 
 115   0.0000       3.047659        82.9310 
 116   0.0000       3.119292        84.8803 
 117   0.0000       3.143307        85.5337 
 118   0.0000       3.214919        87.4824 
 119   0.0000       3.266949        88.8982 
 120   0.0000       3.296705        89.7079 
 121   0.0000       3.340601        90.9024 
 122   0.0000       3.377696        91.9118 
 123   0.0000       3.404915        92.6524 
 124   0.0000       3.442039        93.6627 
 125   0.0000       3.492107        95.0251 
 126   0.0000       3.512777        95.5875 
 127   0.0000       3.594210        97.8034 
 128   0.0000       3.632164        98.8362 
 129   0.0000       3.646136        99.2164 
 130   0.0000       3.665545        99.7445 
 131   0.0000       3.682692       100.2112 
 132   0.0000       3.705357       100.8279 
 133   0.0000       3.713471       101.0487 
 134   0.0000       4.037078       109.8545 
 135   0.0000       4.063879       110.5838 
 136   0.0000       4.227164       115.0270 
 137   0.0000       4.295924       116.8980 
 138   0.0000       4.388485       119.4168 
 139   0.0000       4.423592       120.3721 
 140   0.0000       4.443294       120.9082 
 141   0.0000       4.501027       122.4792 
 142   0.0000       4.543629       123.6384 
 143   0.0000       4.597618       125.1075 
 144   0.0000       5.368402       146.0817 
 145   0.0000       5.393522       146.7652 
 146   0.0000       5.472306       148.9090 
 147   0.0000       5.501181       149.6948 
 148   0.0000       5.522272       150.2687 
 149   0.0000       5.605003       152.5199 
 150   0.0000       5.759313       156.7189 
 151   0.0000       5.837388       158.8434 
 152   0.0000       5.862195       159.5184 
 153   0.0000       5.895597       160.4273 
 154   0.0000       6.041569       164.3995 
 155   0.0000       6.047131       164.5508 
 156   0.0000       6.360951       173.0903 
 157   0.0000       6.372441       173.4029 
 158   0.0000       6.528390       177.6465 
 159   0.0000       6.555382       178.3810 
 160   0.0000       6.781127       184.5239 
 161   0.0000       6.809574       185.2979 
 162   0.0000       6.821905       185.6335 
 163   0.0000       6.843062       186.2092 
 164   0.0000       7.015304       190.8961 
 165   0.0000       7.074016       192.4938 
 166   0.0000       7.211693       196.2401 
 167   0.0000       7.262367       197.6190 
 168   0.0000      22.560578       613.9045 
 169   0.0000      22.582035       614.4884 
 170   0.0000      43.682980      1188.6743 
 171   0.0000      43.716951      1189.5987 

                    ********************************
                    * MULLIKEN POPULATION ANALYSIS *
                    ********************************

-----------------------
MULLIKEN ATOMIC CHARGES
-----------------------
   0 C :   -0.191552
   1 O :   -0.485244
   2 H :    0.325983
   3 H :    0.111605
   4 H :    0.119905
   5 H :    0.130578
   6 C :   -0.152044
   7 O :   -0.470244
   8 H :    0.321396
   9 H :    0.101193
  10 H :    0.092723
  11 H :    0.095702
Sum of atomic charges:   -0.0000000

--------------------------------
MULLIKEN REDUCED ORBITAL CHARGES
--------------------------------
  0 C s       :     3.224858  s :     3.224858
      pz      :     1.026943  p :     2.864219
      px      :     0.816581
      py      :     1.020696
      dz2     :     0.014034  d :     0.094637
      dxz     :     0.020908
      dyz     :     0.017011
      dx2y2   :     0.022075
      dxy     :     0.020609
      f0      :     0.000237  f :     0.007838
      f+1     :     0.001582
      f-1     :     0.000430
      f+2     :     0.001478
      f-2     :     0.001695
      f+3     :     0.001571
      f-3     :     0.000845
  1 O s       :     3.802728  s :     3.802728
      pz      :     1.606935  p :     4.648699
      px      :     1.462303
      py      :     1.579461
      dz2     :     0.003183  d :     0.032142
      dxz     :     0.008430
      dyz     :     0.004989
      dx2y2   :     0.007135
      dxy     :     0.008405
      f0      :     0.000238  f :     0.001675
      f+1     :     0.000143
      f-1     :     0.000253
      f+2     :     0.000193
      f-2     :     0.000523
      f+3     :     0.000182
      f-3     :     0.000143
  2 H s       :     0.625907  s :     0.625907
      pz      :     0.017753  p :     0.048110
      px      :     0.012909
      py      :     0.017448
  3 H s       :     0.869653  s :     0.869653
      pz      :     0.006744  p :     0.018742
      px      :     0.004661
      py      :     0.007338
  4 H s       :     0.859830  s :     0.859830
      pz      :     0.007288  p :     0.020264
      px      :     0.007202
      py      :     0.005775
  5 H s       :     0.847416  s :     0.847416
      pz      :     0.007978  p :     0.022006
      px      :     0.004264
      py      :     0.009764
  6 C s       :     3.198214  s :     3.198214
      pz      :     0.747985  p :     2.841414
      px      :     1.026712
      py      :     1.066716
      dz2     :     0.014210  d :     0.104591
      dxz     :     0.029259
      dyz     :     0.047681
      dx2y2   :     0.011674
      dxy     :     0.001767
      f0      :     0.002168  f :     0.007826
      f+1     :     0.002063
      f-1     :     0.002075
      f+2     :     0.000465
      f-2     :     0.000689
      f+3     :     0.000269
      f-3     :     0.000098
  7 O s       :     3.785656  s :     3.785656
      pz      :     1.250055  p :     4.652875
      px      :     1.591705
      py      :     1.811115
      dz2     :     0.006214  d :     0.030036
      dxz     :     0.011243
      dyz     :     0.005061
      dx2y2   :     0.003090
      dxy     :     0.004428
      f0      :     0.000464  f :     0.001677
      f+1     :     0.000249
      f-1     :     0.000242
      f+2     :     0.000198
      f-2     :     0.000274
      f+3     :     0.000054
      f-3     :     0.000197
  8 H s       :     0.629658  s :     0.629658
      pz      :     0.014004  p :     0.048946
      px      :     0.018298
      py      :     0.016644
  9 H s       :     0.878926  s :     0.878926
      pz      :     0.005980  p :     0.019882
      px      :     0.005513
      py      :     0.008389
 10 H s       :     0.886380  s :     0.886380
      pz      :     0.003125  p :     0.020897
      px      :     0.012591
      py      :     0.005181
 11 H s       :     0.883416  s :     0.883416
      pz      :     0.005726  p :     0.020881
      px      :     0.005014
      py      :     0.010141


                     *******************************
                     * LOEWDIN POPULATION ANALYSIS *
                     *******************************

----------------------
LOEWDIN ATOMIC CHARGES
----------------------
   0 C :   -0.389998
   1 O :   -0.050159
   2 H :    0.175177
   3 H :    0.107034
   4 H :    0.093922
   5 H :    0.091504
   6 C :   -0.409006
   7 O :   -0.058085
   8 H :    0.162890
   9 H :    0.106383
  10 H :    0.086928
  11 H :    0.083409

-------------------------------
LOEWDIN REDUCED ORBITAL CHARGES
-------------------------------
  0 C s       :     2.840552  s :     2.840552
      pz      :     1.062291  p :     3.063784
      px      :     0.937654
      py      :     1.063839
      dz2     :     0.042505  d :     0.424676
      dxz     :     0.113093
      dyz     :     0.080778
      dx2y2   :     0.087226
      dxy     :     0.101073
      f0      :     0.005830  f :     0.060985
      f+1     :     0.012318
      f-1     :     0.004870
      f+2     :     0.007913
      f-2     :     0.007145
      f+3     :     0.013502
      f-3     :     0.009408
  1 O s       :     3.358148  s :     3.358148
      pz      :     1.552466  p :     4.612227
      px      :     1.528034
      py      :     1.531727
      dz2     :     0.008384  d :     0.074543
      dxz     :     0.017452
      dyz     :     0.014561
      dx2y2   :     0.016834
      dxy     :     0.017311
      f0      :     0.000487  f :     0.005241
      f+1     :     0.000795
      f-1     :     0.000338
      f+2     :     0.000579
      f-2     :     0.001346
      f+3     :     0.001065
      f-3     :     0.000632
  2 H s       :     0.663796  s :     0.663796
      pz      :     0.056894  p :     0.161028
      px      :     0.047060
      py      :     0.057074
  3 H s       :     0.837418  s :     0.837418
      pz      :     0.019926  p :     0.055548
      px      :     0.013591
      py      :     0.022031
  4 H s       :     0.840248  s :     0.840248
      pz      :     0.024037  p :     0.065831
      px      :     0.022732
      py      :     0.019062
  5 H s       :     0.836386  s :     0.836386
      pz      :     0.025483  p :     0.072110
      px      :     0.014885
      py      :     0.031742
  6 C s       :     2.837643  s :     2.837643
      pz      :     0.877920  p :     3.073908
      px      :     1.084783
      py      :     1.111204
      dz2     :     0.096182  d :     0.437742
      dxz     :     0.108009
      dyz     :     0.163352
      dx2y2   :     0.056049
      dxy     :     0.014151
      f0      :     0.014951  f :     0.059712
      f+1     :     0.016722
      f-1     :     0.012938
      f+2     :     0.003972
      f-2     :     0.007780
      f+3     :     0.002120
      f-3     :     0.001230
  7 O s       :     3.350901  s :     3.350901
      pz      :     1.321104  p :     4.630244
      px      :     1.584504
      py      :     1.724637
      dz2     :     0.018380  d :     0.072103
      dxz     :     0.028446
      dyz     :     0.016641
      dx2y2   :     0.003369
      dxy     :     0.005268
      f0      :     0.001393  f :     0.004837
      f+1     :     0.000874
      f-1     :     0.000869
      f+2     :     0.000636
      f-2     :     0.000769
      f+3     :     0.000022
      f-3     :     0.000274
  8 H s       :     0.675241  s :     0.675241
      pz      :     0.040229  p :     0.161869
      px      :     0.069119
      py      :     0.052521
  9 H s       :     0.836917  s :     0.836917
      pz      :     0.015998  p :     0.056700
      px      :     0.016357
      py      :     0.024345
 10 H s       :     0.847120  s :     0.847120
      pz      :     0.010946  p :     0.065951
      px      :     0.038031
      py      :     0.016974
 11 H s       :     0.850688  s :     0.850688
      pz      :     0.017152  p :     0.065903
      px      :     0.016491
      py      :     0.032259


                      *****************************
                      * MAYER POPULATION ANALYSIS *
                      *****************************

  NA   - Mulliken gross atomic population
  ZA   - Total nuclear charge
  QA   - Mulliken gross atomic charge
  VA   - Mayer's total valence
  BVA  - Mayer's bonded valence
  FA   - Mayer's free valence

  ATOM       NA         ZA         QA         VA         BVA        FA
  0 C      6.1916     6.0000    -0.1916     3.8976     3.8976    -0.0000
  1 O      8.4852     8.0000    -0.4852     1.8878     1.8878     0.0000
  2 H      0.6740     1.0000     0.3260     0.9068     0.9068    -0.0000
  3 H      0.8884     1.0000     0.1116     0.9638     0.9638    -0.0000
  4 H      0.8801     1.0000     0.1199     0.9590     0.9590    -0.0000
  5 H      0.8694     1.0000     0.1306     0.9581     0.9581     0.0000
  6 C      6.1520     6.0000    -0.1520     3.9727     3.9727    -0.0000
  7 O      8.4702     8.0000    -0.4702     1.8939     1.8939    -0.0000
  8 H      0.6786     1.0000     0.3214     0.9264     0.9264     0.0000
  9 H      0.8988     1.0000     0.1012     0.9591     0.9591     0.0000
 10 H      0.9073     1.0000     0.0927     0.9426     0.9426     0.0000
 11 H      0.9043     1.0000     0.0957     0.9490     0.9490    -0.0000

  Mayer bond orders larger than 0.1
B(  0-C ,  1-O ) :   0.9631 B(  0-C ,  3-H ) :   0.9820 B(  0-C ,  4-H ) :   0.9708 
B(  0-C ,  5-H ) :   0.9778 B(  1-O ,  2-H ) :   0.8970 B(  6-C ,  7-O ) :   1.0207 
B(  6-C ,  9-H ) :   0.9778 B(  6-C , 10-H ) :   0.9774 B(  6-C , 11-H ) :   0.9806 
B(  7-O ,  8-H ) :   0.8807 

-------
TIMINGS
-------

Total SCF time: 0 days 0 hours 0 min 11 sec 

Total time                  ....      11.750 sec
Sum of individual times     ....      11.327 sec  ( 96.4%)

Fock matrix formation       ....      10.755 sec  ( 91.5%)
  XC integration            ....       0.762 sec  (  7.1% of F)
    Basis function eval.    ....       0.068 sec  (  8.9% of XC)
    Density eval.           ....       0.061 sec  (  8.0% of XC)
    XC-Functional eval.     ....       0.089 sec  ( 11.7% of XC)
    XC-Potential eval.      ....       0.079 sec  ( 10.3% of XC)
Diagonalization             ....       0.046 sec  (  0.4%)
Density matrix formation    ....       0.008 sec  (  0.1%)
Population analysis         ....       0.015 sec  (  0.1%)
Initial guess               ....       0.141 sec  (  1.2%)
Orbital Transformation      ....       0.000 sec  (  0.0%)
Orbital Orthonormalization  ....       0.000 sec  (  0.0%)
DIIS solution               ....       0.021 sec  (  0.2%)
SOSCF solution              ....       0.026 sec  (  0.2%)
Grid generation             ....       0.314 sec  (  2.7%)


-------------------------------------------------------------------------------
                          DFT DISPERSION CORRECTION                            
                                                                               
                              DFTD3 V3.1  Rev 1                                
                              USING zero damping                               
-------------------------------------------------------------------------------
The omegaB97X-D3 functional is recognized. Fit by Chai et al.
Active option DFTDOPT                   ...         3   

molecular C6(AA) [au] = 834.378906 


            DFT-D V3
 parameters
 s6 scaling factor         :     1.0000 
 rs6 scaling factor        :     1.2810 
 s8 scaling factor         :     1.0000 
 rs8 scaling factor        :     1.0940 
 Damping factor alpha6     :    14.0000 
 Damping factor alpha8     :    16.0000 
 ad hoc parameters k1-k3   :    16.0000     1.3333    -4.0000 

 Edisp/kcal,au: -1.297187219462  -0.002067199197 
 E6   /kcal   :  -0.545038798 
 E8   /kcal   :  -0.752148422 
 % E8         :  57.983027449 

-------------------------   ----------------
Dispersion correction           -0.002067199
-------------------------   ----------------


-------------------------   --------------------
FINAL SINGLE POINT ENERGY      -231.468257220310
-------------------------   --------------------


                            ***************************************
                            *     ORCA property calculations      *
                            ***************************************

                                    ---------------------
                                    Active property flags
                                    ---------------------
   (+) Dipole Moment


------------------------------------------------------------------------------
                       ORCA ELECTRIC PROPERTIES CALCULATION
------------------------------------------------------------------------------

Dipole Moment Calculation                       ... on
Quadrupole Moment Calculation                   ... off
Polarizability Calculation                      ... off
GBWName                                         ... 9-80_DFT_AB.gbw
Electron density file                           ... 9-80_DFT_AB.scfp.tmp
The origin for moment calculation is the CENTER OF MASS  = (-9.242692, 10.599510 -3.884441)

-------------
DIPOLE MOMENT
-------------
                                X             Y             Z
Electronic contribution:      2.13608      -0.65629       2.59462
Nuclear contribution   :     -3.61852       0.73596      -2.48711
                        -----------------------------------------
Total Dipole Moment    :     -1.48244       0.07967       0.10751
                        -----------------------------------------
Magnitude (a.u.)       :      1.48847
Magnitude (Debye)      :      3.78339



--------------------
Rotational spectrum 
--------------------
 
Rotational constants in cm-1:     0.495620     0.089608     0.079732 
Rotational constants in MHz : 14858.307614  2686.373508  2390.319225 

 Dipole components along the rotational axes: 
x,y,z [a.u.] :     1.434280    -0.395822     0.041296 
x,y,z [Debye]:     3.645650    -1.006100     0.104966 

 
------------------------------------------------------------------------------
                      ORCA CHELPG CHARGES GENERATION
------------------------------------------------------------------------------

GBW file                           ... 9-80_DFT_AB.gbw

Reading the GBW file               ... done

Grid spacing                       ...     0.300000
Point Cut-Off                      ...     2.800000
Van-der-Waals Radii                ...        COSMO
Total charge                       ...            0


Number of points X direction       ...           33
Number of points Y direction       ...           25
Number of points Z direction       ...           29
Maximum number of possible points  ...        23925
Final number of points             ...         9402


CHELPG Charges            
--------------------------------
  0   C   :       0.051868
  1   O   :      -0.559017
  2   H   :       0.396147
  3   H   :       0.023774
  4   H   :       0.028785
  5   H   :       0.084686
  6   C   :       0.317622
  7   O   :      -0.660844
  8   H   :       0.400010
  9   H   :       0.000305
 10   H   :      -0.046264
 11   H   :      -0.037073
--------------------------------
Total charge:    -0.000000
--------------------------------

CHELPG charges calculated...

Timings for individual parts in CHELPG calculation:
Grid generation                 ...        0.001 sec (=   0.000 min)
Potential calculation           ...        2.133 sec (=   0.036 min)
Fit to the potential            ...        0.003 sec (=   0.000 min)
------------------------------------------------------------------------------


Timings for individual modules:

Sum of individual times         ...       19.938 sec (=   0.332 min)
GTO integral calculation        ...        3.176 sec (=   0.053 min)  15.9 %
SCF iterations                  ...       14.590 sec (=   0.243 min)  73.2 %
CHELPG charge generation        ...        2.172 sec (=   0.036 min)  10.9 %


                 $$$$$$$$$$$$$$$$  JOB NUMBER  2 $$$$$$$$$$$$$$


                       ****************************
                       * Single Point Calculation *
                       ****************************

---------------------------------
CARTESIAN COORDINATES (ANGSTROEM)
---------------------------------
  C     -6.988085    5.917320   -1.756806
  O     -5.841079    5.346315   -1.198149
  H     -6.238028    4.725105   -0.596400
  H     -7.469596    5.138823   -2.402609
  H     -7.670168    6.304700   -1.043612
  H     -6.732474    6.712058   -2.340388
  C     -3.561589    5.623391   -3.331351
  O     -3.120860    5.579767   -2.011548
  H     -3.818249    5.950726   -1.462350
  H     -3.094282    4.848925   -3.971790
  H     -4.606795    5.456275   -3.438757
  H     -3.368484    6.524600   -3.853765

----------------------------
CARTESIAN COORDINATES (A.U.)
----------------------------
  NO LB      ZA    FRAG     MASS         X           Y           Z
   0 C     6.0000    0    12.011  -13.205567   11.182114   -3.319882
   1 O     8.0000    0    15.999  -11.038040   10.103071   -2.264173
   2 H     1.0000    0     1.008  -11.788165    8.929154   -1.127033
   3 H     1.0000    0     1.008  -14.115491    9.710968   -4.540273
   4 H     1.0000    0     1.008  -14.494517   11.914156   -1.972141
   5 H     1.0000    0     1.008  -12.722532   12.683951   -4.422692
   6 C     0.0000    0     0.000   -6.730428   10.626669   -6.295341
   7 O     0.0000    0     0.000   -5.897571   10.544232   -3.801275
   8 H     0.0000    0     0.000   -7.215445   11.245242   -2.763441
   9 H     0.0000    0     0.000   -5.847346    9.163140   -7.505595
  10 H     0.0000    0     0.000   -8.705581   10.310865   -6.498309
  11 H     0.0000    0     0.000   -6.365512   12.329707   -7.282560

--------------------------------
INTERNAL COORDINATES (ANGSTROEM)
--------------------------------
 C      0   0   0     0.000000000000     0.00000000     0.00000000
 O      1   0   0     1.397772198074     0.00000000     0.00000000
 H      2   1   0     0.951615590300   100.20151453     0.00000000
 H      1   2   3     1.120255299893   107.41135691   290.01378383
 H      1   2   3     1.060163272767   114.10114611    54.03986184
 H      1   2   3     1.018584028291   109.98644826   171.93543650
 C      2   1   3     3.134229816507   106.77838788   153.40531770
 O      7   2   1     1.392129686353    65.30584098   152.57360819
 H      8   7   2     0.962070912254   107.43485250   330.77414927
 H      7   2   1     1.108302995632   129.65604114   252.93746683
 H      7   2   1     1.063917002744    48.72500860   325.34719170
 H      7   2   1     1.059426066369   122.91431315    46.63627199

---------------------------
INTERNAL COORDINATES (A.U.)
---------------------------
 C      0   0   0     0.000000000000     0.00000000     0.00000000
 O      1   0   0     2.641406651970     0.00000000     0.00000000
 H      2   1   0     1.798292850437   100.20151453     0.00000000
 H      1   2   3     2.116975716872   107.41135691   290.01378383
 H      1   2   3     2.003418242772   114.10114611    54.03986184
 H      1   2   3     1.924844857856   109.98644826   171.93543650
 C      2   1   3     5.922835993968   106.77838788   153.40531770
 O      7   2   1     2.630743850109    65.30584098   152.57360819
 H      8   7   2     1.818050545573   107.43485250   330.77414927
 H      7   2   1     2.094389135148   129.65604114   252.93746683
 H      7   2   1     2.010511764409    48.72500860   325.34719170
 H      7   2   1     2.002025124575   122.91431315    46.63627199

---------------------
BASIS SET INFORMATION
---------------------
There are 3 groups of distinct atoms

 Group   1 Type C   : 11s6p2d1f contracted to 5s3p2d1f pattern {62111/411/11/1}
 Group   2 Type O   : 11s6p2d1f contracted to 5s3p2d1f pattern {62111/411/11/1}
 Group   3 Type H   : 5s1p contracted to 3s1p pattern {311/1}

Atom   0C    basis set group =>   1
Atom   1O    basis set group =>   2
Atom   2H    basis set group =>   3
Atom   3H    basis set group =>   3
Atom   4H    basis set group =>   3
Atom   5H    basis set group =>   3
Atom   6C    basis set group =>   1
Atom   7O    basis set group =>   2
Atom   8H    basis set group =>   3
Atom   9H    basis set group =>   3
Atom  10H    basis set group =>   3
Atom  11H    basis set group =>   3


           ************************************************************
           *        Program running with 8 parallel MPI-processes     *
           *              working on a common directory               *
           ************************************************************
------------------------------------------------------------------------------
                           ORCA GTO INTEGRAL CALCULATION
------------------------------------------------------------------------------

                         BASIS SET STATISTICS AND STARTUP INFO

 # of primitive gaussian shells          ...  128
 # of primitive gaussian functions       ...  248
 # of contracted shells                  ...   76
 # of contracted basis functions         ...  172
 Highest angular momentum                ...    3
 Maximum contraction depth               ...    6
 Integral package used                   ... LIBINT
 Integral threshhold            Thresh   ...  2.500e-11
 Primitive cut-off              TCut     ...  2.500e-12


------------------------------ INTEGRAL EVALUATION ----------------------------


 * One electron integrals 
 Pre-screening matrix                    ... done
 Shell pair data                         ... done (   0.001 sec)



           ************************************************************
           *        Program running with 8 parallel MPI-processes     *
           *              working on a common directory               *
           ************************************************************
-------------------------------------------------------------------------------
                                 ORCA SCF
-------------------------------------------------------------------------------

------------
SCF SETTINGS
------------
Hamiltonian:
 Density Functional     Method          .... DFT(GTOs)
 Exchange Functional    Exchange        .... WB97X-D3
 Correlation Functional Correlation     .... WB97X-D3
 Gradients option       PostSCFGGA      .... off
 Hybrid DFT is turned on
   Fraction HF Exchange ScalHFX         ....  0.195728
   Scaling of DF-GGA-X  ScalDFX         ....  0.000000
   Scaling of DF-GGA-C  ScalDFC         ....  1.000000
   Scaling of DF-LDA-C  ScalLDAC        ....  1.000000
   Perturbative correction              ....  0.000000
   Density functional embedding theory  .... OFF
 Long-range corrected/Screened/Range-Separated Hybrid DFT is turned on
   Amount of maximum screened exact exchange              ....  0.804272
   Range separation parameter mu (erf(mu*r12)/r12)        ....  0.250000


General Settings:
 Integral files         IntName         .... 9-80_DFT_A
 Hartree-Fock type      HFTyp           .... RHF
 Total Charge           Charge          ....    0
 Multiplicity           Mult            ....    1
 Number of Electrons    NEL             ....   18
 Basis Dimension        Dim             ....  172
 Nuclear Repulsion      ENuc            ....     41.1525766675 Eh

Convergence Acceleration:
 DIIS                   CNVDIIS         .... on
   Start iteration      DIISMaxIt       ....    12
   Startup error        DIISStart       ....  0.200000
   # of expansion vecs  DIISMaxEq       ....     5
   Bias factor          DIISBfac        ....   1.050
   Max. coefficient     DIISMaxC        ....  10.000
 Newton-Raphson         CNVNR           .... off
 SOSCF                  CNVSOSCF        .... on
   Start iteration      SOSCFMaxIt      ....   150
   Startup grad/error   SOSCFStart      ....  0.003300
 Level Shifting         CNVShift        .... on
   Level shift para.    LevelShift      ....    0.2500
   Turn off err/grad.   ShiftErr        ....    0.0010
 Zerner damping         CNVZerner       .... off
 Static damping         CNVDamp         .... on
   Fraction old density DampFac         ....    0.7000
   Max. Damping (<1)    DampMax         ....    0.9800
   Min. Damping (>=0)   DampMin         ....    0.0000
   Turn off err/grad.   DampErr         ....    0.1000
 Fernandez-Rico         CNVRico         .... off

SCF Procedure:
 Maximum # iterations   MaxIter         ....  1000
 SCF integral mode      SCFMode         .... Direct
   Integral package                     .... LIBINT
 Reset frequency        DirectResetFreq ....    20
 Integral Threshold     Thresh          ....  2.500e-11 Eh
 Primitive CutOff       TCut            ....  2.500e-12 Eh

Convergence Tolerance:
 Convergence Check Mode ConvCheckMode   .... Total+1el-Energy
 Convergence forced     ConvForced      .... 0
 Energy Change          TolE            ....  1.000e-08 Eh
 1-El. energy change                    ....  1.000e-05 Eh
 Orbital Gradient       TolG            ....  1.000e-05
 Orbital Rotation angle TolX            ....  1.000e-05
 DIIS Error             TolErr          ....  5.000e-07


Diagonalization of the overlap matrix:
Smallest eigenvalue                        ... 1.148e-03
Time for diagonalization                   ...    0.004 sec
Threshold for overlap eigenvalues          ... 1.000e-08
Number of eigenvalues below threshold      ... 0
Time for construction of square roots      ...    0.005 sec
Total time needed                          ...    0.009 sec

-------------------
DFT GRID GENERATION
-------------------

General Integration Accuracy     IntAcc      ...  4.340
Radial Grid Type                 RadialGrid  ... Gauss-Chebyshev
Angular Grid (max. acc.)         AngularGrid ... Lebedev-110
Angular grid pruning method      GridPruning ... 3 (G Style)
Weight generation scheme         WeightScheme... Becke
Basis function cutoff            BFCut       ...    1.0000e-11
Integration weight cutoff        WCut        ...    1.0000e-14
Grids for H and He will be reduced by one unit

# of grid points (after initial pruning)     ...  13096 (   0.0 sec)
# of grid points (after weights+screening)   ...  12453 (   0.0 sec)
nearest neighbour list constructed           ...    0.0 sec
Grid point re-assignment to atoms done       ...    0.0 sec
Grid point division into batches done        ...    0.0 sec
Reduced shell lists constructed in    0.0 sec

Total number of grid points                  ...    12453
Total number of batches                      ...      201
Average number of points per batch           ...       61
Average number of grid points per atom       ...     1038
Average number of shells per batch           ...    60.26 (79.29%)
Average number of basis functions per batch  ...   137.37 (79.87%)
Average number of large shells per batch     ...    51.00 (84.63%)
Average number of large basis fcns per batch ...   113.89 (82.91%)
Maximum spatial batch extension              ...   3.16,  3.83,  3.99 au
Average spatial batch extension              ...   0.21,  0.22,  0.21 au

Time for grid setup =    0.047 sec

------------------------------
INITIAL GUESS: MODEL POTENTIAL
------------------------------
Loading Hartree-Fock densities                     ... done
Calculating cut-offs                               ... done
Setting up the integral package                    ... done
Initializing the effective Hamiltonian             ... done
Starting the Coulomb interaction                   ... done (   0.0 sec)
Reading the grid                                   ... done
Mapping shells                                     ... done
Starting the XC term evaluation                    ... done (   0.0 sec)
  promolecular density results
     # of electrons  =     17.999272358
     EX              =    -14.453670182
     EC              =     -0.578482410
     EX+EC           =    -15.032152592
Transforming the Hamiltonian                       ... done (   0.0 sec)
Diagonalizing the Hamiltonian                      ... done (   0.0 sec)
Back transforming the eigenvectors                 ... done (   0.0 sec)
Now organizing SCF variables                       ... done
                      ------------------
                      INITIAL GUESS DONE (   0.2 sec)
                      ------------------
--------------
SCF ITERATIONS
--------------
ITER       Energy         Delta-E        Max-DP      RMS-DP      [F,P]     Damp
               ***  Starting incremental Fock matrix formation  ***
  0   -115.6388493318   0.000000000000 0.03485649  0.00076777  0.2317625 0.7000
  1   -115.6771413831  -0.038292051325 0.02299542  0.00054685  0.1154727 0.7000
                               ***Turning on DIIS***
  2   -115.6950888347  -0.017947451645 0.03827556  0.00099595  0.0444485 0.0000
  3   -115.7243017392  -0.029212904468 0.01652807  0.00035831  0.0566857 0.0000
  4   -115.7289297969  -0.004628057706 0.00424858  0.00006962  0.0064930 0.0000
                      *** Initiating the SOSCF procedure ***
                           *** Shutting down DIIS ***
                      *** Re-Reading the Fockian *** 
                      *** Removing any level shift *** 
ITER      Energy       Delta-E        Grad      Rot      Max-DP    RMS-DP
  5   -115.72903182  -0.0001020264  0.000455  0.000455  0.000722  0.000024
               *** Restarting incremental Fock matrix formation ***
  6   -115.72904083  -0.0000090046  0.000126  0.000181  0.000525  0.000015
  7   -115.72904170  -0.0000008706  0.000047  0.000108  0.000276  0.000007
  8   -115.72904178  -0.0000000813  0.000020  0.000017  0.000031  0.000001
  9   -115.72904179  -0.0000000071  0.000005  0.000005  0.000011  0.000000
                  ***Gradient check signals convergence***
              ***Rediagonalizing the Fockian in SOSCF/NRSCF***

               *****************************************************
               *                     SUCCESS                       *
               *           SCF CONVERGED AFTER  10 CYCLES          *
               *****************************************************

Setting up the final grid:

General Integration Accuracy     IntAcc      ...  4.670
Radial Grid Type                 RadialGrid  ... Gauss-Chebyshev
Angular Grid (max. acc.)         AngularGrid ... Lebedev-302
Angular grid pruning method      GridPruning ... 3 (G Style)
Weight generation scheme         WeightScheme... Becke
Basis function cutoff            BFCut       ...    1.0000e-11
Integration weight cutoff        WCut        ...    1.0000e-14
Grids for H and He will be reduced by one unit

# of grid points (after initial pruning)     ...  52000 (   0.0 sec)
# of grid points (after weights+screening)   ...  48860 (   0.0 sec)
nearest neighbour list constructed           ...    0.0 sec
Grid point re-assignment to atoms done       ...    0.0 sec
Grid point division into batches done        ...    0.2 sec
Reduced shell lists constructed in    0.2 sec

Total number of grid points                  ...    48860
Total number of batches                      ...      769
Average number of points per batch           ...       63
Average number of grid points per atom       ...     4072
Average number of shells per batch           ...    60.23 (79.26%)
Average number of basis functions per batch  ...   136.21 (79.19%)
Average number of large shells per batch     ...    50.50 (83.84%)
Average number of large basis fcns per batch ...   112.89 (82.88%)
Maximum spatial batch extension              ...   2.38,  3.57,  4.85 au
Average spatial batch extension              ...   0.13,  0.14,  0.14 au

Final grid set up in    0.2 sec
Final integration                            ... done (   0.1 sec)
Change in XC energy                          ...    -0.000295678
Integrated number of electrons               ...    17.999948606
Previous integrated no of electrons          ...    18.001326396

----------------
TOTAL SCF ENERGY
----------------

Total Energy       :         -115.72933747 Eh           -3149.15537 eV

Components:
Nuclear Repulsion  :           41.15257667 Eh            1119.81854 eV
Electronic Energy  :         -156.88191413 Eh           -4268.97391 eV
One Electron Energy:         -238.61699169 Eh           -6493.09845 eV
Two Electron Energy:           81.73507755 Eh            2224.12453 eV

Virial components:
Potential Energy   :         -231.17468851 Eh           -6290.58308 eV
Kinetic Energy     :          115.44535104 Eh            3141.42771 eV
Virial Ratio       :            2.00245992


DFT components:
N(Alpha)           :        8.999974302885 electrons
N(Beta)            :        8.999974302885 electrons
N(Total)           :       17.999948605769 electrons
E(XC)              :      -10.690306152977 Eh       
DFET-embed. en.    :        0.000000000000 Eh       

---------------
SCF CONVERGENCE
---------------

  Last Energy change         ...   -6.2514e-10  Tolerance :   1.0000e-08
  Last MAX-Density change    ...    2.7970e-06  Tolerance :   1.0000e-07
  Last RMS-Density change    ...    7.7946e-08  Tolerance :   5.0000e-09
  Last Orbital Gradient      ...    9.1465e-07  Tolerance :   1.0000e-05
  Last Orbital Rotation      ...    2.1359e-06  Tolerance :   1.0000e-05

             **** THE GBW FILE WAS UPDATED (9-80_DFT_A.gbw) ****
             **** DENSITY FILE WAS UPDATED (9-80_DFT_A.scfp.tmp) ****
             **** ENERGY FILE WAS UPDATED (9-80_DFT_A.en.tmp) ****
----------------
ORBITAL ENERGIES
----------------

  NO   OCC          E(Eh)            E(eV) 
   0   2.0000     -19.230615      -523.2916 
   1   2.0000     -10.301974      -280.3310 
   2   2.0000      -1.148446       -31.2508 
   3   2.0000      -0.800337       -21.7783 
   4   2.0000      -0.613845       -16.7036 
   5   2.0000      -0.550868       -14.9899 
   6   2.0000      -0.532869       -14.5001 
   7   2.0000      -0.443736       -12.0747 
   8   2.0000      -0.373666       -10.1680 
   9   0.0000       0.099136         2.6976 
  10   0.0000       0.129127         3.5137 
  11   0.0000       0.156820         4.2673 
  12   0.0000       0.191094         5.1999 
  13   0.0000       0.198700         5.4069 
  14   0.0000       0.204876         5.5750 
  15   0.0000       0.225031         6.1234 
  16   0.0000       0.232804         6.3349 
  17   0.0000       0.253951         6.9104 
  18   0.0000       0.285352         7.7648 
  19   0.0000       0.320414         8.7189 
  20   0.0000       0.342017         9.3067 
  21   0.0000       0.345875         9.4117 
  22   0.0000       0.367082         9.9888 
  23   0.0000       0.411298        11.1920 
  24   0.0000       0.448989        12.2176 
  25   0.0000       0.473178        12.8758 
  26   0.0000       0.484450        13.1826 
  27   0.0000       0.534252        14.5377 
  28   0.0000       0.541769        14.7423 
  29   0.0000       0.546528        14.8718 
  30   0.0000       0.562211        15.2985 
  31   0.0000       0.580623        15.7995 
  32   0.0000       0.609911        16.5965 
  33   0.0000       0.653456        17.7814 
  34   0.0000       0.674584        18.3564 
  35   0.0000       0.686291        18.6749 
  36   0.0000       0.698128        18.9970 
  37   0.0000       0.732249        19.9255 
  38   0.0000       0.783101        21.3093 
  39   0.0000       0.819285        22.2939 
  40   0.0000       0.835872        22.7452 
  41   0.0000       0.877355        23.8740 
  42   0.0000       0.881283        23.9809 
  43   0.0000       0.970925        26.4202 
  44   0.0000       1.029542        28.0153 
  45   0.0000       1.034522        28.1508 
  46   0.0000       1.075746        29.2725 
  47   0.0000       1.117649        30.4128 
  48   0.0000       1.187403        32.3109 
  49   0.0000       1.189556        32.3695 
  50   0.0000       1.218444        33.1556 
  51   0.0000       1.235552        33.6211 
  52   0.0000       1.272553        34.6279 
  53   0.0000       1.382119        37.6094 
  54   0.0000       1.424410        38.7602 
  55   0.0000       1.439672        39.1755 
  56   0.0000       1.484790        40.4032 
  57   0.0000       1.526689        41.5433 
  58   0.0000       1.556088        42.3433 
  59   0.0000       1.578476        42.9525 
  60   0.0000       1.632281        44.4166 
  61   0.0000       1.645895        44.7871 
  62   0.0000       1.657351        45.0988 
  63   0.0000       1.689808        45.9820 
  64   0.0000       1.715457        46.6799 
  65   0.0000       1.823358        49.6161 
  66   0.0000       1.865401        50.7601 
  67   0.0000       1.960961        53.3605 
  68   0.0000       1.968982        53.5787 
  69   0.0000       1.991349        54.1874 
  70   0.0000       2.055112        55.9224 
  71   0.0000       2.092957        56.9522 
  72   0.0000       2.114706        57.5441 
  73   0.0000       2.158761        58.7429 
  74   0.0000       2.204505        59.9876 
  75   0.0000       2.253545        61.3221 
  76   0.0000       2.267529        61.7026 
  77   0.0000       2.271674        61.8154 
  78   0.0000       2.283646        62.1412 
  79   0.0000       2.357608        64.1538 
  80   0.0000       2.363603        64.3169 
  81   0.0000       2.405103        65.4462 
  82   0.0000       2.417365        65.7798 
  83   0.0000       2.438723        66.3610 
  84   0.0000       2.512275        68.3625 
  85   0.0000       2.571437        69.9723 
  86   0.0000       2.612432        71.0879 
  87   0.0000       2.656449        72.2857 
  88   0.0000       2.673203        72.7416 
  89   0.0000       2.690231        73.2049 
  90   0.0000       2.721970        74.0686 
  91   0.0000       2.804853        76.3239 
  92   0.0000       2.840105        77.2832 
  93   0.0000       2.866250        77.9946 
  94   0.0000       2.905761        79.0698 
  95   0.0000       2.946105        80.1676 
  96   0.0000       2.970294        80.8258 
  97   0.0000       3.002444        81.7007 
  98   0.0000       3.108334        84.5821 
  99   0.0000       3.136121        85.3382 
 100   0.0000       3.165519        86.1381 
 101   0.0000       3.219931        87.6188 
 102   0.0000       3.248499        88.3962 
 103   0.0000       3.284285        89.3699 
 104   0.0000       3.319346        90.3240 
 105   0.0000       3.362615        91.5014 
 106   0.0000       3.376096        91.8682 
 107   0.0000       3.410771        92.8118 
 108   0.0000       3.436560        93.5135 
 109   0.0000       3.470050        94.4249 
 110   0.0000       3.511461        95.5517 
 111   0.0000       3.647636        99.2572 
 112   0.0000       3.672513        99.9342 
 113   0.0000       3.683705       100.2387 
 114   0.0000       3.703000       100.7638 
 115   0.0000       3.750594       102.0588 
 116   0.0000       3.784654       102.9857 
 117   0.0000       4.058971       110.4502 
 118   0.0000       4.099572       111.5550 
 119   0.0000       4.140092       112.6576 
 120   0.0000       4.237897       115.3190 
 121   0.0000       4.287963       116.6814 
 122   0.0000       4.362839       118.7189 
 123   0.0000       4.412472       120.0695 
 124   0.0000       4.453631       121.1895 
 125   0.0000       4.502058       122.5072 
 126   0.0000       4.554159       123.9250 
 127   0.0000       4.566204       124.2527 
 128   0.0000       4.584368       124.7470 
 129   0.0000       4.601501       125.2132 
 130   0.0000       4.658717       126.7701 
 131   0.0000       5.039589       137.1342 
 132   0.0000       5.144887       139.9995 
 133   0.0000       5.154764       140.2683 
 134   0.0000       5.392190       146.7289 
 135   0.0000       5.408352       147.1687 
 136   0.0000       5.471734       148.8934 
 137   0.0000       5.531859       150.5295 
 138   0.0000       5.543538       150.8473 
 139   0.0000       5.736438       156.0964 
 140   0.0000       5.778793       157.2490 
 141   0.0000       5.857505       159.3908 
 142   0.0000       6.063403       164.9936 
 143   0.0000       6.083067       165.5287 
 144   0.0000       6.185896       168.3268 
 145   0.0000       6.382326       173.6719 
 146   0.0000       6.548418       178.1915 
 147   0.0000       6.661462       181.2676 
 148   0.0000       6.770224       184.2272 
 149   0.0000       6.815619       185.4624 
 150   0.0000       6.834231       185.9689 
 151   0.0000       6.906989       187.9487 
 152   0.0000       7.035745       191.4524 
 153   0.0000       7.165575       194.9852 
 154   0.0000       7.240047       197.0117 
 155   0.0000       7.336173       199.6274 
 156   0.0000       7.513277       204.4467 
 157   0.0000       8.144239       221.6160 
 158   0.0000       8.962915       243.8933 
 159   0.0000       9.376319       255.1426 
 160   0.0000       9.591680       261.0029 
 161   0.0000       9.601807       261.2784 
 162   0.0000       9.821706       267.2622 
 163   0.0000       9.946511       270.6583 
 164   0.0000       9.979657       271.5603 
 165   0.0000      10.199265       277.5361 
[...]
  82   0.0000       2.453138        66.7533 
  83   0.0000       2.498571        67.9896 
  84   0.0000       2.539564        69.1050 
  85   0.0000       2.570127        69.9367 
  86   0.0000       2.599945        70.7481 
  87   0.0000       2.625429        71.4416 
  88   0.0000       2.656679        72.2919 
  89   0.0000       2.697125        73.3925 
  90   0.0000       2.721659        74.0601 
  91   0.0000       2.742492        74.6270 
  92   0.0000       2.814291        76.5807 
  93   0.0000       2.839145        77.2571 
  94   0.0000       2.929651        79.7199 
  95   0.0000       2.940246        80.0082 
  96   0.0000       2.974179        80.9315 
  97   0.0000       2.993168        81.4482 
  98   0.0000       3.077043        83.7306 
  99   0.0000       3.106259        84.5256 
 100   0.0000       3.137546        85.3770 
 101   0.0000       3.164619        86.1137 
 102   0.0000       3.196894        86.9919 
 103   0.0000       3.249518        88.4239 
 104   0.0000       3.262708        88.7828 
 105   0.0000       3.279828        89.2487 
 106   0.0000       3.316936        90.2584 
 107   0.0000       3.362493        91.4981 
 108   0.0000       3.417075        92.9833 
 109   0.0000       3.490267        94.9750 
 110   0.0000       3.576284        97.3156 
 111   0.0000       3.629152        98.7543 
 112   0.0000       3.637673        98.9861 
 113   0.0000       3.683746       100.2398 
 114   0.0000       3.692364       100.4743 
 115   0.0000       3.726381       101.4000 
 116   0.0000       3.828367       104.1752 
 117   0.0000       4.024545       109.5134 
 118   0.0000       4.105271       111.7101 
 119   0.0000       4.187023       113.9347 
 120   0.0000       4.255542       115.7992 
 121   0.0000       4.264967       116.0556 
 122   0.0000       4.276774       116.3769 
 123   0.0000       4.329664       117.8161 
 124   0.0000       4.365714       118.7971 
 125   0.0000       4.424224       120.3893 
 126   0.0000       4.526108       123.1617 
 127   0.0000       4.545663       123.6938 
 128   0.0000       4.561510       124.1250 
 129   0.0000       4.570364       124.3659 
 130   0.0000       4.634002       126.0976 
 131   0.0000       5.068362       137.9171 
 132   0.0000       5.144758       139.9960 
 133   0.0000       5.254682       142.9872 
 134   0.0000       5.332146       145.0951 
 135   0.0000       5.367340       146.0527 
 136   0.0000       5.436975       147.9476 
 137   0.0000       5.456147       148.4693 
 138   0.0000       5.576803       151.7525 
 139   0.0000       5.830298       158.6505 
 140   0.0000       5.842111       158.9719 
 141   0.0000       5.871294       159.7660 
 142   0.0000       6.012759       163.6155 
 143   0.0000       6.019458       163.7978 
 144   0.0000       6.344997       172.6561 
 145   0.0000       6.352318       172.8554 
 146   0.0000       6.535680       177.8449 
 147   0.0000       6.649471       180.9413 
 148   0.0000       6.770062       184.2228 
 149   0.0000       6.811371       185.3468 
 150   0.0000       6.816935       185.4982 
 151   0.0000       6.822327       185.6450 
 152   0.0000       7.046501       191.7451 
 153   0.0000       7.105070       193.3388 
 154   0.0000       7.227286       196.6644 
 155   0.0000       7.273750       197.9288 
 156   0.0000       7.488513       203.7728 
 157   0.0000       8.171146       222.3482 
 158   0.0000       8.887652       241.8453 
 159   0.0000       9.422480       256.3987 
 160   0.0000       9.510483       258.7934 
 161   0.0000       9.552398       259.9340 
 162   0.0000       9.799779       266.6656 
 163   0.0000       9.887689       269.0577 
 164   0.0000       9.970598       271.3138 
 165   0.0000      10.134400       275.7710 
 166   0.0000      11.244021       305.9654 
 167   0.0000      19.109799       520.0041 
 168   0.0000      22.543510       613.4401 
 169   0.0000      43.688981      1188.8376 
 170   0.0000      66.095578      1798.5521 
 171   0.0000     126.443953      3440.7149 

                    ********************************
                    * MULLIKEN POPULATION ANALYSIS *
                    ********************************

-----------------------
MULLIKEN ATOMIC CHARGES
-----------------------
   0 C :    0.002823
   1 O :   -0.007882
   2 H :   -0.000751
   3 H :   -0.000776
   4 H :    0.000111
   5 H :   -0.000476
   6 C :   -0.166750
   7 O :   -0.462577
   8 H :    0.319284
   9 H :    0.111688
  10 H :    0.099426
  11 H :    0.105879
Sum of atomic charges:   -0.0000000

--------------------------------
MULLIKEN REDUCED ORBITAL CHARGES
--------------------------------
  0 C s       :    -0.001318  s :    -0.001318
      pz      :    -0.000551  p :    -0.001526
      px      :    -0.000901
      py      :    -0.000073
      dz2     :    -0.000009  d :     0.000020
      dxz     :     0.000051
      dyz     :     0.000011
      dx2y2   :    -0.000045
      dxy     :     0.000012
      f0      :     0.000001  f :     0.000001
      f+1     :    -0.000000
      f-1     :     0.000000
      f+2     :     0.000001
      f-2     :     0.000000
      f+3     :    -0.000000
      f-3     :     0.000000
  1 O s       :    -0.000879  s :    -0.000879
      pz      :     0.001176  p :     0.008896
      px      :     0.007069
      py      :     0.000650
      dz2     :    -0.000024  d :    -0.000135
      dxz     :    -0.000009
      dyz     :    -0.000000
      dx2y2   :    -0.000061
      dxy     :    -0.000041
      f0      :    -0.000000  f :    -0.000001
      f+1     :     0.000000
      f-1     :    -0.000000
      f+2     :    -0.000000
      f-2     :    -0.000000
      f+3     :     0.000000
      f-3     :    -0.000000
  2 H s       :     0.000759  s :     0.000759
      pz      :     0.000002  p :    -0.000009
      px      :    -0.000013
      py      :     0.000002
  3 H s       :     0.000776  s :     0.000776
      pz      :     0.000000  p :     0.000000
      px      :    -0.000000
      py      :    -0.000000
  4 H s       :    -0.000111  s :    -0.000111
      pz      :     0.000000  p :     0.000000
      px      :     0.000000
      py      :    -0.000000
  5 H s       :     0.000474  s :     0.000474
      pz      :     0.000001  p :     0.000001
      px      :    -0.000000
      py      :     0.000000
  6 C s       :     3.204267  s :     3.204267
      pz      :     0.744012  p :     2.851004
      px      :     1.029811
      py      :     1.077181
      dz2     :     0.014462  d :     0.103652
      dxz     :     0.028432
      dyz     :     0.047374
      dx2y2   :     0.011788
      dxy     :     0.001595
      f0      :     0.002159  f :     0.007826
      f+1     :     0.002025
      f-1     :     0.002081
      f+2     :     0.000470
      f-2     :     0.000692
      f+3     :     0.000296
      f-3     :     0.000103
  7 O s       :     3.791449  s :     3.791449
      pz      :     1.250328  p :     4.638453
      px      :     1.577440
      py      :     1.810685
      dz2     :     0.006136  d :     0.030975
      dxz     :     0.011651
      dyz     :     0.005151
      dx2y2   :     0.003426
      dxy     :     0.004610
      f0      :     0.000465  f :     0.001700
      f+1     :     0.000233
      f-1     :     0.000242
      f+2     :     0.000210
      f-2     :     0.000289
      f+3     :     0.000058
      f-3     :     0.000203
  8 H s       :     0.633606  s :     0.633606
      pz      :     0.013726  p :     0.047110
      px      :     0.016065
      py      :     0.017319
  9 H s       :     0.868303  s :     0.868303
      pz      :     0.006056  p :     0.020009
      px      :     0.005527
      py      :     0.008426
 10 H s       :     0.880153  s :     0.880153
      pz      :     0.003130  p :     0.020420
      px      :     0.012078
      py      :     0.005212
 11 H s       :     0.873094  s :     0.873094
      pz      :     0.005766  p :     0.021027
      px      :     0.005041
      py      :     0.010220


                     *******************************
                     * LOEWDIN POPULATION ANALYSIS *
                     *******************************

----------------------
LOEWDIN ATOMIC CHARGES
----------------------
   0 C :   -0.006718
   1 O :   -0.017242
   2 H :   -0.000910
   3 H :   -0.000411
   4 H :   -0.000057
   5 H :   -0.001229
   6 C :   -0.397333
   7 O :   -0.045696
   8 H :    0.177436
   9 H :    0.110869
  10 H :    0.093208
  11 H :    0.088083

-------------------------------
LOEWDIN REDUCED ORBITAL CHARGES
-------------------------------
  0 C s       :     0.000760  s :     0.000760
      pz      :     0.002213  p :     0.005739
      px      :     0.003327
      py      :     0.000199
      dz2     :     0.000017  d :     0.000215
      dxz     :     0.000137
      dyz     :     0.000008
      dx2y2   :     0.000045
      dxy     :     0.000007
      f0      :     0.000000  f :     0.000004
      f+1     :     0.000001
      f-1     :     0.000000
      f+2     :     0.000001
      f-2     :     0.000001
      f+3     :     0.000000
      f-3     :     0.000000
  1 O s       :     0.001679  s :     0.001679
      pz      :     0.002877  p :     0.015130
      px      :     0.010830
      py      :     0.001422
      dz2     :     0.000142  d :     0.000420
      dxz     :     0.000043
      dyz     :     0.000002
      dx2y2   :     0.000155
      dxy     :     0.000079
      f0      :     0.000001  f :     0.000012
      f+1     :     0.000005
      f-1     :     0.000000
      f+2     :     0.000001
      f-2     :     0.000000
      f+3     :     0.000002
      f-3     :     0.000003
  2 H s       :     0.000904  s :     0.000904
      pz      :     0.000003  p :     0.000006
      px      :     0.000002
      py      :     0.000001
  3 H s       :     0.000409  s :     0.000409
      pz      :     0.000001  p :     0.000002
      px      :     0.000001
      py      :     0.000000
  4 H s       :     0.000054  s :     0.000054
      pz      :     0.000001  p :     0.000003
      px      :     0.000001
      py      :     0.000001
  5 H s       :     0.001225  s :     0.001225
      pz      :     0.000001  p :     0.000003
      px      :     0.000002
      py      :     0.000000
  6 C s       :     2.837072  s :     2.837072
      pz      :     0.871023  p :     3.066976
      px      :     1.080522
      py      :     1.115431
      dz2     :     0.096372  d :     0.433658
      dxz     :     0.107013
      dyz     :     0.161157
      dx2y2   :     0.055168
      dxy     :     0.013948
      f0      :     0.014831  f :     0.059628
      f+1     :     0.016827
      f-1     :     0.013051
      f+2     :     0.003853
      f-2     :     0.007707
      f+3     :     0.002131
      f-3     :     0.001227
  7 O s       :     3.352549  s :     3.352549
      pz      :     1.320889  p :     4.614640
      px      :     1.568218
      py      :     1.725533
      dz2     :     0.018193  d :     0.073604
      dxz     :     0.029324
      dyz     :     0.017006
      dx2y2   :     0.003599
      dxy     :     0.005482
      f0      :     0.001405  f :     0.004904
      f+1     :     0.000853
      f-1     :     0.000882
      f+2     :     0.000663
      f-2     :     0.000794
      f+3     :     0.000023
      f-3     :     0.000284
  8 H s       :     0.665560  s :     0.665560
      pz      :     0.039202  p :     0.157005
      px      :     0.064837
      py      :     0.052965
  9 H s       :     0.832068  s :     0.832068
      pz      :     0.016205  p :     0.057062
      px      :     0.016265
      py      :     0.024592
 10 H s       :     0.841133  s :     0.841133
      pz      :     0.010974  p :     0.065659
      px      :     0.037586
      py      :     0.017099
 11 H s       :     0.845756  s :     0.845756
      pz      :     0.017242  p :     0.066161
      px      :     0.016287
      py      :     0.032632


                      *****************************
                      * MAYER POPULATION ANALYSIS *
                      *****************************

  NA   - Mulliken gross atomic population
  ZA   - Total nuclear charge
  QA   - Mulliken gross atomic charge
  VA   - Mayer's total valence
  BVA  - Mayer's bonded valence
  FA   - Mayer's free valence

  ATOM       NA         ZA         QA         VA         BVA        FA
  0 C     -0.0028     0.0000     0.0028    -0.0057    -0.0057     0.0000
  1 O      0.0079     0.0000    -0.0079     0.0157     0.0157    -0.0000
  2 H      0.0008     0.0000    -0.0008     0.0015     0.0015    -0.0000
  3 H      0.0008     0.0000    -0.0008     0.0016     0.0016    -0.0000
  4 H     -0.0001     0.0000     0.0001    -0.0002    -0.0002     0.0000
  5 H      0.0005     0.0000    -0.0005     0.0010     0.0010    -0.0000
  6 C      6.1667     6.0000    -0.1667     3.9503     3.9503     0.0000
  7 O      8.4626     8.0000    -0.4626     1.9110     1.9110    -0.0000
  8 H      0.6807     1.0000     0.3193     0.9130     0.9130    -0.0000
  9 H      0.8883     1.0000     0.1117     0.9586     0.9586     0.0000
 10 H      0.9006     1.0000     0.0994     0.9479     0.9479    -0.0000
 11 H      0.8941     1.0000     0.1059     0.9519     0.9519    -0.0000

  Mayer bond orders larger than 0.1
B(  6-C ,  7-O ) :   1.0062 B(  6-C ,  9-H ) :   0.9756 B(  6-C , 10-H ) :   0.9792 
B(  6-C , 11-H ) :   0.9801 B(  7-O ,  8-H ) :   0.8999 

-------
TIMINGS
-------

Total SCF time: 0 days 0 hours 0 min 9 sec 

Total time                  ....       9.409 sec
Sum of individual times     ....       9.129 sec  ( 97.0%)

Fock matrix formation       ....       8.632 sec  ( 91.7%)
  XC integration            ....       0.524 sec  (  6.1% of F)
    Basis function eval.    ....       0.061 sec  ( 11.6% of XC)
    Density eval.           ....       0.053 sec  ( 10.1% of XC)
    XC-Functional eval.     ....       0.078 sec  ( 14.8% of XC)
    XC-Potential eval.      ....       0.068 sec  ( 13.0% of XC)
Diagonalization             ....       0.041 sec  (  0.4%)
Density matrix formation    ....       0.005 sec  (  0.1%)
Population analysis         ....       0.014 sec  (  0.1%)
Initial guess               ....       0.118 sec  (  1.3%)
Orbital Transformation      ....       0.000 sec  (  0.0%)
Orbital Orthonormalization  ....       0.000 sec  (  0.0%)
DIIS solution               ....       0.022 sec  (  0.2%)
SOSCF solution              ....       0.017 sec  (  0.2%)
Grid generation             ....       0.281 sec  (  3.0%)


-------------------------------------------------------------------------------
                          DFT DISPERSION CORRECTION                            
                                                                               
                              DFTD3 V3.1  Rev 1                                
                              USING zero damping                               
-------------------------------------------------------------------------------
The omegaB97X-D3 functional is recognized. Fit by Chai et al.
Active option DFTDOPT                   ...         3   

molecular C6(AA) [au] = 208.656541 


            DFT-D V3
 parameters
 s6 scaling factor         :     1.0000 
 rs6 scaling factor        :     1.2810 
 s8 scaling factor         :     1.0000 
 rs8 scaling factor        :     1.0940 
 Damping factor alpha6     :    14.0000 
 Damping factor alpha8     :    16.0000 
 ad hoc parameters k1-k3   :    16.0000     1.3333    -4.0000 

 Edisp/kcal,au: -0.150628721671  -0.000240042122 
 E6   /kcal   :  -0.030613907 
 E8   /kcal   :  -0.120014814 
 % E8         :  79.675916475 

-------------------------   ----------------
Dispersion correction           -0.000240042
-------------------------   ----------------


-------------------------   --------------------
FINAL SINGLE POINT ENERGY      -115.733460696406
-------------------------   --------------------


                            ***************************************
                            *     ORCA property calculations      *
                            ***************************************

                                    ---------------------
                                    Active property flags
                                    ---------------------
   (+) Dipole Moment


------------------------------------------------------------------------------
                       ORCA ELECTRIC PROPERTIES CALCULATION
------------------------------------------------------------------------------

Dipole Moment Calculation                       ... on
Quadrupole Moment Calculation                   ... off
Polarizability Calculation                      ... off
GBWName                                         ... 9-80_DFT_B.gbw
Electron density file                           ... 9-80_DFT_B.scfp.tmp
The origin for moment calculation is the CENTER OF MASS  = (-6.352704, 10.602566 -5.014426)

-------------
DIPOLE MOMENT
-------------
                                X             Y             Z
Electronic contribution:      0.72759      -0.06931       1.80660
Nuclear contribution   :     -1.34834       0.31663      -1.97248
                        -----------------------------------------
Total Dipole Moment    :     -0.62074       0.24732      -0.16588
                        -----------------------------------------
Magnitude (a.u.)       :      0.68848
Magnitude (Debye)      :      1.74997



--------------------
Rotational spectrum 
--------------------
 
Rotational constants in cm-1:     4.572842     0.844866     0.811597 
Rotational constants in MHz : 137090.347688 25328.443783 24331.051004 

 Dipole components along the rotational axes: 
x,y,z [a.u.] :    -0.325376    -0.606546    -0.015345 
x,y,z [Debye]:    -0.827040    -1.541716    -0.039004 

 
------------------------------------------------------------------------------
                      ORCA CHELPG CHARGES GENERATION
------------------------------------------------------------------------------

GBW file                           ... 9-80_DFT_B.gbw

Reading the GBW file               ... done

Grid spacing                       ...     0.300000
Point Cut-Off                      ...     2.800000
Van-der-Waals Radii                ...        COSMO
Total charge                       ...            0


Number of points X direction       ...           33
Number of points Y direction       ...           25
Number of points Z direction       ...           29
Maximum number of possible points  ...        23925
Final number of points             ...         5877


CHELPG Charges            
--------------------------------
  0   C   :       0.005036
  1   O   :       0.003343
  2   H   :      -0.002934
  3   H   :       0.004121
  4   H   :      -0.013575
  5   H   :       0.001573
  6   C   :       0.186844
  7   O   :      -0.610530
  8   H   :       0.399353
  9   H   :       0.046717
 10   H   :      -0.023046
 11   H   :       0.003099
--------------------------------
Total charge:    -0.000000
--------------------------------

CHELPG charges calculated...

Timings for individual parts in CHELPG calculation:
Grid generation                 ...        0.001 sec (=   0.000 min)
Potential calculation           ...        1.264 sec (=   0.021 min)
Fit to the potential            ...        0.002 sec (=   0.000 min)
------------------------------------------------------------------------------


Timings for individual modules:

Sum of individual times         ...       11.911 sec (=   0.199 min)
GTO integral calculation        ...        0.725 sec (=   0.012 min)   6.1 %
SCF iterations                  ...        9.889 sec (=   0.165 min)  83.0 %
CHELPG charge generation        ...        1.298 sec (=   0.022 min)  10.9 %



                             ****ORCA TERMINATED NORMALLY****
TOTAL RUN TIME: 0 days 0 hours 0 minutes 47 seconds 56 msec
