
                                 *****************
                                 * O   R   C   A *
                                 *****************

           --- An Ab Initio, DFT and Semiempirical electronic structure package ---

                  #######################################################
                  #                        -***-                        #
                  #          Department of theory and spectroscopy      #
                  #               Directorship: Frank Neese             #
                  #        Max Planck Institute fuer Kohlenforschung    #
                  #                Kaiser Wilhelm Platz 1               #
                  #                 D-45470 Muelheim/Ruhr               #
                  #                      Germany                        #
                  #                                                     #
                  #                  All rights reserved                #
                  #                        -***-                        #
                  #######################################################


                         Program Version 4.1.2  - RELEASE  -


 With contributions from (in alphabetic order):
   Daniel Aravena         : Magnetic Properties
   Michael Atanasov       : Ab Initio Ligand Field Theory
   Alexander A. Auer      : GIAO ZORA
   Ute Becker             : Parallelization
   Giovanni Bistoni       : ED, Open-shell LED
   Martin Brehm           : Molecular dynamics
   Dmytro Bykov           : SCF Hessian
   Vijay G. Chilkuri      : MRCI spin determinant printing
   Dipayan Datta          : RHF DLPNO-CCSD density
   Achintya Kumar Dutta   : EOM-CC, STEOM-CC
   Dmitry Ganyushin       : Spin-Orbit,Spin-Spin,Magnetic field MRCI
   Miquel Garcia          : C-PCM Hessian
   Yang Guo               : DLPNO-NEVPT2, CIM, IAO-localization
   Andreas Hansen         : Spin unrestricted coupled pair/coupled cluster methods
   Benjamin Helmich-Paris : CASSCF linear response (MC-RPA)
   Lee Huntington         : MR-EOM, pCC
   Robert Izsak           : Overlap fitted RIJCOSX, COSX-SCS-MP3, EOM
   Christian Kollmar      : KDIIS, OOCD, Brueckner-CCSD(T), CCSD density
   Simone Kossmann        : Meta GGA functionals, TD-DFT gradient, OOMP2, MP2 Hessian
   Martin Krupicka        : AUTO-CI
   Lucas Lang             : DCDCAS
   Dagmar Lenk            : GEPOL surface, SMD
   Dimitrios Liakos       : Extrapolation schemes; parallel MDCI
   Dimitrios Manganas     : ROCIS; embedding schemes
   Dimitrios Pantazis     : SARC Basis sets
   Taras Petrenko         : DFT Hessian,TD-DFT gradient, ASA, ECA, R-Raman, ABS, FL, XAS/XES, NRVS
   Peter Pinski           : DLPNO-MP2, DLPNO-MP2 Gradient
   Christoph Reimann      : Effective Core Potentials
   Marius Retegan         : Local ZFS, SOC
   Christoph Riplinger    : Optimizer, TS searches, QM/MM, DLPNO-CCSD(T), (RO)-DLPNO pert. Triples
   Tobias Risthaus        : Range-separated hybrids, TD-DFT gradient, RPA, STAB
   Michael Roemelt        : Restricted open shell CIS
   Masaaki Saitow         : Open-shell DLPNO
   Barbara Sandhoefer     : DKH picture change effects
   Avijit Sen             : IP-ROCIS
   Kantharuban Sivalingam : CASSCF convergence, NEVPT2, FIC-MRCI
   Bernardo de Souza      : ESD, SOC TD-DFT
   Georgi Stoychev        : AutoAux, RI-MP2 NMR
   Willem Van den Heuvel  : Paramagnetic NMR
   Boris Wezisla          : Elementary symmetry handling
   Frank Wennmohs         : Technical directorship


 We gratefully acknowledge several colleagues who have allowed us to
 interface, adapt or use parts of their codes:
   Stefan Grimme, W. Hujo, H. Kruse,             : VdW corrections, initial TS optimization,
                  C. Bannwarth                     DFT functionals, gCP, sTDA/sTD-DF
   Ed Valeev                                     : LibInt (2-el integral package), F12 methods
   Garnet Chan, S. Sharma, J. Yang, R. Olivares  : DMRG
   Ulf Ekstrom                                   : XCFun DFT Library
   Mihaly Kallay                                 : mrcc  (arbitrary order and MRCC methods)
   Andreas Klamt, Michael Diedenhofen            : otool_cosmo (COSMO solvation model)
   Jiri Pittner, Ondrej Demel                    : Mk-CCSD
   Frank Weinhold                                : gennbo (NPA and NBO analysis)
   Christopher J. Cramer and Donald G. Truhlar   : smd solvation model
   Lars Goerigk                                  : TD-DFT with DH, B97 family of functionals
   V. Asgeirsson, H. Jonsson                     : NEB implementation
   FAccTs GmbH                                   : IRC, NEB, NEB-TS, Multilevel


 Your calculation uses the libint2 library for the computation of 2-el integrals
 For citations please refer to: http://libint.valeyev.net

 This ORCA versions uses:
   CBLAS   interface :  Fast vector & matrix operations
   LAPACKE interface :  Fast linear algebra routines
   SCALAPACK package :  Parallel linear algebra routines


Your calculation utilizes the atom-pairwise dispersion correction
with the zero-damping scheme (D30)
Cite in your paper:
S.Grimme, J.Antony, S.Ehrlich and H.Krieg, J.Chem.Phys., 132, (2010), 154104 
   

XCFun DFT library Copyright 2009-2010 Ulf Ekstrom and contributors.
See http://admol.org/xcfun for more information. This is free soft-
ware; see the source code for copying conditions. There is ABSOLUTELY
NO WARRANTY; not even for MERCHANTABILITY or FITNESS FOR A PARTICULAR
PURPOSE. For details see the documentation. Scientific users of this 
library should cite U. Ekstrom, L. Visscher, R. Bast, A. J. Thorvald-
sen and K. Ruud; J.Chem.Theor.Comp. 2010, DOI: 10.1021/ct100117s
XCFun Version 0.99 
----- Orbital basis set information -----
Your calculation utilizes the basis: def2-TZVP
   F. Weigend and R. Ahlrichs, Phys. Chem. Chem. Phys. 7, 3297 (2005).

================================================================================
                                        WARNINGS
                       Please study these warnings very carefully!
================================================================================


WARNING: Geometry Optimization
  ===> : Switching off AutoStart
         For restart on a previous wavefunction, please use MOREAD

INFO   : the flag for use of LIBINT has been found!

================================================================================
                                       INPUT FILE
================================================================================
NAME = bonds_angles_[1[6[8][1][1]]]-[6[8[1]][1][1][1]]-[1[6[8][1][1]]]_7.in
|  1> #Run DFT geometry optimization
|  2> ! wB97X-D3 def2-TZVP TIGHTSCF Grid5 FinalGrid6 Opt CHELPG PAL4
|  3> 
|  4> %base "7_geo_opt"
|  5> %geom MaxIter 500
|  6> end
|  7> 
|  8> %geom
|  9>   Constraints
| 10>     { A 5 0 4 C }
| 11>   end
| 12> end
| 13> 
| 14> 
| 15> * xyz 0 1
| 16>   C                    3.011308             -1.180897            0.598492            
| 17>   O                    4.394673             -1.128050            0.874308            
| 18>   H                    4.772196             -0.379022            0.412493            
| 19>   H                    2.806434             -1.318965            -0.469350           
| 20>   H                    2.610441             -2.039120            1.136840            
| 21>   H                    2.483717             -0.285566            0.946851            
| 22> *
| 23> 
| 24>                          ****END OF INPUT****
================================================================================

                       *****************************
                       * Geometry Optimization Run *
                       *****************************

Geometry optimization settings:
Update method            Update   .... BFGS
Choice of coordinates    CoordSys .... Z-matrix Internals
Initial Hessian          InHess   .... Almoef's Model

Convergence Tolerances:
Energy Change            TolE     ....  5.0000e-06 Eh
Max. Gradient            TolMAXG  ....  3.0000e-04 Eh/bohr
RMS Gradient             TolRMSG  ....  1.0000e-04 Eh/bohr
Max. Displacement        TolMAXD  ....  4.0000e-03 bohr
RMS Displacement         TolRMSD  ....  2.0000e-03 bohr

------------------------------------------------------------------------------
                        ORCA OPTIMIZATION COORDINATE SETUP
------------------------------------------------------------------------------

The optimization will be done in new redundant internal coordinates
Making redundant internal coordinates   ...  (new redundants) done
Evaluating the initial hessian          ...  (Almloef) done
Evaluating the coordinates              ...  done
Calculating the B-matrix                .... done
Calculating the G-matrix                .... done
Diagonalizing the G-matrix              .... done
Imposing constraints:
 Iter   0:  RMS(Cart)=    0.0000000000 RMS(Int)=    0.0000000000
CONVERGED
The first mode is                       ....    3
The number of degrees of freedom        ....   12
Storing new coordinates                 .... done

    -----------------------------------------------------------------
                    Redundant Internal Coordinates


    -----------------------------------------------------------------
         Definition                    Initial Value    Approx d2E/dq
    -----------------------------------------------------------------
      1. B(O   1,C   0)                  1.4116         0.516942   
      2. B(H   2,O   1)                  0.9575         0.524720   
      3. B(H   3,C   0)                  1.0960         0.352187   
      4. B(H   4,C   0)                  1.0895         0.360732   
      5. B(H   5,C   0)                  1.0960         0.352186   
      6. A(O   1,C   0,H   4)          107.0686         0.340286   
      7. A(O   1,C   0,H   3)          112.2263         0.338926   
      8. A(O   1,C   0,H   5)          112.2748         0.338926   
      9. A(H   3,C   0,H   5)          108.8188         0.288819   
     10. A(H   4,C   0,H   5)          108.0173         0.289906 C 
     11. A(H   3,C   0,H   4)          108.2641         0.289907   
     12. A(C   0,O   1,H   2)          108.7499         0.359342   
     13. D(H   2,O   1,C   0,H   5)    -61.5260         0.021176   
     14. D(H   2,O   1,C   0,H   3)     61.4271         0.021176   
     15. D(H   2,O   1,C   0,H   4)   -179.9124         0.021176   
    -----------------------------------------------------------------

Number of atoms                         .... 6
Number of degrees of freedom            .... 15

         *************************************************************
         *                GEOMETRY OPTIMIZATION CYCLE   1            *
         *************************************************************
---------------------------------
CARTESIAN COORDINATES (ANGSTROEM)
---------------------------------
  C      3.011308   -1.180897    0.598492
  O      4.394673   -1.128050    0.874308
  H      4.772196   -0.379022    0.412493
  H      2.806434   -1.318965   -0.469350
  H      2.610441   -2.039120    1.136840
  H      2.483717   -0.285566    0.946851

----------------------------
CARTESIAN COORDINATES (A.U.)
----------------------------
  NO LB      ZA    FRAG     MASS         X           Y           Z
   0 C     6.0000    0    12.011    5.690547   -2.231572    1.130986
   1 O     8.0000    0    15.999    8.304728   -2.131706    1.652203
   2 H     1.0000    0     1.008    9.018143   -0.716248    0.779499
   3 H     1.0000    0     1.008    5.303392   -2.492483   -0.886943
   4 H     1.0000    0     1.008    4.933019   -3.853378    2.148316
   5 H     1.0000    0     1.008    4.693545   -0.539642    1.789289

--------------------------------
INTERNAL COORDINATES (ANGSTROEM)
--------------------------------
 C      0   0   0     0.000000000000     0.00000000     0.00000000
 O      1   0   0     1.411582797603     0.00000000     0.00000000
 H      2   1   0     0.957517443464   108.74989122     0.00000000
 H      1   2   3     1.096048660172   112.22633944    61.42708393
 H      1   2   3     1.089522665447   107.06863149   180.08755822
 H      1   2   3     1.096049203149   112.27484149   298.47402050

---------------------------
INTERNAL COORDINATES (A.U.)
---------------------------
 C      0   0   0     0.000000000000     0.00000000     0.00000000
 O      1   0   0     2.667504902825     0.00000000     0.00000000
 H      2   1   0     1.809445736600   108.74989122     0.00000000
 H      1   2   3     2.071231797176   112.22633944    61.42708393
 H      1   2   3     2.058899454394   107.06863149   180.08755822
 H      1   2   3     2.071232823254   112.27484149   298.47402050

---------------------
BASIS SET INFORMATION
---------------------
There are 3 groups of distinct atoms

 Group   1 Type C   : 11s6p2d1f contracted to 5s3p2d1f pattern {62111/411/11/1}
 Group   2 Type O   : 11s6p2d1f contracted to 5s3p2d1f pattern {62111/411/11/1}
 Group   3 Type H   : 5s1p contracted to 3s1p pattern {311/1}

Atom   0C    basis set group =>   1
Atom   1O    basis set group =>   2
Atom   2H    basis set group =>   3
Atom   3H    basis set group =>   3
Atom   4H    basis set group =>   3
Atom   5H    basis set group =>   3


           ************************************************************
           *        Program running with 4 parallel MPI-processes     *
           *              working on a common directory               *
           ************************************************************
------------------------------------------------------------------------------
                           ORCA GTO INTEGRAL CALCULATION
------------------------------------------------------------------------------

                         BASIS SET STATISTICS AND STARTUP INFO

 # of primitive gaussian shells          ...   64
 # of primitive gaussian functions       ...  124
 # of contracted shells                  ...   38
 # of contracted basis functions         ...   86
 Highest angular momentum                ...    3
 Maximum contraction depth               ...    6
 Integral package used                   ... LIBINT
 Integral threshhold            Thresh   ...  2.500e-11
 Primitive cut-off              TCut     ...  2.500e-12


------------------------------ INTEGRAL EVALUATION ----------------------------


 * One electron integrals 
 Pre-screening matrix                    ... done
 Shell pair data                         ... done (   0.000 sec)



           ************************************************************
           *        Program running with 4 parallel MPI-processes     *
           *              working on a common directory               *
           ************************************************************
-------------------------------------------------------------------------------
                                 ORCA SCF
-------------------------------------------------------------------------------

------------
SCF SETTINGS
------------
Hamiltonian:
 Density Functional     Method          .... DFT(GTOs)
 Exchange Functional    Exchange        .... WB97X-D3
 Correlation Functional Correlation     .... WB97X-D3
 Gradients option       PostSCFGGA      .... off
 Hybrid DFT is turned on
   Fraction HF Exchange ScalHFX         ....  0.195728
   Scaling of DF-GGA-X  ScalDFX         ....  0.000000
   Scaling of DF-GGA-C  ScalDFC         ....  1.000000
   Scaling of DF-LDA-C  ScalLDAC        ....  1.000000
   Perturbative correction              ....  0.000000
   Density functional embedding theory  .... OFF
 Long-range corrected/Screened/Range-Separated Hybrid DFT is turned on
   Amount of maximum screened exact exchange              ....  0.804272
   Range separation parameter mu (erf(mu*r12)/r12)        ....  0.250000


General Settings:
 Integral files         IntName         .... 7_geo_opt
 Hartree-Fock type      HFTyp           .... RHF
 Total Charge           Charge          ....    0
 Multiplicity           Mult            ....    1
 Number of Electrons    NEL             ....   18
 Basis Dimension        Dim             ....   86
 Nuclear Repulsion      ENuc            ....     40.4370075640 Eh

Convergence Acceleration:
 DIIS                   CNVDIIS         .... on
   Start iteration      DIISMaxIt       ....    12
   Startup error        DIISStart       ....  0.200000
   # of expansion vecs  DIISMaxEq       ....     5
   Bias factor          DIISBfac        ....   1.050
   Max. coefficient     DIISMaxC        ....  10.000
 Newton-Raphson         CNVNR           .... off
 SOSCF                  CNVSOSCF        .... on
   Start iteration      SOSCFMaxIt      ....   150
   Startup grad/error   SOSCFStart      ....  0.003300
 Level Shifting         CNVShift        .... on
   Level shift para.    LevelShift      ....    0.2500
   Turn off err/grad.   ShiftErr        ....    0.0010
 Zerner damping         CNVZerner       .... off
 Static damping         CNVDamp         .... on
   Fraction old density DampFac         ....    0.7000
   Max. Damping (<1)    DampMax         ....    0.9800
   Min. Damping (>=0)   DampMin         ....    0.0000
   Turn off err/grad.   DampErr         ....    0.1000
 Fernandez-Rico         CNVRico         .... off

SCF Procedure:
 Maximum # iterations   MaxIter         ....   125
 SCF integral mode      SCFMode         .... Direct
   Integral package                     .... LIBINT
 Reset frequency        DirectResetFreq ....    20
 Integral Threshold     Thresh          ....  2.500e-11 Eh
 Primitive CutOff       TCut            ....  2.500e-12 Eh

Convergence Tolerance:
 Convergence Check Mode ConvCheckMode   .... Total+1el-Energy
 Convergence forced     ConvForced      .... 0
 Energy Change          TolE            ....  1.000e-08 Eh
 1-El. energy change                    ....  1.000e-05 Eh
 Orbital Gradient       TolG            ....  1.000e-05
 Orbital Rotation angle TolX            ....  1.000e-05
 DIIS Error             TolErr          ....  5.000e-07


Diagonalization of the overlap matrix:
Smallest eigenvalue                        ... 1.650e-03
Time for diagonalization                   ...    0.131 sec
Threshold for overlap eigenvalues          ... 1.000e-08
Number of eigenvalues below threshold      ... 0
Time for construction of square roots      ...    0.004 sec
Total time needed                          ...    0.136 sec

-------------------
DFT GRID GENERATION
-------------------

General Integration Accuracy     IntAcc      ...  5.010
Radial Grid Type                 RadialGrid  ... Gauss-Chebyshev
Angular Grid (max. acc.)         AngularGrid ... Lebedev-434
Angular grid pruning method      GridPruning ... 3 (G Style)
Weight generation scheme         WeightScheme... Becke
Basis function cutoff            BFCut       ...    1.0000e-11
Integration weight cutoff        WCut        ...    1.0000e-14
Grids for H and He will be reduced by one unit

# of grid points (after initial pruning)     ...  48308 (   0.0 sec)
# of grid points (after weights+screening)   ...  46676 (   0.0 sec)
nearest neighbour list constructed           ...    0.0 sec
Grid point re-assignment to atoms done       ...    0.0 sec
Grid point division into batches done        ...    0.3 sec
Reduced shell lists constructed in    0.4 sec

Total number of grid points                  ...    46676
Total number of batches                      ...      733
Average number of points per batch           ...       63
Average number of grid points per atom       ...     7779
Average number of shells per batch           ...    33.11 (87.14%)
Average number of basis functions per batch  ...    76.78 (89.28%)
Average number of large shells per batch     ...    30.59 (92.39%)
Average number of large basis fcns per batch ...    72.21 (94.04%)
Maximum spatial batch extension              ...  15.77, 14.99, 16.58 au
Average spatial batch extension              ...   0.40,  0.40,  0.43 au

Time for grid setup =    0.443 sec

------------------------------
INITIAL GUESS: MODEL POTENTIAL
------------------------------
Loading Hartree-Fock densities                     ... done
Calculating cut-offs                               ... done
Setting up the integral package                    ... done
Initializing the effective Hamiltonian             ... done
Starting the Coulomb interaction                   ... done (   0.0 sec)
Reading the grid                                   ... done
Mapping shells                                     ... done
Starting the XC term evaluation                    ... done (   0.1 sec)
  promolecular density results
     # of electrons  =     17.998045193
     EX              =    -14.430283655
     EC              =     -0.575116138
     EX+EC           =    -15.005399793
Transforming the Hamiltonian                       ... done (   0.0 sec)
Diagonalizing the Hamiltonian                      ... done (   0.0 sec)
Back transforming the eigenvectors                 ... done (   0.0 sec)
Now organizing SCF variables                       ... done
                      ------------------
                      INITIAL GUESS DONE (   0.6 sec)
                      ------------------
--------------
SCF ITERATIONS
--------------
ITER       Energy         Delta-E        Max-DP      RMS-DP      [F,P]     Damp
               ***  Starting incremental Fock matrix formation  ***
  0   -115.6512199984   0.000000000000 0.03696219  0.00147451  0.2523293 0.7000
  1   -115.6882810299  -0.037061031465 0.02202759  0.00104074  0.1262414 0.7000
                               ***Turning on DIIS***
  2   -115.7053432827  -0.017062252805 0.03156325  0.00188115  0.0490958 0.0000
  3   -115.7330771696  -0.027733886872 0.01774030  0.00068028  0.0611176 0.0000
  4   -115.7376002942  -0.004523124672 0.00406327  0.00013178  0.0065577 0.0000
                      *** Initiating the SOSCF procedure ***
                           *** Shutting down DIIS ***
                      *** Re-Reading the Fockian *** 
                      *** Removing any level shift *** 
ITER      Energy       Delta-E        Grad      Rot      Max-DP    RMS-DP
  5   -115.73769442  -0.0000941305  0.000489  0.000489  0.000678  0.000043
               *** Restarting incremental Fock matrix formation ***
  6   -115.73770256  -0.0000081381  0.000152  0.000202  0.000489  0.000026
  7   -115.73770328  -0.0000007219  0.000056  0.000109  0.000208  0.000011
  8   -115.73770334  -0.0000000574  0.000020  0.000017  0.000030  0.000001
  9   -115.73770335  -0.0000000056  0.000010  0.000008  0.000015  0.000001
 10   -115.73770335  -0.0000000015  0.000003  0.000003  0.000003  0.000000
                  ***Gradient check signals convergence***
              ***Rediagonalizing the Fockian in SOSCF/NRSCF***

               *****************************************************
               *                     SUCCESS                       *
               *           SCF CONVERGED AFTER  11 CYCLES          *
               *****************************************************

Setting up the final grid:

General Integration Accuracy     IntAcc      ...  5.340
Radial Grid Type                 RadialGrid  ... Gauss-Chebyshev
Angular Grid (max. acc.)         AngularGrid ... Lebedev-590
Angular grid pruning method      GridPruning ... 3 (G Style)
Weight generation scheme         WeightScheme... Becke
Basis function cutoff            BFCut       ...    1.0000e-11
Integration weight cutoff        WCut        ...    1.0000e-14
Grids for H and He will be reduced by one unit

# of grid points (after initial pruning)     ...  77324 (   0.0 sec)
# of grid points (after weights+screening)   ...  74513 (   0.0 sec)
nearest neighbour list constructed           ...    0.0 sec
Grid point re-assignment to atoms done       ...    0.0 sec
Grid point division into batches done        ...    0.8 sec
Reduced shell lists constructed in    0.8 sec

Total number of grid points                  ...    74513
Total number of batches                      ...     1167
Average number of points per batch           ...       63
Average number of grid points per atom       ...    12419
Average number of shells per batch           ...    32.94 (86.69%)
Average number of basis functions per batch  ...    76.38 (88.81%)
Average number of large shells per batch     ...    30.32 (92.04%)
Average number of large basis fcns per batch ...    71.55 (93.68%)
Maximum spatial batch extension              ...  13.18, 14.25, 15.48 au
Average spatial batch extension              ...   0.34,  0.36,  0.37 au

Final grid set up in    0.9 sec
Final integration                            ... done (   0.2 sec)
Change in XC energy                          ...    -0.000107568
Integrated number of electrons               ...    18.000000746
Previous integrated no of electrons          ...    18.000002275

----------------
TOTAL SCF ENERGY
----------------

Total Energy       :         -115.73781092 Eh           -3149.38595 eV

Components:
Nuclear Repulsion  :           40.43700756 Eh            1100.34692 eV
Electronic Energy  :         -156.17481848 Eh           -4249.73286 eV
One Electron Energy:         -237.29305925 Eh           -6457.07241 eV
Two Electron Energy:           81.11824077 Eh            2207.33955 eV

Virial components:
Potential Energy   :         -230.98818528 Eh           -6285.50807 eV
Kinetic Energy     :          115.25037436 Eh            3136.12212 eV
Virial Ratio       :            2.00422937


DFT components:
N(Alpha)           :        9.000000372780 electrons
N(Beta)            :        9.000000372780 electrons
N(Total)           :       18.000000745559 electrons
E(XC)              :      -10.655588031975 Eh       
DFET-embed. en.    :        0.000000000000 Eh       

---------------
SCF CONVERGENCE
---------------

  Last Energy change         ...   -5.6019e-11  Tolerance :   1.0000e-08
  Last MAX-Density change    ...    1.8744e-06  Tolerance :   1.0000e-07
  Last RMS-Density change    ...    7.7368e-08  Tolerance :   5.0000e-09
  Last Orbital Gradient      ...    1.3502e-06  Tolerance :   1.0000e-05
  Last Orbital Rotation      ...    7.8086e-07  Tolerance :   1.0000e-05

             **** THE GBW FILE WAS UPDATED (7_geo_opt.gbw) ****
             **** DENSITY FILE WAS UPDATED (7_geo_opt.scfp.tmp) ****
             **** ENERGY FILE WAS UPDATED (7_geo_opt.en.tmp) ****
----------------
ORBITAL ENERGIES
----------------

  NO   OCC          E(Eh)            E(eV) 
   0   2.0000     -19.228127      -523.2239 
   1   2.0000     -10.315116      -280.6886 
   2   2.0000      -1.136812       -30.9342 
   3   2.0000      -0.795374       -21.6432 
   4   2.0000      -0.611562       -16.6414 
   5   2.0000      -0.541826       -14.7438 
   6   2.0000      -0.526333       -14.3223 
   7   2.0000      -0.433731       -11.8024 
   8   2.0000      -0.373661       -10.1678 
   9   0.0000       0.116667         3.1747 
  10   0.0000       0.156620         4.2619 
  11   0.0000       0.202609         5.5133 
  12   0.0000       0.205138         5.5821 
  13   0.0000       0.226330         6.1588 
  14   0.0000       0.304371         8.2824 
  15   0.0000       0.313459         8.5297 
  16   0.0000       0.404478        11.0064 
  17   0.0000       0.452640        12.3170 
  18   0.0000       0.484886        13.1944 
  19   0.0000       0.535898        14.5825 
  20   0.0000       0.543684        14.7944 
  21   0.0000       0.567557        15.4440 
  22   0.0000       0.598609        16.2890 
  23   0.0000       0.603668        16.4266 
  24   0.0000       0.671286        18.2666 
  25   0.0000       0.778817        21.1927 
  26   0.0000       0.832077        22.6420 
  27   0.0000       0.861369        23.4390 
  28   0.0000       0.989666        26.9302 
  29   0.0000       1.013912        27.5900 
  30   0.0000       1.109740        30.1976 
  31   0.0000       1.382596        37.6223 
  32   0.0000       1.513106        41.1737 
  33   0.0000       1.553618        42.2761 
  34   0.0000       1.602678        43.6111 
  35   0.0000       1.612962        43.8909 
  36   0.0000       1.624509        44.2051 
  37   0.0000       1.660339        45.1801 
  38   0.0000       1.687837        45.9284 
  39   0.0000       1.774830        48.2956 
  40   0.0000       1.952072        53.1186 
  41   0.0000       2.030560        55.2543 
  42   0.0000       2.055401        55.9303 
  43   0.0000       2.093805        56.9753 
  44   0.0000       2.114562        57.5402 
  45   0.0000       2.268481        61.7285 
  46   0.0000       2.333405        63.4952 
  47   0.0000       2.345858        63.8341 
  48   0.0000       2.381117        64.7935 
  49   0.0000       2.429154        66.1006 
  50   0.0000       2.498302        67.9822 
  51   0.0000       2.595834        70.6362 
  52   0.0000       2.640337        71.8472 
  53   0.0000       2.707155        73.6654 
  54   0.0000       2.842302        77.3430 
  55   0.0000       2.871167        78.1284 
  56   0.0000       2.888197        78.5918 
  57   0.0000       2.992553        81.4315 
  58   0.0000       3.096024        84.2471 
  59   0.0000       3.173220        86.3477 
  60   0.0000       3.298510        89.7570 
  61   0.0000       3.407658        92.7271 
  62   0.0000       3.442066        93.6634 
  63   0.0000       3.488629        94.9304 
  64   0.0000       3.612200        98.2930 
  65   0.0000       3.645189        99.1906 
  66   0.0000       3.667387        99.7947 
  67   0.0000       4.005558       108.9968 
  68   0.0000       4.223249       114.9204 
  69   0.0000       4.274300       116.3096 
  70   0.0000       4.455351       121.2363 
  71   0.0000       4.564313       124.2013 
  72   0.0000       5.346047       145.4733 
  73   0.0000       5.425373       147.6319 
  74   0.0000       5.554271       151.1394 
  75   0.0000       5.826116       158.5367 
  76   0.0000       5.834101       158.7540 
  77   0.0000       5.985603       162.8765 
  78   0.0000       6.379525       173.5957 
  79   0.0000       6.530769       177.7113 
  80   0.0000       6.744923       183.5387 
  81   0.0000       6.803936       185.1445 
  82   0.0000       7.039348       191.5504 
  83   0.0000       7.215780       196.3514 
  84   0.0000      22.406182       609.7032 
  85   0.0000      43.664137      1188.1616 

                    ********************************
                    * MULLIKEN POPULATION ANALYSIS *
                    ********************************

-----------------------
MULLIKEN ATOMIC CHARGES
-----------------------
   0 C :   -0.150943
   1 O :   -0.477609
   2 H :    0.313050
   3 H :    0.098696
   4 H :    0.118191
   5 H :    0.098616
Sum of atomic charges:   -0.0000000

--------------------------------
MULLIKEN REDUCED ORBITAL CHARGES
--------------------------------
  0 C s       :     3.223012  s :     3.223012
      pz      :     1.047073  p :     2.826258
      px      :     0.702204
      py      :     1.076981
      dz2     :     0.011082  d :     0.094254
      dxz     :     0.032516
      dyz     :     0.002666
      dx2y2   :     0.012701
      dxy     :     0.035289
      f0      :     0.001356  f :     0.007419
      f+1     :     0.000957
      f-1     :     0.000175
      f+2     :     0.001461
      f-2     :     0.000124
      f+3     :     0.001362
      f-3     :     0.001984
  1 O s       :     3.792784  s :     3.792784
      pz      :     1.759451  p :     4.652566
      px      :     1.313589
      py      :     1.579527
      dz2     :     0.003135  d :     0.030573
      dxz     :     0.006474
      dyz     :     0.005835
      dx2y2   :     0.008937
      dxy     :     0.006191
      f0      :     0.000269  f :     0.001685
      f+1     :     0.000233
      f-1     :     0.000087
      f+2     :     0.000287
      f-2     :     0.000235
      f+3     :     0.000367
      f-3     :     0.000206
  2 H s       :     0.639258  s :     0.639258
      pz      :     0.017007  p :     0.047693
      px      :     0.012719
      py      :     0.017967
  3 H s       :     0.881939  s :     0.881939
      pz      :     0.012073  p :     0.019365
      px      :     0.003006
      py      :     0.004286
  4 H s       :     0.861586  s :     0.861586
      pz      :     0.006303  p :     0.020222
      px      :     0.004203
      py      :     0.009717
  5 H s       :     0.882014  s :     0.882014
      pz      :     0.004937  p :     0.019370
      px      :     0.004986
      py      :     0.009446


                     *******************************
                     * LOEWDIN POPULATION ANALYSIS *
                     *******************************

----------------------
LOEWDIN ATOMIC CHARGES
----------------------
   0 C :   -0.385237
   1 O :   -0.076058
   2 H :    0.165812
   3 H :    0.093427
   4 H :    0.108670
   5 H :    0.093387

-------------------------------
LOEWDIN REDUCED ORBITAL CHARGES
-------------------------------
  0 C s       :     2.862870  s :     2.862870
      pz      :     1.096470  p :     3.052378
      px      :     0.846045
      py      :     1.109863
      dz2     :     0.072351  d :     0.412984
      dxz     :     0.114118
      dyz     :     0.020753
      dx2y2   :     0.082025
      dxy     :     0.123736
      f0      :     0.007818  f :     0.057005
      f+1     :     0.007160
      f-1     :     0.000854
      f+2     :     0.012514
      f-2     :     0.004853
      f+3     :     0.011734
      f-3     :     0.012072
  1 O s       :     3.366276  s :     3.366276
      pz      :     1.699068  p :     4.633583
      px      :     1.381161
      py      :     1.553354
      dz2     :     0.006126  d :     0.071555
      dxz     :     0.017859
      dyz     :     0.008085
      dx2y2   :     0.019338
      dxy     :     0.020147
      f0      :     0.000483  f :     0.004644
      f+1     :     0.000622
      f-1     :     0.000072
      f+2     :     0.001050
      f-2     :     0.000560
      f+3     :     0.000890
      f-3     :     0.000966
  2 H s       :     0.675108  s :     0.675108
      pz      :     0.055753  p :     0.159080
      px      :     0.033900
      py      :     0.069427
  3 H s       :     0.846747  s :     0.846747
      pz      :     0.036183  p :     0.059826
      px      :     0.009710
      py      :     0.013933
  4 H s       :     0.831728  s :     0.831728
      pz      :     0.019226  p :     0.059602
      px      :     0.011631
      py      :     0.028744
  5 H s       :     0.846781  s :     0.846781
      pz      :     0.015619  p :     0.059832
      px      :     0.015225
      py      :     0.028988


                      *****************************
                      * MAYER POPULATION ANALYSIS *
                      *****************************

  NA   - Mulliken gross atomic population
  ZA   - Total nuclear charge
  QA   - Mulliken gross atomic charge
  VA   - Mayer's total valence
  BVA  - Mayer's bonded valence
  FA   - Mayer's free valence

  ATOM       NA         ZA         QA         VA         BVA        FA
  0 C      6.1509     6.0000    -0.1509     3.9350     3.9350    -0.0000
  1 O      8.4776     8.0000    -0.4776     1.8882     1.8882     0.0000
  2 H      0.6870     1.0000     0.3130     0.9136     0.9136    -0.0000
  3 H      0.9013     1.0000     0.0987     0.9597     0.9597    -0.0000
  4 H      0.8818     1.0000     0.1182     0.9597     0.9597     0.0000
  5 H      0.9014     1.0000     0.0986     0.9595     0.9595    -0.0000

  Mayer bond orders larger than 0.1
B(  0-C ,  1-O ) :   0.9988 B(  0-C ,  3-H ) :   0.9756 B(  0-C ,  4-H ) :   0.9749 
B(  0-C ,  5-H ) :   0.9755 B(  1-O ,  2-H ) :   0.9002 

-------
TIMINGS
-------

Total SCF time: 0 days 0 hours 0 min 8 sec 

Total time                  ....       8.916 sec
Sum of individual times     ....       8.441 sec  ( 94.7%)

Fock matrix formation       ....       6.844 sec  ( 76.8%)
  XC integration            ....       1.901 sec  ( 27.8% of F)
    Basis function eval.    ....       0.412 sec  ( 21.7% of XC)
    Density eval.           ....       0.266 sec  ( 14.0% of XC)
    XC-Functional eval.     ....       0.669 sec  ( 35.2% of XC)
    XC-Potential eval.      ....       0.270 sec  ( 14.2% of XC)
Diagonalization             ....       0.021 sec  (  0.2%)
Density matrix formation    ....       0.002 sec  (  0.0%)
Population analysis         ....       0.017 sec  (  0.2%)
Initial guess               ....       0.175 sec  (  2.0%)
Orbital Transformation      ....       0.000 sec  (  0.0%)
Orbital Orthonormalization  ....       0.000 sec  (  0.0%)
DIIS solution               ....       0.027 sec  (  0.3%)
SOSCF solution              ....       0.014 sec  (  0.2%)
Grid generation             ....       1.340 sec  ( 15.0%)


-------------------------------------------------------------------------------
                          DFT DISPERSION CORRECTION                            
                                                                               
                              DFTD3 V3.1  Rev 1                                
                              USING zero damping                               
-------------------------------------------------------------------------------
The omegaB97X-D3 functional is recognized. Fit by Chai et al.
Active option DFTDOPT                   ...         3   

molecular C6(AA) [au] = 208.715771 


            DFT-D V3
 parameters
 s6 scaling factor         :     1.0000 
 rs6 scaling factor        :     1.2810 
 s8 scaling factor         :     1.0000 
 rs8 scaling factor        :     1.0940 
 Damping factor alpha6     :    14.0000 
 Damping factor alpha8     :    16.0000 
 ad hoc parameters k1-k3   :    16.0000     1.3333    -4.0000 

 Edisp/kcal,au: -0.150285070845  -0.000239494479 
 E6   /kcal   :  -0.029645040 
 E8   /kcal   :  -0.120640031 
 % E8         :  80.274128704 

-------------------------   ----------------
Dispersion correction           -0.000239494
-------------------------   ----------------


-------------------------   --------------------
FINAL SINGLE POINT ENERGY      -115.738050412236
-------------------------   --------------------



           ************************************************************
           *        Program running with 4 parallel MPI-processes     *
           *              working on a common directory               *
           ************************************************************
------------------------------------------------------------------------------
                         ORCA SCF GRADIENT CALCULATION
------------------------------------------------------------------------------

Gradient of the Kohn-Sham DFT energy:
Kohn-Sham wavefunction type      ... RKS
Hartree-Fock exchange scaling    ...    0.196
Number of operators              ...    1
Number of atoms                  ...    6
Basis set dimensions             ...   86
Integral neglect threshold       ... 2.5e-11
Integral primitive cutoff        ... 2.5e-12

Nuclear repulsion gradient       ... done
One Electron Gradient            ... done
Pre-screening matrix             ... done
Starting the two electron gradient:
Two electron gradient done
Exchange-correlation gradient    ... done
Dispersion correction            ... done

------------------
CARTESIAN GRADIENT
------------------

   1   C   :    0.000084937    0.000026972   -0.000234815
   2   O   :    0.000130032   -0.000021883   -0.000003066
   3   H   :    0.000013908    0.000006780   -0.000007894
   4   H   :    0.000045530    0.000000430   -0.000050559
   5   H   :   -0.000139804    0.000183774    0.000131253
   6   H   :   -0.000134603   -0.000196072    0.000165081

Difference to translation invariance:
           :    0.0000000000   -0.0000000000    0.0000000000

Norm of the cartesian gradient     ...    0.0004896600
RMS gradient                       ...    0.0001154140
MAX gradient                       ...    0.0002348151

-------
TIMINGS
-------

Total SCF gradient time            ...        1.761 sec

One electron gradient       ....       0.004 sec  (  0.2%)
Prescreening matrices       ....       0.025 sec  (  1.4%)
Two electron gradient       ....       0.839 sec  ( 47.7%)
XC gradient                 ....       0.606 sec  ( 34.4%)
------------------------------------------------------------------------------
                         ORCA GEOMETRY RELAXATION STEP
------------------------------------------------------------------------------

Reading the OPT-File                    .... done
Getting information on internals        .... done
Copying old internal coords+grads       .... done
Making the new internal coordinates     .... (new redundants).... done
Validating the new internal coordinates .... (new redundants).... done
Calculating the B-matrix                .... done
Calculating the G,G- and P matrices     .... done
Transforming gradient to internals      .... done
Projecting the internal gradient        .... done
Number of atoms                         ....   6
Number of internal coordinates          ....  15
Current Energy                          ....  -115.738050412 Eh
Current gradient norm                   ....     0.000489660 Eh/bohr
Maximum allowed component of the step   ....  0.300
Current trust radius                    ....  0.300
Evaluating the initial hessian          ....  (Almloef) done
Projecting the Hessian                  .... done
Forming the augmented Hessian           .... done
Diagonalizing the augmented Hessian     .... done
Last element of RFO vector              ....  0.999999866
Lowest eigenvalues of augmented Hessian:
 -0.000000086  0.021176452  0.184263498  0.268642309  0.324260704
Length of the computed step             ....  0.000518036
The final length of the internal step   ....  0.000518036
Converting the step to cartesian space:
 Initial RMS(Int)=    0.0001337562
Transforming coordinates:
 Iter   0:  RMS(Cart)=    0.0001268914 RMS(Int)=    0.0001337571
 Iter   1:  RMS(Cart)=    0.0000000138 RMS(Int)=    0.0000000133
Imposing constraints:
 Iter   0:  RMS(Cart)=    0.0000000003 RMS(Int)=    0.0000000006
CONVERGED
done
Storing new coordinates                 .... done

                                .--------------------.
          ----------------------|Geometry convergence|-------------------------
          Item                value                   Tolerance       Converged
          ---------------------------------------------------------------------
          RMS gradient        0.0000484973            0.0001000000      YES
          MAX gradient        0.0001386801            0.0003000000      YES
          RMS step            0.0001337562            0.0020000000      YES
          MAX step            0.0002682702            0.0040000000      YES
          ........................................................
          Max(Bonds)      0.0001      Max(Angles)    0.01
          Max(Dihed)        0.01      Max(Improp)    0.00
          ---------------------------------------------------------------------

                    ***********************HURRAY********************
                    ***        THE OPTIMIZATION HAS CONVERGED     ***
                    *************************************************


    ---------------------------------------------------------------------------
                         Redundant Internal Coordinates

                          --- Optimized Parameters ---  
                            (Angstroem and degrees)

        Definition                    OldVal   dE/dq     Step     FinalVal
    ----------------------------------------------------------------------------
     1. B(O   1,C   0)                1.4116  0.000139 -0.0001    1.4114   
     2. B(H   2,O   1)                0.9575  0.000014 -0.0000    0.9575   
     3. B(H   3,C   0)                1.0960  0.000041 -0.0001    1.0960   
     4. B(H   4,C   0)                1.0895 -0.000029  0.0000    1.0896   
     5. B(H   5,C   0)                1.0960 -0.000043  0.0001    1.0961   
     6. A(O   1,C   0,H   4)          107.07  0.000101    0.00    107.07   
     7. A(O   1,C   0,H   3)          112.23 -0.000050    0.01    112.24   
     8. A(O   1,C   0,H   5)          112.27  0.000151   -0.01    112.27   
     9. A(H   3,C   0,H   5)          108.82  0.000060   -0.01    108.81   
    10. A(H   4,C   0,H   5)          108.02 -0.000348   -0.00    108.02 C 
    11. A(H   3,C   0,H   4)          108.26  0.000070   -0.01    108.26   
    12. A(C   0,O   1,H   2)          108.75  0.000016   -0.00    108.75   
    13. D(H   2,O   1,C   0,H   5)    -61.53 -0.000146    0.01    -61.52   
    14. D(H   2,O   1,C   0,H   3)     61.43  0.000008    0.01     61.43   
    15. D(H   2,O   1,C   0,H   4)   -179.91  0.000129    0.01   -179.90   
    ----------------------------------------------------------------------------
                 *******************************************************
                 *** FINAL ENERGY EVALUATION AT THE STATIONARY POINT ***
                 ***               (AFTER    1 CYCLES)               ***
                 *******************************************************
---------------------------------
CARTESIAN COORDINATES (ANGSTROEM)
---------------------------------
  C      3.011412   -1.180937    0.598442
  O      4.394621   -1.128059    0.874305
  H      4.772090   -0.378972    0.412571
  H      2.806339   -1.319001   -0.469299
  H      2.610440   -2.039150    1.136814
  H      2.483867   -0.285501    0.946802

----------------------------
CARTESIAN COORDINATES (A.U.)
----------------------------
  NO LB      ZA    FRAG     MASS         X           Y           Z
   0 C     6.0000    0    12.011    5.690743   -2.231648    1.130891
   1 O     8.0000    0    15.999    8.304631   -2.131723    1.652197
   2 H     1.0000    0     1.008    9.017944   -0.716153    0.779646
   3 H     1.0000    0     1.008    5.303211   -2.492551   -0.886847
   4 H     1.0000    0     1.008    4.933017   -3.853435    2.148267
   5 H     1.0000    0     1.008    4.693828   -0.539518    1.789196

--------------------------------
INTERNAL COORDINATES (ANGSTROEM)
--------------------------------
 C      0   0   0     0.000000000000     0.00000000     0.00000000
 O      1   0   0     1.411440835122     0.00000000     0.00000000
 H      2   1   0     0.957503280855   108.74738596     0.00000000
 H      1   2   3     1.095987159149   112.24081400    61.43268347
 H      1   2   3     1.089564632589   107.07270675   180.09672894
 H      1   2   3     1.096113724815   112.26797793   298.48184999

---------------------------
INTERNAL COORDINATES (A.U.)
---------------------------
 C      0   0   0     0.000000000000     0.00000000     0.00000000
 O      1   0   0     2.667236632613     0.00000000     0.00000000
 H      2   1   0     1.809418973148   108.74738596     0.00000000
 H      1   2   3     2.071115577085   112.24081400    61.43268347
 H      1   2   3     2.058978760800   107.07270675   180.09672894
 H      1   2   3     2.071354751532   112.26797793   298.48184999

---------------------
BASIS SET INFORMATION
---------------------
There are 3 groups of distinct atoms

 Group   1 Type C   : 11s6p2d1f contracted to 5s3p2d1f pattern {62111/411/11/1}
 Group   2 Type O   : 11s6p2d1f contracted to 5s3p2d1f pattern {62111/411/11/1}
 Group   3 Type H   : 5s1p contracted to 3s1p pattern {311/1}

Atom   0C    basis set group =>   1
Atom   1O    basis set group =>   2
Atom   2H    basis set group =>   3
Atom   3H    basis set group =>   3
Atom   4H    basis set group =>   3
Atom   5H    basis set group =>   3


           ************************************************************
           *        Program running with 4 parallel MPI-processes     *
           *              working on a common directory               *
           ************************************************************
------------------------------------------------------------------------------
                           ORCA GTO INTEGRAL CALCULATION
------------------------------------------------------------------------------

                         BASIS SET STATISTICS AND STARTUP INFO

 # of primitive gaussian shells          ...   64
 # of primitive gaussian functions       ...  124
 # of contracted shells                  ...   38
 # of contracted basis functions         ...   86
 Highest angular momentum                ...    3
 Maximum contraction depth               ...    6
 Integral package used                   ... LIBINT
 Integral threshhold            Thresh   ...  2.500e-11
 Primitive cut-off              TCut     ...  2.500e-12


------------------------------ INTEGRAL EVALUATION ----------------------------


 * One electron integrals 
 Pre-screening matrix                    ... done
 Shell pair data                         ... done (   0.000 sec)



           ************************************************************
           *        Program running with 4 parallel MPI-processes     *
           *              working on a common directory               *
           ************************************************************
-------------------------------------------------------------------------------
                                 ORCA SCF
-------------------------------------------------------------------------------

------------
SCF SETTINGS
------------
Hamiltonian:
 Density Functional     Method          .... DFT(GTOs)
 Exchange Functional    Exchange        .... WB97X-D3
 Correlation Functional Correlation     .... WB97X-D3
 Gradients option       PostSCFGGA      .... off
 Hybrid DFT is turned on
   Fraction HF Exchange ScalHFX         ....  0.195728
   Scaling of DF-GGA-X  ScalDFX         ....  0.000000
   Scaling of DF-GGA-C  ScalDFC         ....  1.000000
   Scaling of DF-LDA-C  ScalLDAC        ....  1.000000
   Perturbative correction              ....  0.000000
   Density functional embedding theory  .... OFF
 Long-range corrected/Screened/Range-Separated Hybrid DFT is turned on
   Amount of maximum screened exact exchange              ....  0.804272
   Range separation parameter mu (erf(mu*r12)/r12)        ....  0.250000


General Settings:
 Integral files         IntName         .... 7_geo_opt
 Hartree-Fock type      HFTyp           .... RHF
 Total Charge           Charge          ....    0
 Multiplicity           Mult            ....    1
 Number of Electrons    NEL             ....   18
 Basis Dimension        Dim             ....   86
 Nuclear Repulsion      ENuc            ....     40.4391283226 Eh

Convergence Acceleration:
 DIIS                   CNVDIIS         .... on
   Start iteration      DIISMaxIt       ....    12
   Startup error        DIISStart       ....  0.200000
   # of expansion vecs  DIISMaxEq       ....     5
   Bias factor          DIISBfac        ....   1.050
   Max. coefficient     DIISMaxC        ....  10.000
 Newton-Raphson         CNVNR           .... off
 SOSCF                  CNVSOSCF        .... on
   Start iteration      SOSCFMaxIt      ....   150
   Startup grad/error   SOSCFStart      ....  0.003300
 Level Shifting         CNVShift        .... on
   Level shift para.    LevelShift      ....    0.2500
   Turn off err/grad.   ShiftErr        ....    0.0010
 Zerner damping         CNVZerner       .... off
 Static damping         CNVDamp         .... on
   Fraction old density DampFac         ....    0.7000
   Max. Damping (<1)    DampMax         ....    0.9800
   Min. Damping (>=0)   DampMin         ....    0.0000
   Turn off err/grad.   DampErr         ....    0.1000
 Fernandez-Rico         CNVRico         .... off

SCF Procedure:
 Maximum # iterations   MaxIter         ....   125
 SCF integral mode      SCFMode         .... Direct
   Integral package                     .... LIBINT
 Reset frequency        DirectResetFreq ....    20
 Integral Threshold     Thresh          ....  2.500e-11 Eh
 Primitive CutOff       TCut            ....  2.500e-12 Eh

Convergence Tolerance:
 Convergence Check Mode ConvCheckMode   .... Total+1el-Energy
 Convergence forced     ConvForced      .... 0
 Energy Change          TolE            ....  1.000e-08 Eh
 1-El. energy change                    ....  1.000e-05 Eh
 Orbital Gradient       TolG            ....  1.000e-05
 Orbital Rotation angle TolX            ....  1.000e-05
 DIIS Error             TolErr          ....  5.000e-07


Diagonalization of the overlap matrix:
Smallest eigenvalue                        ... 1.650e-03
Time for diagonalization                   ...    0.002 sec
Threshold for overlap eigenvalues          ... 1.000e-08
Number of eigenvalues below threshold      ... 0
Time for construction of square roots      ...    0.004 sec
Total time needed                          ...    0.006 sec

---------------------
INITIAL GUESS: MOREAD
---------------------
Guess MOs are being read from file: 7_geo_opt.gbw
Input Geometry matches current geometry (good)
Input basis set matches current basis set (good)
MOs were renormalized
MOs were reorthogonalized (Cholesky)
                      ------------------
                      INITIAL GUESS DONE (   0.0 sec)
                      ------------------
-------------------
DFT GRID GENERATION
-------------------

General Integration Accuracy     IntAcc      ...  5.010
Radial Grid Type                 RadialGrid  ... Gauss-Chebyshev
Angular Grid (max. acc.)         AngularGrid ... Lebedev-434
Angular grid pruning method      GridPruning ... 3 (G Style)
Weight generation scheme         WeightScheme... Becke
Basis function cutoff            BFCut       ...    1.0000e-11
Integration weight cutoff        WCut        ...    1.0000e-14
Grids for H and He will be reduced by one unit

# of grid points (after initial pruning)     ...  48308 (   0.0 sec)
# of grid points (after weights+screening)   ...  46676 (   0.0 sec)
nearest neighbour list constructed           ...    0.0 sec
Grid point re-assignment to atoms done       ...    0.0 sec
Grid point division into batches done        ...    0.3 sec
Reduced shell lists constructed in    0.3 sec

Total number of grid points                  ...    46676
Total number of batches                      ...      733
Average number of points per batch           ...       63
Average number of grid points per atom       ...     7779
Average number of shells per batch           ...    33.14 (87.20%)
Average number of basis functions per batch  ...    76.84 (89.35%)
Average number of large shells per batch     ...    30.60 (92.35%)
Average number of large basis fcns per batch ...    72.30 (94.08%)
Maximum spatial batch extension              ...  15.77, 14.99, 16.58 au
Average spatial batch extension              ...   0.40,  0.42,  0.42 au

Time for grid setup =    0.388 sec

--------------
SCF ITERATIONS
--------------
ITER       Energy         Delta-E        Max-DP      RMS-DP      [F,P]     Damp
               ***  Starting incremental Fock matrix formation  ***
                      *** Initiating the SOSCF procedure ***
                      *** Re-Reading the Fockian *** 
                      *** Removing any level shift *** 
ITER      Energy       Delta-E        Grad      Rot      Max-DP    RMS-DP
  0   -115.73770337 -115.7377033737  0.000016  0.000016  0.000033  0.000002
               *** Restarting incremental Fock matrix formation ***
  1   -115.73770339  -0.0000000130  0.000008  0.000012  0.000014  0.000001
  2   -115.73770339  -0.0000000018  0.000006  0.000006  0.000008  0.000000
                  ***Gradient check signals convergence***
              ***Rediagonalizing the Fockian in SOSCF/NRSCF***

               *****************************************************
               *                     SUCCESS                       *
               *           SCF CONVERGED AFTER   3 CYCLES          *
               *****************************************************

Setting up the final grid:

General Integration Accuracy     IntAcc      ...  5.340
Radial Grid Type                 RadialGrid  ... Gauss-Chebyshev
Angular Grid (max. acc.)         AngularGrid ... Lebedev-590
Angular grid pruning method      GridPruning ... 3 (G Style)
Weight generation scheme         WeightScheme... Becke
Basis function cutoff            BFCut       ...    1.0000e-11
Integration weight cutoff        WCut        ...    1.0000e-14
Grids for H and He will be reduced by one unit

# of grid points (after initial pruning)     ...  77324 (   0.0 sec)
# of grid points (after weights+screening)   ...  74513 (   0.0 sec)
nearest neighbour list constructed           ...    0.0 sec
Grid point re-assignment to atoms done       ...    0.0 sec
Grid point division into batches done        ...    0.8 sec
Reduced shell lists constructed in    0.8 sec

Total number of grid points                  ...    74513
Total number of batches                      ...     1167
Average number of points per batch           ...       63
Average number of grid points per atom       ...    12419
Average number of shells per batch           ...    32.94 (86.68%)
Average number of basis functions per batch  ...    76.37 (88.80%)
Average number of large shells per batch     ...    30.30 (92.00%)
Average number of large basis fcns per batch ...    71.51 (93.64%)
Maximum spatial batch extension              ...  13.18, 14.25, 15.48 au
Average spatial batch extension              ...   0.34,  0.36,  0.37 au

Final grid set up in    0.9 sec
Final integration                            ... done (   0.2 sec)
Change in XC energy                          ...    -0.000107638
Integrated number of electrons               ...    18.000000745
Previous integrated no of electrons          ...    18.000002271

----------------
TOTAL SCF ENERGY
----------------

Total Energy       :         -115.73781103 Eh           -3149.38595 eV

Components:
Nuclear Repulsion  :           40.43912832 Eh            1100.40463 eV
Electronic Energy  :         -156.17693935 Eh           -4249.79057 eV
One Electron Energy:         -237.29715784 Eh           -6457.18394 eV
Two Electron Energy:           81.12021849 Eh            2207.39337 eV

Virial components:
Potential Energy   :         -230.98847302 Eh           -6285.51590 eV
Kinetic Energy     :          115.25066200 Eh            3136.12995 eV
Virial Ratio       :            2.00422687


DFT components:
N(Alpha)           :        9.000000372509 electrons
N(Beta)            :        9.000000372509 electrons
N(Total)           :       18.000000745019 electrons
E(XC)              :      -10.655642386904 Eh       
DFET-embed. en.    :        0.000000000000 Eh       

---------------
SCF CONVERGENCE
---------------

  Last Energy change         ...   -3.4068e-10  Tolerance :   1.0000e-08
  Last MAX-Density change    ...    3.7009e-06  Tolerance :   1.0000e-07
  Last RMS-Density change    ...    1.6090e-07  Tolerance :   5.0000e-09
  Last Orbital Gradient      ...    1.6463e-06  Tolerance :   1.0000e-05
  Last Orbital Rotation      ...    1.1874e-06  Tolerance :   1.0000e-05

             **** THE GBW FILE WAS UPDATED (7_geo_opt.gbw) ****
             **** DENSITY FILE WAS UPDATED (7_geo_opt.scfp.tmp) ****
             **** ENERGY FILE WAS UPDATED (7_geo_opt.en.tmp) ****
----------------
ORBITAL ENERGIES
----------------

  NO   OCC          E(Eh)            E(eV) 
   0   2.0000     -19.228121      -523.2238 
   1   2.0000     -10.315104      -280.6883 
   2   2.0000      -1.136859       -30.9355 
   3   2.0000      -0.795365       -21.6430 
   4   2.0000      -0.611592       -16.6423 
   5   2.0000      -0.541833       -14.7440 
   6   2.0000      -0.526347       -14.3226 
   7   2.0000      -0.433721       -11.8022 
   8   2.0000      -0.373653       -10.1676 
   9   0.0000       0.116669         3.1747 
  10   0.0000       0.156627         4.2620 
  11   0.0000       0.202609         5.5133 
  12   0.0000       0.205145         5.5823 
  13   0.0000       0.226349         6.1593 
  14   0.0000       0.304380         8.2826 
  15   0.0000       0.313458         8.5296 
  16   0.0000       0.404534        11.0079 
  17   0.0000       0.452668        12.3177 
  18   0.0000       0.484890        13.1945 
  19   0.0000       0.535889        14.5823 
  20   0.0000       0.543676        14.7942 
  21   0.0000       0.567556        15.4440 
  22   0.0000       0.598621        16.2893 
  23   0.0000       0.603673        16.4268 
  24   0.0000       0.671285        18.2666 
  25   0.0000       0.778825        21.1929 
  26   0.0000       0.832081        22.6421 
  27   0.0000       0.861364        23.4389 
  28   0.0000       0.989667        26.9302 
  29   0.0000       1.013916        27.5901 
  30   0.0000       1.109784        30.1987 
  31   0.0000       1.382601        37.6225 
  32   0.0000       1.513106        41.1737 
  33   0.0000       1.553661        42.2773 
  34   0.0000       1.602684        43.6112 
  35   0.0000       1.612995        43.8918 
  36   0.0000       1.624528        44.2057 
  37   0.0000       1.660300        45.1791 
  38   0.0000       1.687863        45.9291 
  39   0.0000       1.774850        48.2961 
  40   0.0000       1.952070        53.1185 
  41   0.0000       2.030550        55.2541 
  42   0.0000       2.055422        55.9309 
  43   0.0000       2.093822        56.9758 
  44   0.0000       2.114567        57.5403 
  45   0.0000       2.268468        61.7282 
  46   0.0000       2.333485        63.4973 
  47   0.0000       2.345859        63.8341 
  48   0.0000       2.381166        64.7948 
  49   0.0000       2.429212        66.1022 
  50   0.0000       2.498306        67.9824 
  51   0.0000       2.595834        70.6362 
  52   0.0000       2.640324        71.8469 
  53   0.0000       2.707200        73.6667 
  54   0.0000       2.842383        77.3452 
  55   0.0000       2.871195        78.1292 
  56   0.0000       2.888212        78.5923 
  57   0.0000       2.992578        81.4322 
  58   0.0000       3.096054        84.2479 
  59   0.0000       3.173258        86.3487 
  60   0.0000       3.298529        89.7575 
  61   0.0000       3.407573        92.7248 
  62   0.0000       3.442125        93.6650 
  63   0.0000       3.488712        94.9327 
  64   0.0000       3.612338        98.2967 
  65   0.0000       3.645254        99.1924 
  66   0.0000       3.667419        99.7955 
  67   0.0000       4.005627       108.9987 
  68   0.0000       4.223284       114.9214 
  69   0.0000       4.274258       116.3085 
  70   0.0000       4.455240       121.2333 
  71   0.0000       4.564268       124.2000 
  72   0.0000       5.346119       145.4753 
  73   0.0000       5.425469       147.6345 
  74   0.0000       5.554314       151.1406 
  75   0.0000       5.826357       158.5432 
  76   0.0000       5.834234       158.7576 
  77   0.0000       5.985831       162.8827 
  78   0.0000       6.379594       173.5976 
  79   0.0000       6.530798       177.7121 
  80   0.0000       6.744965       183.5398 
  81   0.0000       6.804017       185.1467 
  82   0.0000       7.039342       191.5502 
  83   0.0000       7.215849       196.3532 
  84   0.0000      22.406498       609.7118 
  85   0.0000      43.664183      1188.1628 

                    ********************************
                    * MULLIKEN POPULATION ANALYSIS *
                    ********************************

-----------------------
MULLIKEN ATOMIC CHARGES
-----------------------
   0 C :   -0.150931
   1 O :   -0.477571
   2 H :    0.313058
   3 H :    0.098683
   4 H :    0.118174
   5 H :    0.098587
Sum of atomic charges:   -0.0000000

--------------------------------
MULLIKEN REDUCED ORBITAL CHARGES
--------------------------------
  0 C s       :     3.222983  s :     3.222983
      pz      :     1.047077  p :     2.826251
      px      :     0.702203
      py      :     1.076972
      dz2     :     0.011082  d :     0.094275
      dxz     :     0.032527
      dyz     :     0.002666
      dx2y2   :     0.012700
      dxy     :     0.035299
      f0      :     0.001356  f :     0.007421
      f+1     :     0.000957
      f-1     :     0.000175
      f+2     :     0.001462
      f-2     :     0.000124
      f+3     :     0.001362
      f-3     :     0.001985
  1 O s       :     3.792768  s :     3.792768
      pz      :     1.759447  p :     4.652538
      px      :     1.313635
      py      :     1.579457
      dz2     :     0.003136  d :     0.030580
      dxz     :     0.006476
      dyz     :     0.005835
      dx2y2   :     0.008939
      dxy     :     0.006193
      f0      :     0.000269  f :     0.001685
      f+1     :     0.000233
      f-1     :     0.000087
      f+2     :     0.000287
      f-2     :     0.000235
      f+3     :     0.000367
      f-3     :     0.000206
  2 H s       :     0.639249  s :     0.639249
      pz      :     0.017007  p :     0.047693
      px      :     0.012719
      py      :     0.017968
  3 H s       :     0.881950  s :     0.881950
      pz      :     0.012073  p :     0.019367
      px      :     0.003007
      py      :     0.004287
  4 H s       :     0.861604  s :     0.861604
      pz      :     0.006303  p :     0.020222
      px      :     0.004203
      py      :     0.009716
  5 H s       :     0.882045  s :     0.882045
      pz      :     0.004936  p :     0.019368
      px      :     0.004985
      py      :     0.009446


                     *******************************
                     * LOEWDIN POPULATION ANALYSIS *
                     *******************************

----------------------
LOEWDIN ATOMIC CHARGES
----------------------
   0 C :   -0.385358
   1 O :   -0.075943
   2 H :    0.165823
   3 H :    0.093405
   4 H :    0.108678
   5 H :    0.093395

-------------------------------
LOEWDIN REDUCED ORBITAL CHARGES
-------------------------------
  0 C s       :     2.862838  s :     2.862838
      pz      :     1.096473  p :     3.052391
      px      :     0.846088
      py      :     1.109830
      dz2     :     0.072360  d :     0.413099
      dxz     :     0.114177
      dyz     :     0.020753
      dx2y2   :     0.082035
      dxy     :     0.123774
      f0      :     0.007819  f :     0.057029
      f+1     :     0.007164
      f-1     :     0.000854
      f+2     :     0.012520
      f-2     :     0.004856
      f+3     :     0.011737
      f-3     :     0.012079
  1 O s       :     3.366190  s :     3.366190
      pz      :     1.699030  p :     4.633526
      px      :     1.381228
      py      :     1.553268
      dz2     :     0.006129  d :     0.071581
      dxz     :     0.017866
      dyz     :     0.008085
      dx2y2   :     0.019345
      dxy     :     0.020156
      f0      :     0.000484  f :     0.004646
      f+1     :     0.000622
      f-1     :     0.000072
      f+2     :     0.001051
      f-2     :     0.000560
      f+3     :     0.000890
      f-3     :     0.000967
  2 H s       :     0.675095  s :     0.675095
      pz      :     0.055752  p :     0.159081
      px      :     0.033900
      py      :     0.069430
  3 H s       :     0.846760  s :     0.846760
      pz      :     0.036185  p :     0.059836
      px      :     0.009713
      py      :     0.013937
  4 H s       :     0.831728  s :     0.831728
      pz      :     0.019224  p :     0.059594
      px      :     0.011631
      py      :     0.028739
  5 H s       :     0.846786  s :     0.846786
      pz      :     0.015615  p :     0.059820
      px      :     0.015220
      py      :     0.028985


                      *****************************
                      * MAYER POPULATION ANALYSIS *
                      *****************************

  NA   - Mulliken gross atomic population
  ZA   - Total nuclear charge
  QA   - Mulliken gross atomic charge
  VA   - Mayer's total valence
  BVA  - Mayer's bonded valence
  FA   - Mayer's free valence

  ATOM       NA         ZA         QA         VA         BVA        FA
  0 C      6.1509     6.0000    -0.1509     3.9350     3.9350    -0.0000
  1 O      8.4776     8.0000    -0.4776     1.8882     1.8882    -0.0000
  2 H      0.6869     1.0000     0.3131     0.9136     0.9136    -0.0000
  3 H      0.9013     1.0000     0.0987     0.9597     0.9597    -0.0000
  4 H      0.8818     1.0000     0.1182     0.9597     0.9597    -0.0000
  5 H      0.9014     1.0000     0.0986     0.9595     0.9595    -0.0000

  Mayer bond orders larger than 0.1
B(  0-C ,  1-O ) :   0.9988 B(  0-C ,  3-H ) :   0.9755 B(  0-C ,  4-H ) :   0.9749 
B(  0-C ,  5-H ) :   0.9755 B(  1-O ,  2-H ) :   0.9002 

-------
TIMINGS
-------

Total SCF time: 0 days 0 hours 0 min 4 sec 

Total time                  ....       4.156 sec
Sum of individual times     ....       3.832 sec  ( 92.2%)

Fock matrix formation       ....       2.456 sec  ( 59.1%)
  XC integration            ....       0.779 sec  ( 31.7% of F)
    Basis function eval.    ....       0.172 sec  ( 22.1% of XC)
    Density eval.           ....       0.112 sec  ( 14.3% of XC)
    XC-Functional eval.     ....       0.277 sec  ( 35.6% of XC)
    XC-Potential eval.      ....       0.109 sec  ( 14.1% of XC)
Diagonalization             ....       0.013 sec  (  0.3%)
Density matrix formation    ....       0.002 sec  (  0.1%)
Population analysis         ....       0.013 sec  (  0.3%)
Initial guess               ....       0.004 sec  (  0.1%)
Orbital Transformation      ....       0.000 sec  (  0.0%)
Orbital Orthonormalization  ....       0.001 sec  (  0.0%)
DIIS solution               ....       0.000 sec  (  0.0%)
SOSCF solution              ....       0.009 sec  (  0.2%)
Grid generation             ....       1.335 sec  ( 32.1%)


-------------------------------------------------------------------------------
                          DFT DISPERSION CORRECTION                            
                                                                               
                              DFTD3 V3.1  Rev 1                                
                              USING zero damping                               
-------------------------------------------------------------------------------
The omegaB97X-D3 functional is recognized. Fit by Chai et al.
Active option DFTDOPT                   ...         3   

molecular C6(AA) [au] = 208.715618 


            DFT-D V3
 parameters
 s6 scaling factor         :     1.0000 
 rs6 scaling factor        :     1.2810 
 s8 scaling factor         :     1.0000 
 rs8 scaling factor        :     1.0940 
 Damping factor alpha6     :    14.0000 
 Damping factor alpha8     :    16.0000 
 ad hoc parameters k1-k3   :    16.0000     1.3333    -4.0000 

 Edisp/kcal,au: -0.150253717170  -0.000239444514 
 E6   /kcal   :  -0.029638170 
 E8   /kcal   :  -0.120615547 
 % E8         :  80.274584269 

-------------------------   ----------------
Dispersion correction           -0.000239445
-------------------------   ----------------


-------------------------   --------------------
FINAL SINGLE POINT ENERGY      -115.738050471375
-------------------------   --------------------

                                *** OPTIMIZATION RUN DONE ***

                            ***************************************
                            *     ORCA property calculations      *
                            ***************************************

                                    ---------------------
                                    Active property flags
                                    ---------------------
   (+) Dipole Moment


------------------------------------------------------------------------------
                       ORCA ELECTRIC PROPERTIES CALCULATION
------------------------------------------------------------------------------

Dipole Moment Calculation                       ... on
Quadrupole Moment Calculation                   ... off
Polarizability Calculation                      ... off
GBWName                                         ... 7_geo_opt.gbw
Electron density file                           ... 7_geo_opt.scfp.tmp
The origin for moment calculation is the CENTER OF MASS  = ( 7.033172, -2.140073  1.369376)

-------------
DIPOLE MOMENT
-------------
                                X             Y             Z
Electronic contribution:      1.75785      -0.02835       0.41826
Nuclear contribution   :     -2.06759       0.47599      -0.81558
                        -----------------------------------------
Total Dipole Moment    :     -0.30974       0.44764      -0.39731
                        -----------------------------------------
Magnitude (a.u.)       :      0.67393
Magnitude (Debye)      :      1.71299



--------------------
Rotational spectrum 
--------------------
 
Rotational constants in cm-1:     4.294478     0.833722     0.804956 
Rotational constants in MHz : 128745.211975 24994.357866 24131.984553 

 Dipole components along the rotational axes: 
x,y,z [a.u.] :    -0.332715     0.586066    -0.002344 
x,y,z [Debye]:    -0.845695     1.489660    -0.005957 

 
------------------------------------------------------------------------------
                      ORCA CHELPG CHARGES GENERATION
------------------------------------------------------------------------------

GBW file                           ... 7_geo_opt.gbw

Reading the GBW file               ... done

Grid spacing                       ...     0.300000
Point Cut-Off                      ...     2.800000
Van-der-Waals Radii                ...        COSMO
Total charge                       ...            0


Number of points X direction       ...           26
Number of points Y direction       ...           24
Number of points Z direction       ...           24
Maximum number of possible points  ...        14976
Final number of points             ...         5945


CHELPG Charges            
--------------------------------
  0   C   :       0.094941
  1   O   :      -0.606894
  2   H   :       0.403715
  3   H   :       0.014214
  4   H   :       0.080563
  5   H   :       0.013461
--------------------------------
Total charge:     0.000000
--------------------------------

CHELPG charges calculated...

Timings for individual parts in CHELPG calculation:
Grid generation                 ...        0.002 sec (=   0.000 min)
Potential calculation           ...        0.682 sec (=   0.011 min)
Fit to the potential            ...        0.005 sec (=   0.000 min)
------------------------------------------------------------------------------


Timings for individual modules:

Sum of individual times         ...       30.723 sec (=   0.512 min)
GTO integral calculation        ...        5.763 sec (=   0.096 min)  18.8 %
SCF iterations                  ...       16.563 sec (=   0.276 min)  53.9 %
SCF Gradient evaluation         ...        2.883 sec (=   0.048 min)   9.4 %
Geometry relaxation             ...        3.055 sec (=   0.051 min)   9.9 %
CHELPG charge generation        ...        2.459 sec (=   0.041 min)   8.0 %
                             ****ORCA TERMINATED NORMALLY****
TOTAL RUN TIME: 0 days 0 hours 0 minutes 35 seconds 435 msec
