LAMMPS data file via vdw_self_gen.py, on 2021-08-05 13:21:30.072166

7000 atoms
8 atom types
6500 bonds
8 bond types
11000 angles
12 angle types
10000 dihedrals
8 dihedral types

-46.4463526844512842  46.4463526844512842 xlo xhi
-46.4463526844512842  46.4463526844512842 ylo yhi
-46.4463526844512842  46.4463526844512842 zlo zhi

Masses

1  1.007940
2  1.007940
3  12.011000
4  12.011000
5  12.011000
6  12.011000
7  15.999400
8  15.999400

Atoms

1         0    5   -0.1186820000000000  -34.4598378797735023 -5.9075344159566479  -35.2014125193697112 0 0 0
2         0    3    0.2337370000000000  -35.9487031183944907 -5.8485845066165343  -34.9131460766212598 0 0 0
3         0    7   -0.1823940000000000  -36.5490119115771037 -4.7602001127097937  -35.6307076480755143 0 0 0
4         0    4    0.2875520000000000  -36.8913243914779301 -5.0330896265911678  -36.9206333734635024 0 0 0
5         0    6    0.0550780000000000  -37.4841585706254179 -3.8174969272127295  -37.5635441568171231 0 0 0
6         0    8   -0.4278410000000000  -36.7405689549743926 -6.1050905103334232  -37.4867907402092300 0 0 0
7         0    1    0.0285690000000000  -33.9955548472659217 -6.7466133724954611  -34.6761428183405158 0 0 0
8         0    1    0.0285690000000000  -33.9719910895050603 -4.9797827243784578  -34.8848054445931268 0 0 0
9         0    1    0.0285690000000000  -34.2679793588839914 -6.0159057079610783  -36.2735706815507370 0 0 0
10        0    2   -0.0094320000000000  -36.1115632566404088 -5.6627239262795852  -33.8461575273634310 0 0 0
11        0    2   -0.0094320000000000  -36.4419536050625936 -6.7977346988353258  -35.1522729291759504 0 0 0
12        0    1    0.0285690000000000  -36.7711064465245201 -2.9900333150863081  -37.5220049028289537 0 0 0
13        0    1    0.0285690000000000  -38.4175690254798923 -3.5495503430229673  -37.0637372612170282 0 0 0
14        0    1    0.0285690000000000  -37.6978512189509587 -4.0355417661114021  -38.6142475955101148 0 0 0
15        1    5   -0.1186820000000000   5.3879744224221877  -23.9161882626580251  35.3702761773111334 0 0 0
16        1    3    0.2337370000000000   5.4757263652561070  -24.5774974664443739  36.7334570406290979 0 0 0
17        1    7   -0.1823940000000000   4.7122554026980827  -25.7927529680943834  36.7440400430441159 0 0 0
18        1    4    0.2875520000000000   5.3588175778329958  -26.8895127373439529  36.2596535651770751 0 0 0
19        1    6    0.0550780000000000   4.4534255491031107  -28.0814728403498037  36.3037969367594968 0 0 0
20        1    8   -0.4278410000000000   6.5069746951026950  -26.9141969667859371  35.8430324145140347 0 0 0
21        1    1    0.0285690000000000   5.9836168066649122  -22.9996434711649087  35.3442707224895258 0 0 0
22        1    1    0.0285690000000000   4.3484767985697310  -23.6681784576488496  35.1317524711005973 0 0 0
23        1    1    0.0285690000000000   5.7422668878915371  -24.5868776060149337  34.5811438643754983 0 0 0
24        1    2   -0.0094320000000000   5.0445694105638141  -23.9169019730156656  37.4932263600163367 0 0 0
25        1    2   -0.0094320000000000   6.5162686457259991  -24.7634717425554243  37.0233692907660839 0 0 0
26        1    1    0.0285690000000000   3.5481007632985602  -27.8820750345948909  35.7245798634889766 0 0 0
27        1    1    0.0285690000000000   4.2049540684054962  -28.3222923911600155  37.3397145248559212 0 0 0
28        1    1    0.0285690000000000   4.9664545600556469  -28.9383478501232467  35.8568604006082978 0 0 0
29        2    5   -0.1186820000000000   15.6548135122067276  38.0172653769976563 -26.5601735115690900 0 0 0
30        2    3    0.2337370000000000   15.1549113021319872  36.6724060955739617 -27.0548892138981181 0 0 0
31        2    7   -0.1823940000000000   15.7575696733090620  35.6117637455893856 -26.2987896583041483 0 0 0
32        2    4    0.2875520000000000   15.1424197470003303  35.3162420598610893 -25.1198866092256132 0 0 0
33        2    6    0.0550780000000000   15.8755038786395684  34.2142699648007422 -24.4193886379601359 0 0 0
34        2    8   -0.4278410000000000   14.1413889393880545  35.8623137920777637 -24.6814915296626651 0 0 0
35        2    1    0.0285690000000000   15.1857862734050499  38.8340698407830587 -27.1154791981979209 0 0 0
36        2    1    0.0285690000000000   16.7410529705045832  38.0885200501964079 -26.6783443310810213 0 0 0
37        2    1    0.0285690000000000   15.4430648997622395  38.1509781570855324 -25.4946405128923637 0 0 0
38        2    2   -0.0094320000000000   15.4469395277748252  36.5315329837428067 -28.1010280316421586 0 0 0
39        2    2   -0.0094320000000000   14.0612176599633472  36.6115304611575425 -27.0162607811794864 0 0 0
40        2    1    0.0285690000000000   16.9139184813671584  34.5093212809387140 -24.2476193031318736 0 0 0
41        2    1    0.0285690000000000   15.8263810903717452  33.2984593858527447 -25.0124614136460082 0 0 0
42        2    1    0.0285690000000000   15.4046779049479952  34.0305004804788283 -23.4489570355638364 0 0 0
43        3    5   -0.1186820000000000   5.9907907601008041  -37.9526760888285111 -15.8739969373354217 0 0 0
44        3    3    0.2337370000000000   6.3563676577877706  -36.7269753932883916 -15.0571103666109352 0 0 0
45        3    7   -0.1823940000000000   5.6793596605922820  -35.5702142278505420 -15.5703448381424536 0 0 0
46        3    4    0.2875520000000000   4.4068607610423705  -35.3930608954408470 -15.1176659838092693 0 0 0
47        3    6    0.0550780000000000   3.8049967941192389  -34.1712964869102223 -15.7401639721332103 0 0 0
48        3    8   -0.4278410000000000   3.8253697227297234  -36.1167165130678924 -14.3235388027237036 0 0 0
49        3    1    0.0285690000000000   6.4847577017206337  -38.8443669804366039 -15.4785168457885565 0 0 0
50        3    1    0.0285690000000000   6.2888248685994323  -37.8185801093148086 -16.9190575433529347 0 0 0
51        3    1    0.0285690000000000   4.9093159320243931  -38.1214582897645187 -15.8726118076279086 0 0 0
52        3    2   -0.0094320000000000   7.4317746989718820  -36.5360153620427113 -15.1381418817040103 0 0 0
53        3    2   -0.0094320000000000   6.1358219612443943  -36.8728447840140632 -13.9934160974783417 0 0 0
54        3    1    0.0285690000000000   3.8158811492219398  -34.2653509776662091 -16.8291544010547049 0 0 0
55        3    1    0.0285690000000000   4.3546189017184700  -33.2824026834015996 -15.4229247453308300 0 0 0
56        3    1    0.0285690000000000   2.7651413837175598  -34.0772148831093276 -15.4130016376803951 0 0 0
57        4    5   -0.1186820000000000   24.6119749824457088 -3.5817485262698803   35.6050196594688160 0 0 0
58        4    3    0.2337370000000000   25.9938126802818417 -3.7713374764156651   36.2032444829436670 0 0 0
59        4    7   -0.1823940000000000   26.0907045453076307 -5.0605862233325150   36.8263780801482881 0 0 0
60        4    4    0.2875520000000000   26.4003303395237303 -6.0891551712416803   35.9886832164580071 0 0 0
61        4    6    0.0550780000000000   26.4498471597744107 -7.3767216225820444   36.7516858167124454 0 0 0
62        4    8   -0.4278410000000000   26.6067873096166174 -5.9937083109980716   34.7883863045775712 0 0 0
63        4    1    0.0285690000000000   24.5335741380238872 -2.6105871770038598   35.1088146315965162 0 0 0
64        4    1    0.0285690000000000   23.8459686299305531 -3.6421116016024691   36.3851147170373252 0 0 0
65        4    1    0.0285690000000000   24.3845034314794908 -4.3666924740686754   34.8768734886932776 0 0 0
66        4    2   -0.0094320000000000   26.1655506426298459 -3.0208191979110492   36.9821928317570041 0 0 0
67        4    2   -0.0094320000000000   26.7791446371469206 -3.6376713286606313   35.4504159101126390 0 0 0
68        4    1    0.0285690000000000   25.4890353955139375 -7.5557224369979092   37.2412410564935428 0 0 0
69        4    1    0.0285690000000000   27.2580268159466179 -7.3439042431736672   37.4855972862087015 0 0 0
70        4    1    0.0285690000000000   26.6401490603332043 -8.1991161633327430   36.0555261929283830 0 0 0
71        5    5   -0.1186820000000000   25.4664037769066454 -7.1546323175672430  -5.4670221875177250  0 0 0
72        5    3    0.2337370000000000   26.6270457547899078 -6.1923064553408560  -5.6406063649805063  0 0 0
73        5    7   -0.1823940000000000   26.1403673491780602 -4.8485264223609290  -5.7719273357947287  0 0 0
74        5    4    0.2875520000000000   25.8870842421609559 -4.2048762844027019  -4.5984210233676865  0 0 0
75        5    6    0.0550780000000000   25.3667450504992082 -2.8271120055164540  -4.8694652403247094  0 0 0
76        5    8   -0.4278410000000000   26.0510757677721472 -4.6695235990975750  -3.4805404784190923  0 0 0
77        5    1    0.0285690000000000   25.8268311261641870 -8.1796463156719028  -5.3447155319478652  0 0 0
78        5    1    0.0285690000000000   24.8035692079442001 -7.1153533812151117  -6.3376916030523525  0 0 0
79        5    1    0.0285690000000000   24.8595993091488197 -6.8901735882483193  -4.5952842268344840  0 0 0
80        5    2   -0.0094320000000000   27.1712248227697764 -6.4315814874700994  -6.5604698033082354  0 0 0
81        5    2   -0.0094320000000000   27.3427264269921899 -6.2730808317775235  -4.8143857787280409  0 0 0
82        5    1    0.0285690000000000   24.4613193056643894 -2.8851379142353344  -5.4791389934153738  0 0 0
83        5    1    0.0285690000000000   26.1330478456488429 -2.2314021318140083  -5.3702318073190369  0 0 0
84        5    1    0.0285690000000000   25.1123697823150813 -2.3465292188728730  -3.9199815785810470  0 0 0
85        6    5   -0.1186820000000000  -14.6728295917951979 -5.8642582099330216   24.0618940889325650 0 0 0
86        6    3    0.2337370000000000  -15.5931206025613296 -6.3963358006762716   25.1450608468843910 0 0 0
87        6    7   -0.1823940000000000  -15.3916216518100590 -5.6700645839312598   26.3664429072872259 0 0 0
88        6    4    0.2875520000000000  -16.0816342402310966 -4.4999149025745124   26.4673748087911633 0 0 0
89        6    6    0.0550780000000000  -15.7708307502338414 -3.8303655110191244   27.7702781256083888 0 0 0
90        6    8   -0.4278410000000000  -16.8433176861908578 -4.0465427054028167   25.6266969636670190 0 0 0
91        6    1    0.0285690000000000  -14.8328893689978099 -6.3966038924816360   23.1203477914019011 0 0 0
92        6    1    0.0285690000000000  -13.6253573806193327 -5.9803043838413412   24.3590354427283202 0 0 0
93        6    1    0.0285690000000000  -14.8370483650749403 -4.7954278941729171   23.8924505752925675 0 0 0
94        6    2   -0.0094320000000000  -15.3559547404914518 -7.4459724701115384   25.3488925427648262 0 0 0
95        6    2   -0.0094320000000000  -16.6433436335611269 -6.3595121848771345   24.8335493895074784 0 0 0
96        6    1    0.0285690000000000  -14.6954853808226567 -3.6503459523718487   27.8483176392559955 0 0 0
97        6    1    0.0285690000000000  -16.1209457122994806 -4.4487565378844742   28.5996570699578392 0 0 0
98        6    1    0.0285690000000000  -16.2852667560834590 -2.8654769243129916   27.8094115758747051 0 0 0
99        7    5   -0.1186820000000000  -36.7906145658961492 -5.0977119541800713  -13.5492087488442667 0 0 0
100       7    3    0.2337370000000000  -37.4164088212496182 -5.1179516372978133  -14.9316935544728278 0 0 0
101       7    7   -0.1823940000000000  -36.4805520507038921 -4.6328627037653147  -15.9057093020293223 0 0 0
102       7    4    0.2875520000000000  -35.6009549241745589 -5.5594004532493440  -16.3783524988304734 0 0 0
103       7    6    0.0550780000000000  -34.6691848214612222 -4.9272792459912464  -17.3656110795093852 0 0 0
104       7    8   -0.4278410000000000  -35.5615144340447245 -6.7362375256304521  -16.0528586999528535 0 0 0
105       7    1    0.0285690000000000  -37.4879657885691344 -5.4854171275424424  -12.8016082812250005 0 0 0
106       7    1    0.0285690000000000  -36.5082358902198720 -4.0766984159972601  -13.2721683724174291 0 0 0
107       7    1    0.0285690000000000  -35.8758055956641826 -5.6979884172371129  -13.5197151972968541 0 0 0
108       7    2   -0.0094320000000000  -38.2839811762094939 -4.4498741287957921  -14.9545582815237967 0 0 0
109       7    2   -0.0094320000000000  -37.7757498209797262 -6.1193395697772743  -15.1952462744312715 0 0 0
110       7    1    0.0285690000000000  -34.1366096496812830 -4.0968398056551099  -16.8948681634312230 0 0 0
111       7    1    0.0285690000000000  -35.2286141842975269 -4.5832993822410941  -18.2382931656272369 0 0 0
112       7    1    0.0285690000000000  -33.9329819519848286 -5.6689815862305641  -17.6897542411806654 0 0 0
113       8    5   -0.1186820000000000  -24.0134344597851346  25.7507329261953544  6.1486325496370684  0 0 0
114       8    3    0.2337370000000000  -25.4831146074427615  25.7520638258674310  6.5272231264969074  0 0 0
115       8    7   -0.1823940000000000  -26.2657838423001877  26.3276149133170847  5.4708067031849517  0 0 0
116       8    4    0.2875520000000000  -26.6076906529883566  25.4713572621991915  4.4680717105736862  0 0 0
117       8    6    0.0550780000000000  -27.3996085898205237  26.1939038277784242  3.4224882887497099  0 0 0
118       8    8   -0.4278410000000000  -26.3163996342588575  24.2862540423589479  4.4121506856204888  0 0 0
119       8    1    0.0285690000000000  -23.4095549337891384  25.2947944283810457  6.9379170944583164  0 0 0
120       8    1    0.0285690000000000  -23.6607546334420817  26.7737272818280800  5.9811296534405729  0 0 0
121       8    1    0.0285690000000000  -23.8449241555798785  25.2014788048485094  5.2169666539103980  0 0 0
122       8    2   -0.0094320000000000  -25.6348769642508714  26.3713112879998768  7.4177470800762499  0 0 0
123       8    2   -0.0094320000000000  -25.8351929426167430  24.7438258677407319  6.7739230399416392  0 0 0
124       8    1    0.0285690000000000  -26.8188841508726057  27.0327850514056927  3.0301844659869892  0 0 0
125       8    1    0.0285690000000000  -28.3447894853793194  26.5415243084431971  3.8451589148796530  0 0 0
126       8    1    0.0285690000000000  -27.6144007154279194  25.5080359395908545  2.5974819866342709  0 0 0
127       9    5   -0.1186820000000000   15.9348547347924701 -13.6403463388475039  14.7165237710362007 0 0 0
128       9    3    0.2337370000000000   16.5118480047737748 -14.5706387458361135  15.7676789149115333 0 0 0
129       9    7   -0.1823940000000000   15.4976189663365922 -15.4662290947218004  16.2463262062165299 0 0 0
130       9    4    0.2875520000000000   15.2991577044220008 -16.5790518636133548  15.4861989074988706 0 0 0
131       9    6    0.0550780000000000   14.2069106125359959 -17.4166427909286092  16.0760208966156988 0 0 0
132       9    8   -0.4278410000000000   15.9106720387312244 -16.8654715674786182  14.4681315067477811 0 0 0
133       9    1    0.0285690000000000   16.7044836206302563 -12.9671426815587925  14.3292400219617129 0 0 0
134       9    1    0.0285690000000000   15.1227901751493317 -13.0407569647152997  15.1407895664986007 0 0 0
135       9    1    0.0285690000000000   15.5087203665593911 -14.2034509154945390  13.8802224559171954 0 0 0
136       9    2   -0.0094320000000000   16.8608071730493876 -13.9870838931245451  16.6262960455076936 0 0 0
137       9    2   -0.0094320000000000   17.3764166721964060 -15.1239204477176390  15.3832778752743362 0 0 0
138       9    1    0.0285690000000000   13.2867812932562259 -16.8308612849592727  16.1473436402957056 0 0 0
139       9    1    0.0285690000000000   14.5089843955892555 -17.7841278076009779  17.0591605480453516 0 0 0
140       9    1    0.0285690000000000   14.0196001027503563 -18.2739214641755474  15.4224355042454135 0 0 0
141       10   5   -0.1186820000000000   38.1381152762184783 -36.0606693804874823  5.5159866422883708  0 0 0
142       10   3    0.2337370000000000   36.9055266167380225 -35.3296641506244740  6.0156354019516520  0 0 0
143       10   7   -0.1823940000000000   35.8498107024624062 -35.4206504485559819  5.0476316587595500  0 0 0
144       10   4    0.2875520000000000   35.1016789281472725 -36.5573647273319580  5.1087413501915107  0 0 0
145       10   6    0.0550780000000000   34.0537080559782126 -36.5414057966725423  4.0391832107164207  0 0 0
146       10   8   -0.4278410000000000   35.2520975751894099 -37.4677421429466904  5.9093876216876371  0 0 0
147       10   1    0.0285690000000000   38.9424656236987445 -36.0158648130069707  6.2552657219607655  0 0 0
148       10   1    0.0285690000000000   38.4935573106577991 -35.6159723461088760  4.5806453999770378  0 0 0
149       10   1    0.0285690000000000   37.9163455465032797 -37.1110885821724068  5.3026445662375368  0 0 0
150       10   2   -0.0094320000000000   37.1341725417340882 -34.2666912516801574  6.1473236751297486  0 0 0
151       10   2   -0.0094320000000000   36.5801113561939957 -35.7108449247433697  6.9904019931144799  0 0 0
152       10   1    0.0285690000000000   34.5256215602852095 -36.4442291468764665  3.0580006518176686  0 0 0
153       10   1    0.0285690000000000   33.3543092680759017 -35.7212203420473529  4.2152358664819101  0 0 0
154       10   1    0.0285690000000000   33.5016533132534491 -37.4857656218814839  4.0637981932766056  0 0 0
155       11   5   -0.1186820000000000  -16.7951014081522700 -24.2470297293507500  15.6734513996387967 0 0 0
156       11   3    0.2337370000000000  -16.1115990087887262 -25.2345190442660652  16.6013423714627031 0 0 0
157       11   7   -0.1823940000000000  -15.7275761630403998 -26.4115040438917816  15.8753405742890230 0 0 0
158       11   4    0.2875520000000000  -14.5367627408062816 -26.3269732416993101  15.2193124997314086 0 0 0
159       11   6    0.0550780000000000  -14.2615077642003136 -27.6036352461783352  14.4866317546089309 0 0 0
160       11   8   -0.4278410000000000  -13.7920316865071371 -25.3585683905591317  15.2154445092132260 0 0 0
161       11   1    0.0285690000000000  -17.0732778499037501 -23.3369244943909635  16.2118256346772895 0 0 0
162       11   1    0.0285690000000000  -17.6977961518688787 -24.6907113704121421  15.2407314753789205 0 0 0
163       11   1    0.0285690000000000  -16.1443715746050458 -23.9741554430820045  14.8366913018061197 0 0 0
164       11   2   -0.0094320000000000  -16.8093458022804967 -25.5496921917680808  17.3845073882156527 0 0 0
165       11   2   -0.0094320000000000  -15.2486409300082464 -24.7824516254181368  17.1036392803559281 0 0 0
166       11   1    0.0285690000000000  -15.0731246967866461 -27.8115465313103698  13.7845521843649994 0 0 0
167       11   1    0.0285690000000000  -14.1456959734373875 -28.4239748981515667  15.1983113641389203 0 0 0
168       11   1    0.0285690000000000  -13.3328141103871154 -27.4977235174757446  13.9178641228907374 0 0 0
169       12   5   -0.1186820000000000   36.8119083917418450 -24.0767729096523659 -35.2707663562577451 0 0 0
170       12   3    0.2337370000000000   37.2019703504381809 -25.5434232961625050 -35.2617861153038632 0 0 0
171       12   7   -0.1823940000000000   36.0706720087679500 -26.3584919976563796 -35.6018933320448028 0 0 0
172       12   4    0.2875520000000000   35.8437735170521776 -26.5100055428472743 -36.9364777684072223 0 0 0
173       12   6    0.0550780000000000   34.6300317059081166 -27.3584761560249028 -37.1586954197193791 0 0 0
174       12   8   -0.4278410000000000   36.5188530560621274 -26.0285553813762078 -37.8336514518875120 0 0 0
175       12   1    0.0285690000000000   37.6720323187753863 -23.4447662481459034 -35.0335430472093776 0 0 0
176       12   1    0.0285690000000000   36.0215769872250817 -23.8867548234131668 -34.5371267105620134 0 0 0
177       12   1    0.0285690000000000   36.4161506356068330 -23.7781511015213454 -36.2466136639178913 0 0 0
178       12   2   -0.0094320000000000   37.5209833011212197 -25.8349296910911441 -34.2554129721744189 0 0 0
179       12   2   -0.0094320000000000   38.0448488659280457 -25.7389478752467333 -35.9346083271098919 0 0 0
180       12   1    0.0285690000000000   33.7641263916559922 -26.9033513670732880 -36.6709103400667757 0 0 0
181       12   1    0.0285690000000000   34.8048149530326114 -28.3661998322758997 -36.7755489843349039 0 0 0
182       12   1    0.0285690000000000   34.4274311918206521 -27.4205835454672595 -38.2321391861404010 0 0 0
183       13   5   -0.1186820000000000   17.1569130753733639  3.9883526062603867  -25.8657698200015496 0 0 0
184       13   3    0.2337370000000000   16.6037309668600379  5.1647837121824702  -26.6488992731825967 0 0 0
185       13   7   -0.1823940000000000   15.1776572962237974  5.2309178493227471  -26.5012984374031575 0 0 0
186       13   4    0.2875520000000000   14.7382889891612479  5.8723613450730614  -25.3827902209788867 0 0 0
187       13   6    0.0550780000000000   13.2417003327106908  5.8546295151061134  -25.3342080669558456 0 0 0
188       13   8   -0.4278410000000000   15.4470158126788810  6.3886441206396380  -24.5321400898557123 0 0 0
189       13   1    0.0285690000000000   18.2457126275642665  3.9407335551993565  -25.9539086282811056 0 0 0
190       13   1    0.0285690000000000   16.7317503865513473  3.0492863897941840  -26.2350245571756204 0 0 0
191       13   1    0.0285690000000000   16.8939257860998850  4.0594378192105820  -24.8056463687561646 0 0 0
192       13   2   -0.0094320000000000   16.8135873839364791  5.0303847687341765  -27.7154026029532297 0 0 0
193       13   2   -0.0094320000000000   17.0752488007698489  6.1065747180068239  -26.3454780886002240 0 0 0
194       13   1    0.0285690000000000   12.8815524282619798  4.8227162299737669  -25.3519091852422847 0 0 0
195       13   1    0.0285690000000000   12.8350261589304306  6.4209911680129856  -26.1748673181371885 0 0 0
196       13   1    0.0285690000000000   12.9075358156504549  6.3200681560745631  -24.4020671104308491 0 0 0
197       14   5   -0.1186820000000000  -16.1821850938211931 -5.1343724488866682  -23.8819575066103802 0 0 0
198       14   3    0.2337370000000000  -14.9575627112939422 -4.6217335685439753  -24.6173442967924068 0 0 0
199       14   7   -0.1823940000000000  -14.7493133154841178 -5.3781015478499565  -25.8191702051191605 0 0 0
200       14   4    0.2875520000000000  -15.4708136702592149 -4.9649749778496322  -26.8982061511928663 0 0 0
201       14   6    0.0550780000000000  -15.1826872418252758 -5.8432821310635088  -28.0763453432882706 0 0 0
202       14   8   -0.4278410000000000  -16.2462244053896541 -4.0211662214216588  -26.9184665419677494 0 0 0
203       14   1    0.0285690000000000  -16.3628202686464590 -4.5511901534715813  -22.9748798735875859 0 0 0
204       14   1    0.0285690000000000  -16.0498150933950505 -6.1854351771557976  -23.6050043408392618 0 0 0
205       14   1    0.0285690000000000  -17.0740464252469550 -5.0837967501955124  -24.5144941600221635 0 0 0
206       14   2   -0.0094320000000000  -14.0682599858254509 -4.7548487170679383  -23.9920818207811060 0 0 0
207       14   2   -0.0094320000000000  -15.0390343022755228 -3.5506202102864575  -24.8351569117283866 0 0 0
208       14   1    0.0285690000000000  -15.4180860180072621 -6.8823013832738553  -27.8316183925691192 0 0 0
209       14   1    0.0285690000000000  -14.1352745429672382 -5.7422840059971199  -28.3688917483320466 0 0 0
210       14   1    0.0285690000000000  -15.8135227863353567 -5.5357746605272151  -28.9157924751238795 0 0 0
211       15   5   -0.1186820000000000  -24.2102174291405703 -15.0287210703177578 -16.6817070908294198 0 0 0
212       15   3    0.2337370000000000  -25.5183665517774649 -14.3676665631619684 -16.2879493682216072 0 0 0
213       15   7   -0.1823940000000000  -26.4613414715767590 -15.3576011336505953 -15.8512873803167640 0 0 0
214       15   4    0.2875520000000000  -26.3499038778946399 -15.7305024709718850 -14.5458827866990088 0 0 0
215       15   6    0.0550780000000000  -27.3695203002062151 -16.7781676476985204 -14.2214875356134485 0 0 0
216       15   8   -0.4278410000000000  -25.5406248991541922 -15.2883145559299933 -13.7446433451712462 0 0 0
217       15   1    0.0285690000000000  -23.4767174271833419 -14.2813339535861274 -16.9962078591469528 0 0 0
218       15   1    0.0285690000000000  -24.3703353612363998 -15.7336580373161041 -17.5041326814943368 0 0 0
219       15   1    0.0285690000000000  -23.7905969646711704 -15.6031629294148360 -15.8498342820325533 0 0 0
220       15   2   -0.0094320000000000  -25.9549913868019679 -13.8650399058030445 -17.1575799455083313 0 0 0
221       15   2   -0.0094320000000000  -25.3658709046740505 -13.6023329506870212 -15.5182914436664330 0 0 0
222       15   1    0.0285690000000000  -27.2385114903768049 -17.6407052954502248 -14.8800696251497957 0 0 0
223       15   1    0.0285690000000000  -28.3748213455298917 -16.3633625108643628 -14.3223036495395455 0 0 0
224       15   1    0.0285690000000000  -27.2275903577309109 -17.1090768359202059 -13.1882688673832362 0 0 0
225       16   5   -0.1186820000000000   5.9709358220176592   3.7014670607404048  -3.9785994373009528  0 0 0
226       16   3    0.2337370000000000   6.4898480180365663   4.7849403978257712  -4.9060195110797595  0 0 0
227       16   7   -0.1823940000000000   5.4778961490776936   5.1494609249666219  -5.8562426665035776  0 0 0
228       16   4    0.2875520000000000   4.5739181628095213   6.0695830902689476  -5.4183455336494069  0 0 0
229       16   6    0.0550780000000000   3.5636042369733660   6.3474653383214612  -6.4881583572680004  0 0 0
230       16   8   -0.4278410000000000   4.5708050238212721   6.5978380275144426  -4.3168082941784043  0 0 0
231       16   1    0.0285690000000000   6.7269046451828736   3.4307372779310708  -3.2364828618882990  0 0 0
232       16   1    0.0285690000000000   5.7005571346695678   2.8068847741620782  -4.5491917872043013  0 0 0
233       16   1    0.0285690000000000   5.0669018891214650   4.0278985190087013  -3.4549179454329622  0 0 0
234       16   2   -0.0094320000000000   7.3466304078959812   4.4064913926825859  -5.4736747155242753  0 0 0
235       16   2   -0.0094320000000000   6.8377980730965557   5.6603924686043223  -4.3457711620832473  0 0 0
236       16   1    0.0285690000000000   3.0603629653192677   5.4201228385779245  -6.7739012160998486  0 0 0
237       16   1    0.0285690000000000   4.0516140003275787   6.8049161495709640  -7.3515485403591558  0 0 0
238       16   1    0.0285690000000000   2.8121054252415352   7.0416836934155578  -6.1002199250186493  0 0 0
239       17   5   -0.1186820000000000   26.6445164926468863 -34.3959648318346680  5.8582788010188063  0 0 0
240       17   3    0.2337370000000000   26.0393903560940672 -35.6503066197854537  6.4613885509491489  0 0 0
241       17   7   -0.1823940000000000   25.1462838983929231 -36.2691073687849723  5.5236826625437532  0 0 0
242       17   4    0.2875520000000000   25.7383279277752592 -37.0900873633945096  4.6120738575052922  0 0 0
243       17   6    0.0550780000000000   24.7085612156580368 -37.6534526840913841  3.6822070476064948  0 0 0
244       17   8   -0.4278410000000000   26.9326296064813704 -37.3385509109994729  4.5460691148626289  0 0 0
245       17   1    0.0285690000000000   27.3433303192491231 -33.9274945756443387  6.5566449966601033  0 0 0
246       17   1    0.0285690000000000   25.8594393813435026 -33.6748958405292527  5.6079366933234942  0 0 0
247       17   1    0.0285690000000000   27.1761652108504919 -34.6204224874541922  4.9282005489527441  0 0 0
248       17   2   -0.0094320000000000   25.4497384127069033 -35.3876722207707317  7.3461856476407803  0 0 0
249       17   2   -0.0094320000000000   26.8144957661427412 -36.3524359062518556  6.7893974685100575  0 0 0
250       17   1    0.0285690000000000   24.1774241161424825 -36.8408904536720456  3.1797123969741010  0 0 0
251       17   1    0.0285690000000000   24.0123005176037658 -38.2862602240684069  4.2368538178966011  0 0 0
252       17   1    0.0285690000000000   25.2068065468669182 -38.2616321878548789  2.9212503491468951  0 0 0
253       18   5   -0.1186820000000000  -35.8440972883544831 -7.0487225629389805   5.8953797715484342  0 0 0
254       18   3    0.2337370000000000  -36.9314993526754947 -5.9917242754439579   5.9554106248068690  0 0 0
255       18   7   -0.1823940000000000  -36.3726623039389523 -4.6923956067350723   5.7119111206377005  0 0 0
256       18   4    0.2875520000000000  -36.2313150982152408 -4.3572638969966544   4.3991801496227323  0 0 0
257       18   6    0.0550780000000000  -35.6210202500669411 -2.9950770782095684   4.2790155993330012  0 0 0
258       18   8   -0.4278410000000000  -36.5472256816082037 -5.0547385468007393   3.4472469185182653  0 0 0
259       18   1    0.0285690000000000  -36.2622731423430551 -8.0457204828078694   6.0586114820645749  0 0 0
260       18   1    0.0285690000000000  -35.0817807868244316 -6.8568525497384503   6.6576246018552201  0 0 0
261       18   1    0.0285690000000000  -35.3334405686185917 -7.0370892121679409   4.9273035692593634  0 0 0
262       18   2   -0.0094320000000000  -37.3732044628238285 -5.9722853707480539   6.9574340121851765  0 0 0
263       18   2   -0.0094320000000000  -37.7428449706978668 -6.2097965824235750   5.2514741655688884  0 0 0
264       18   1    0.0285690000000000  -34.6533395225950045 -2.9753260320398480   4.7870203006445147  0 0 0
265       18   1    0.0285690000000000  -36.2950492061765289 -2.2464255947308414   4.7009910781359263  0 0 0
266       18   1    0.0285690000000000  -35.4594210401975829 -2.7664641618093939   3.2212785594102247  0 0 0
267       19   5   -0.1186820000000000  -25.2426375741730524 -26.5319739976295423  3.3336878406022006  0 0 0
268       19   3    0.2337370000000000  -26.2601243700655864 -26.8926470170643519  4.4004248868493372  0 0 0
269       19   7   -0.1823940000000000  -25.8500872013421663 -26.3695909082780595  5.6724813605275406  0 0 0
270       19   4    0.2875520000000000  -26.1885086309613655 -25.0704144748511446  5.9030598254860491  0 0 0
271       19   6    0.0550780000000000  -25.6880595665751734 -24.6393757483689377  7.2470124289388469  0 0 0