LAMMPS data file via vdw_self_gen.py, on 2021-08-05 13:21:49.539288

9000 atoms
8 atom types
8500 bonds
7 bond types
15500 angles
11 angle types
19500 dihedrals
10 dihedral types

-49.9562063613419696  49.9562063613419625 xlo xhi
-49.9562063613419696  49.9562063613419625 ylo yhi
-49.9562063613419696  49.9562063613419625 zlo zhi

Masses

1  1.007940
2  1.007940
3  1.007940
4  1.007940
5  12.011000
6  12.011000
7  12.011000
8  15.999400

Atoms

1         0    5   -0.1079060000000000   4.7947842435364532  -4.3999181607152451   29.9059177868887289 0 0 0
2         0    7   -0.0585320000000000   4.5205950132918922  -5.0622714639378588   28.5622468672703924 0 0 0
3         0    6    0.4337320000000000   5.8099842851750791  -5.4092468147577355   27.8091855701796646 0 0 0
4         0    8   -0.6823000000000000   6.5848522817276089  -6.3218759097230350   28.5836779374380399 0 0 0
5         0    7   -0.0585320000000000   5.5006698765243165  -6.0275213879980551   26.4409263768301237 0 0 0
6         0    5   -0.1079060000000000   6.7622726832901492  -6.3635882493852298   25.6569139034357647 0 0 0
7         0    1    0.0285690000000000   3.8515105946849149  -4.1513308767813069   30.4026251930632796 0 0 0
8         0    1    0.0285690000000000   5.3646211646730908  -3.4743405050605265   29.7768421189174397 0 0 0
9         0    1    0.0285690000000000   5.3587626167897531  -5.0624419290636160   30.5698756112089427 0 0 0
10        0    2    0.0140440000000000   3.9026446365019574  -4.3920487233014240   27.9535758674199251 0 0 0
11        0    2    0.0140440000000000   3.9385741826154796  -5.9740309163418885   28.7438905341312037 0 0 0
12        0    3   -0.0487190000000000   6.4110306501228731  -4.5027828086523440   27.6737157941467480 0 0 0
13        0    4    0.4025730000000000   6.0586679161354580  -7.1300812800915381   28.7061425585083612 0 0 0
14        0    2    0.0140440000000000   4.8872374687849156  -5.3362560620731330   25.8514198482751354 0 0 0
15        0    2    0.0140440000000000   4.9238432844075906  -6.9512506812456598   26.5710955053640667 0 0 0
16        0    1    0.0285690000000000   7.3738686260407729  -5.4701073911363025   25.4967731326940950 0 0 0
17        0    1    0.0285690000000000   6.4984433023775559  -6.7747618292261755   24.6773138919984092 0 0 0
18        0    1    0.0285690000000000   7.3700498960040370  -7.1085577331928267   26.1799251156494002 0 0 0
19        1    5   -0.1079060000000000   5.5051974762885854  -41.0849720930321496  37.6085614831734816 0 0 0
20        1    7   -0.0585320000000000   5.5130306418215653  -40.2518132348968720  38.8833666177444286 0 0 0
21        1    6    0.4337320000000000   5.6742475471496077  -38.7538875746656046  38.6000898422100107 0 0 0
22        1    8   -0.6823000000000000   4.5848448643967039  -38.2988144958370071  37.8005518557852085 0 0 0
23        1    7   -0.0585320000000000   5.7290143608235873  -37.9484887739413210  39.9033186937214808 0 0 0
24        1    5   -0.1079060000000000   5.9114972160938546  -36.4567667046273485  39.6568974867322055 0 0 0
25        1    1    0.0285690000000000   5.4075679698092856  -42.1473591728183052  37.8536762193034377 0 0 0
26        1    1    0.0285690000000000   6.4352216449822377  -40.9502013761847721  37.0473480291952981 0 0 0
27        1    1    0.0285690000000000   4.6676753997021638  -40.8125804760940341  36.9587854295579277 0 0 0
28        1    2    0.0140440000000000   6.3268430212460212  -40.5981089187743578  39.5309237864356007 0 0 0
29        1    2    0.0140440000000000   4.5698719530158041  -40.4311087885424953  39.4137935781009929 0 0 0
30        1    3   -0.0487190000000000   6.5932684662127450  -38.5856646883525869  38.0270388861468831 0 0 0
31        1    4    0.4025730000000000   3.7655821143163495  -38.4427779464219341  38.3036885786811396 0 0 0
32        1    2    0.0140440000000000   6.5530092173750640  -38.3106256117391908  40.5290617751746183 0 0 0
33        1    2    0.0140440000000000   4.7994628868919653  -38.0896329165448648  40.4680851188214987 0 0 0
34        1    1    0.0285690000000000   6.8313989655449454  -36.2617017146199103  39.0967786344068955 0 0 0
35        1    1    0.0285690000000000   5.9745206636315968  -35.9226229235018977  40.6103146585649100 0 0 0
36        1    1    0.0285690000000000   5.0701583133818167  -36.0397616481928580  39.0946083850315205 0 0 0
37        2    5   -0.1079060000000000  -6.0854834490451610  -4.2510097631090336  -29.8873697062636232 0 0 0
38        2    7   -0.0585320000000000  -5.4148335322668038  -5.3931638933628365  -29.1356677677471936 0 0 0
39        2    6    0.4337320000000000  -5.6131920372743922  -5.2891526919964047  -27.6191409861895885 0 0 0
40        2    8   -0.6823000000000000  -7.0053546575200905  -5.3384096532578793  -27.3148258624150557 0 0 0
41        2    7   -0.0585320000000000  -4.8852531292663759  -6.4231575310371607  -26.8882442474225662 0 0 0
42        2    5   -0.1079060000000000  -5.0441656731380347  -6.3356750858519302  -25.3761755449541049 0 0 0
43        2    1    0.0285690000000000  -5.9053154665651784  -4.3507405913670816  -30.9624847334509745 0 0 0
44        2    1    0.0285690000000000  -5.6878212611065031  -3.2835689936001198  -29.5648921362283765 0 0 0
45        2    1    0.0285690000000000  -7.1682372727514290  -4.2494163334764181  -29.7277108204117617 0 0 0
46        2    2    0.0140440000000000  -4.3444620033882231  -5.3959208907429330  -29.3719700433002942 0 0 0
47        2    2    0.0140440000000000  -5.8364387287908368  -6.3369399560584849  -29.5025243744024763 0 0 0
48        2    3   -0.0487190000000000  -5.2348939585476835  -4.3233574017953034  -27.2650000418509642 0 0 0
49        2    4    0.4025730000000000  -7.3477857501798960  -6.1940314944302646  -27.6242054066460732 0 0 0
50        2    2    0.0140440000000000  -3.8179389986301069  -6.4002039270908844  -27.1371994552612854 0 0 0
51        2    2    0.0140440000000000  -5.2797575435929955  -7.3922636955742158  -27.2171032377711413 0 0 0
52        2    1    0.0285690000000000  -4.6603863153956926  -5.3836664585356573  -24.9961812215935275 0 0 0
53        2    1    0.0285690000000000  -4.4873843861211062  -7.1441098001521874  -24.8917028950118784 0 0 0
54        2    1    0.0285690000000000  -6.0937085591033826  -6.4276245612451088  -25.0796651324987607 0 0 0
55        3    5   -0.1079060000000000   26.8628828108026703 -4.5216403097011515   3.3881111989830255  0 0 0
56        3    7   -0.0585320000000000   26.9024350484987345 -4.6490715346909131   4.9051939508099780  0 0 0
57        3    6    0.4337320000000000   27.8248832215706514 -5.7811855192418928   5.3714827022080707  0 0 0
58        3    8   -0.6823000000000000   29.1564810651748409 -5.5247680098591969   4.9307470129444972  0 0 0
59        3    7   -0.0585320000000000   27.8042383211654034 -5.9164742756810362   6.8983562437852477  0 0 0
60        3    5   -0.1079060000000000   28.6944909821319243 -7.0486792515854813   7.3931493601270644  0 0 0
61        3    1    0.0285690000000000   26.1807290900139016 -3.7170772053193843   3.0954961378846320  0 0 0
62        3    1    0.0285690000000000   26.5109816403487528 -5.4496530040485673   2.9265631009875830  0 0 0
63        3    1    0.0285690000000000   27.8515444270380570 -4.2873705360925110   2.9812755769485482  0 0 0
64        3    2    0.0140440000000000   25.8851523652966655 -4.8211320813328014   5.2754272381390495  0 0 0
65        3    2    0.0140440000000000   27.2471970766940679 -3.6935220269280276   5.3188511158981058  0 0 0
66        3    3   -0.0487190000000000   27.5057219573242762 -6.7256525262098359   4.9160664667117144  0 0 0
67        3    4    0.4025730000000000   29.4475725994930286 -4.6889245093517573   5.3328599970767625  0 0 0
68        3    2    0.0140440000000000   26.7781612556287421 -6.0928139974521596   7.2414818403316907  0 0 0
69        3    2    0.0140440000000000   28.1505444387910053 -4.9837539135416389   7.3599334589352479  0 0 0
70        3    1    0.0285690000000000   28.3865834590437345 -8.0064122548351335   6.9619380900840637  0 0 0
71        3    1    0.0285690000000000   28.6293525198632111 -7.1300896026863523   8.4828351739591561  0 0 0
72        3    1    0.0285690000000000   29.7431113345400782 -6.8741921641260726   7.1326440568694798  0 0 0
73        4    5   -0.1079060000000000   4.7542524039705132   28.8369421461378224 -29.9261242685667099 0 0 0
74        4    7   -0.0585320000000000   4.5063393093390216   28.1077659665085164 -28.6122809106767981 0 0 0
75        4    6    0.4337320000000000   5.8101756151411239   27.7253175618596472 -27.9025189709013048 0 0 0
76        4    8   -0.6823000000000000   6.5539825083507255   28.9040441997442414 -27.6016776127818559 0 0 0
77        4    7   -0.0585320000000000   5.5283105026691750   26.9497767941167687 -26.6105589686411825 0 0 0
78        4    5   -0.1079060000000000   6.8052909046354646   26.5349506585936084 -25.8918806914677759 0 0 0
79        4    1    0.0285690000000000   3.8017253989623940   29.0753221264498265 -30.4100109819787612 0 0 0
80        4    1    0.0285690000000000   5.3383524773715347   28.2169612599337860 -30.6135247678352087 0 0 0
81        4    1    0.0285690000000000   5.2930935209732537   29.7760154552159904 -29.7659964683438645 0 0 0
82        4    2    0.0140440000000000   3.9122342029196604   27.2080805039833322 -28.8101363309899305 0 0 0
83        4    2    0.0140440000000000   3.9088900048736410   28.7625640190781589 -27.9662609364926915 0 0 0
84        4    3   -0.0487190000000000   6.4254040246707822   27.1119113231159403 -28.5707349373207755 0 0 0
85        4    4    0.4025730000000000   6.0151068153188483   29.4526044187906386 -27.0069018867815558 0 0 0
86        4    2    0.0140440000000000   4.9384887345449311   26.0538676665891060 -26.8366610118858482 0 0 0
87        4    2    0.0140440000000000   4.9372180902237686   27.5694007927811526 -25.9252673614923523 0 0 0
88        4    1    0.0285690000000000   7.4315352097132976   25.9090597638874982 -26.5353722345214251 0 0 0
89        4    1    0.0285690000000000   6.5615116505525295   25.9605007264299026 -24.9925115858632445 0 0 0
90        4    1    0.0285690000000000   7.3905013484532436   27.4069782302037872 -25.5836436868783750 0 0 0
91        5    5   -0.1079060000000000  -25.5301288430778826 -26.8965883552925860  28.6761817868276552 0 0 0
92        5    7   -0.0585320000000000  -27.0096549211868933 -27.2299417786514688  28.8148225161617049 0 0 0
93        5    6    0.4337320000000000  -27.6330775497513521 -27.6789935554966924  27.4882801558859597 0 0 0
94        5    8   -0.6823000000000000  -26.9732791420447775 -28.8546812436974847  27.0239793643715132 0 0 0
95        5    7   -0.0585320000000000  -29.1317608393500223 -27.9584016170136529  27.6493751717525384 0 0 0
96        5    5   -0.1079060000000000  -29.7866137434058196 -28.3857009694859279  26.3425312356888384 0 0 0
97        5    1    0.0285690000000000  -25.1275803142111904 -26.5630484279545769  29.6379431192166329 0 0 0
98        5    1    0.0285690000000000  -25.3763895682311933 -26.0945456977987256  27.9473742317558091 0 0 0
99        5    1    0.0285690000000000  -24.9526271814848322 -27.7692829540304196  28.3556426943739126 0 0 0
100       5    2    0.0140440000000000  -27.5395596132315177 -26.3494380685110414  29.1962092097917214 0 0 0
101       5    2    0.0140440000000000  -27.1112997905985367 -28.0260495121928059  29.5624379020507071 0 0 0
102       5    3   -0.0487190000000000  -27.4852970651970061 -26.9003331540826593  26.7312235562485085 0 0 0
103       5    4    0.4025730000000000  -27.1020676863440322 -29.5511703381706567  27.6898471762059835 0 0 0
104       5    2    0.0140440000000000  -29.6379820825587998 -27.0621036214259263  28.0262769798267080 0 0 0
105       5    2    0.0140440000000000  -29.2850165996397074 -28.7574855678285104  28.3848520497630901 0 0 0
106       5    1    0.0285690000000000  -29.6640097414864883 -27.6170358732438430  25.5730346884369943 0 0 0
107       5    1    0.0285690000000000  -30.8587018273941993 -28.5470614856651288  26.4937785873632308 0 0 0
108       5    1    0.0285690000000000  -29.3570171042254344 -29.3202013928775749  25.9682731876982196 0 0 0
109       6    5   -0.1079060000000000   18.6699630161423897 -17.6804980472437592 -28.9363385948998015 0 0 0
110       6    7   -0.0585320000000000   18.0205399594578815 -16.6363807668877861 -28.0377775392065409 0 0 0
111       6    6    0.4337320000000000   16.4970160931424381 -16.7920707210697131 -27.9695604399271787 0 0 0
112       6    8   -0.6823000000000000   16.1710494402487726 -18.0741022017224395 -27.4373088755173846 0 0 0
113       6    7   -0.0585320000000000   15.8687958437004468 -15.6975908287552741 -27.0992012295947866 0 0 0
114       6    5   -0.1079060000000000   14.3517257089526282 -15.8108162392722242 -27.0289420773831210 0 0 0
115       6    1    0.0285690000000000   19.7527729107016903 -17.5242265867682683 -28.9735007340381685 0 0 0
116       6    1    0.0285690000000000   18.2821115362858144 -17.6134615477287078 -29.9576837758772392 0 0 0
117       6    1    0.0285690000000000   18.4901775489662832 -18.6942022191941533 -28.5649488007984758 0 0 0
118       6    2    0.0140440000000000   18.2765855322121524 -15.6372792917909766 -28.4089627806053855 0 0 0
119       6    2    0.0140440000000000   18.4503717442220321 -16.7357659868913302 -27.0335787625934074 0 0 0
120       6    3   -0.0487190000000000   16.0773585249272770 -16.7413576806616149 -28.9807980481935559 0 0 0
121       6    4    0.4025730000000000   16.5383473312663156 -18.1257067427631853 -26.5387028877240425 0 0 0
122       6    2    0.0140440000000000   16.1354331713414716 -14.7104653129668144 -27.4943629287608573 0 0 0
123       6    2    0.0140440000000000   16.2631959572963538 -15.7613754078892789 -26.0777665501070395 0 0 0
124       6    1    0.0285690000000000   13.9074519013749249 -15.7492349518060273 -28.0273564385751150 0 0 0
125       6    1    0.0285690000000000   13.9410541719884655 -14.9965028011117028 -26.4235262281037215 0 0 0
126       6    1    0.0285690000000000   14.0432877758243322 -16.7562008335285597 -26.5717469215138458 0 0 0
127       7    5   -0.1079060000000000  -16.2756853304264339 -4.5040368515171938  -36.5544690239985073 0 0 0
128       7    7   -0.0585320000000000  -16.4851544417310301 -5.6990646272516630  -37.4749984798728875 0 0 0
129       7    6    0.4337320000000000  -16.7595234936474853 -5.2784788952987558  -38.9233931674936713 0 0 0
130       7    8   -0.6823000000000000  -15.6462185136751710 -4.5432634853260856  -39.4265442645883297 0 0 0
131       7    7   -0.0585320000000000  -17.0156034824655222 -6.4998853033321051  -39.8137085594992470 0 0 0
132       7    5   -0.1079060000000000  -17.3140053241402150 -6.1145176916084036  -41.2565204947560602 0 0 0
133       7    1    0.0285690000000000  -16.1019079414104560 -4.8447290632407416  -35.5287939791437992 0 0 0
134       7    1    0.0285690000000000  -17.1559017668056519 -3.8534381549717418  -36.5514685938243531 0 0 0
135       7    1    0.0285690000000000  -15.4090681678530927 -3.9104442165119693  -36.8618317068356944 0 0 0
136       7    2    0.0140440000000000  -17.3210639605437251 -6.2987274493252414  -37.0965789342874501 0 0 0
137       7    2    0.0140440000000000  -15.5847406398368218 -6.3239878817140243  -37.4328810311065112 0 0 0
138       7    3   -0.0487190000000000  -17.6308667252030844 -4.6143094897911583  -38.9538194884991213 0 0 0
139       7    4    0.4025730000000000  -14.8692838792132154 -5.1271840007690566  -39.4047980897915480 0 0 0
140       7    2    0.0140440000000000  -17.8580004641789039 -7.0783186391603232  -39.4169123673516637 0 0 0
141       7    2    0.0140440000000000  -16.1355937772572737 -7.1545012204637688  -39.8106026977556624 0 0 0
142       7    1    0.0285690000000000  -18.1900097844437454 -5.4608637204562509  -41.3144461300597996 0 0 0
143       7    1    0.0285690000000000  -17.5188778312528797 -7.0106447138344894  -41.8508852424199773 0 0 0
144       7    1    0.0285690000000000  -16.4657326439671081 -5.5960173181109258  -41.7142368075032763 0 0 0
145       8    5   -0.1079060000000000  -28.5615654710896578  29.4948676506172980 -26.0672695428881269 0 0 0
146       8    7   -0.0585320000000000  -27.4716659875506259  28.8055734944408641 -26.8774151190300685 0 0 0
147       8    6    0.4337320000000000  -28.0054970668787142  27.6099283502479835 -27.6745819607962034 0 0 0
148       8    8   -0.6823000000000000  -29.0020029762998703  28.0542371229384599 -28.5925778164507882 0 0 0
149       8    7   -0.0585320000000000  -26.8770293487338492  26.9078291075935070 -28.4385775982634286 0 0 0
150       8    5   -0.1079060000000000  -27.3711836863731151  25.7003592421219089 -29.2241259101897484 0 0 0
151       8    1    0.0285690000000000  -28.1378117129013106  30.3291390979965882 -25.4992000346332688 0 0 0
152       8    1    0.0285690000000000  -29.0205681461245604  28.7994010646266645 -25.3575432481227878 0 0 0
153       8    1    0.0285690000000000  -29.3475605543167717  29.8954156781402460 -26.7150521826603473 0 0 0
154       8    2    0.0140440000000000  -26.6770436271544682  28.4755432038045697 -26.1983003364483835 0 0 0
155       8    2    0.0140440000000000  -27.0360437758019003  29.5443830906443168 -27.5611121552155716 0 0 0
156       8    3   -0.0487190000000000  -28.4835734673631826  26.8979177257487052 -26.9921088013972685 0 0 0
157       8    4    0.4025730000000000  -28.5844501727194604  28.6849721301136427 -29.2032221463563957 0 0 0
158       8    2    0.0140440000000000  -26.0995079929901372  26.5838004516314292 -27.7370571150429726 0 0 0
159       8    2    0.0140440000000000  -26.4133249169415052  27.6074710735175302 -29.1445719651348085 0 0 0
160       8    1    0.0285690000000000  -27.8415096061714351  24.9672787329257524 -28.5612615168915696 0 0 0
161       8    1    0.0285690000000000  -26.5326321460840617  25.2117665832237670 -29.7304799023234274 0 0 0
162       8    1    0.0285690000000000  -28.0990929579250412  25.9921798130864907 -29.9876062615745411 0 0 0
163       9    5   -0.1079060000000000  -19.1048937005470769  28.2820399861986296  17.1348052643067668 0 0 0
164       9    7   -0.0585320000000000  -17.6124253057879230  28.5383690882697678  17.2965972745434335 0 0 0
165       9    6    0.4337320000000000  -16.7588122184458648  27.4795702645265081  16.5892729828226919 0 0 0
166       9    8   -0.6823000000000000  -17.0439581508876614  27.4911182866672732  15.1922371406208772 0 0 0
167       9    7   -0.0585320000000000  -15.2640662141457231  27.7364173252344699  16.8125128572503151 0 0 0
168       9    5   -0.1079060000000000  -14.3878728130690199  26.6877258667429054  16.1403599843140526 0 0 0
169       9    1    0.0285690000000000  -19.6782901639830250  29.0467608889889171  17.6683757828464962 0 0 0
170       9    1    0.0285690000000000  -19.3805360689650357  27.3046130193833854  17.5431267683636634 0 0 0
171       9    1    0.0285690000000000  -19.4034258746117558  28.3128014751001054  16.0822932152314273 0 0 0
172       9    2    0.0140440000000000  -17.3680461011815446  28.5609593830988260  18.3649184150416929 0 0 0
173       9    2    0.0140440000000000  -17.3903490432810734  29.5309012677947074  16.8859758255926238 0 0 0
174       9    3   -0.0487190000000000  -17.0197822855256433  26.4847882243702522  16.9682045123513561 0 0 0
175       9    4    0.4025730000000000  -16.8126019810172131  28.3704507838052535  14.8482717748644237 0 0 0
176       9    2    0.0140440000000000  -15.0460079778365365  27.7488674273511577  17.8867384468891970 0 0 0
177       9    2    0.0140440000000000  -14.9903466525927005  28.7189077497144467  16.4091037670845310 0 0 0
178       9    1    0.0285690000000000  -14.6207830291866614  25.6852237377766315  16.5128449106481412 0 0 0
179       9    1    0.0285690000000000  -13.3322264270207143  26.8903157192620483  16.3473718117042637 0 0 0
180       9    1    0.0285690000000000  -14.5228141599666110  26.6922331191344462  15.0542274335757273 0 0 0
181       10   5   -0.1079060000000000  -17.5434731945048838 -38.7807551557563599 -7.9441610478320310  0 0 0
182       10   7   -0.0585320000000000  -17.7000587442961752 -38.6006870593169253 -6.4400335204124906  0 0 0
183       10   6    0.4337320000000000  -16.4557644486027392 -39.0510132186288885 -5.6661110684548577  0 0 0
184       10   8   -0.6823000000000000  -15.3322141973834825 -38.2733060511002776 -6.0734893920801607  0 0 0
185       10   7   -0.0585320000000000  -16.6631688765647006 -38.9046989273084023 -4.1542752298410308  0 0 0
186       10   5   -0.1079060000000000  -15.4517320294726801 -39.3653869600810182 -3.3546219063515110  0 0 0
187       10   1    0.0285690000000000  -18.4574320245097461 -38.4664983200499151 -8.4581658726809046  0 0 0
188       10   1    0.0285690000000000  -17.3563550491926613 -39.8295621622717064 -8.1952771647565061  0 0 0
189       10   1    0.0285690000000000  -16.7160749289769832 -38.1797878437472065 -8.3341607166753615  0 0 0
190       10   2    0.0140440000000000  -18.5746854760960680 -39.1683330933111051 -6.1018802468637601  0 0 0
191       10   2    0.0140440000000000  -17.8980358325316082 -37.5401469894951560 -6.2422765965482370  0 0 0
192       10   3   -0.0487190000000000  -16.2335088836729540 -40.0972498999993192 -5.9054373265477365  0 0 0
193       10   4    0.4025730000000000  -15.5211850790169272 -37.3434388355142701 -5.8620645638952480  0 0 0
194       10   2    0.0140440000000000  -17.5391209491802122 -39.4850644335777758 -3.8419470970811358  0 0 0
195       10   2    0.0140440000000000  -16.8573261839598132 -37.8545079636211241 -3.9045741958530269  0 0 0
196       10   1    0.0285690000000000  -15.2175811027067027 -40.4133427558005351 -3.5666707248167207  0 0 0
197       10   1    0.0285690000000000  -15.6507847179014217 -39.2720061578227160 -2.2822675384306743  0 0 0
198       10   1    0.0285690000000000  -14.5687364494820493 -38.7611032313848227 -3.5849985135624678  0 0 0
199       11   5   -0.1079060000000000  -30.2088744026142066 -38.1515539253444160  16.7233561792062346 0 0 0
200       11   7   -0.0585320000000000  -28.7542282338486892 -38.0180289077386604  17.1540750734622982 0 0 0
201       11   6    0.4337320000000000  -27.8666653122464005 -39.1173843130988388  16.5593754361644692 0 0 0
202       11   8   -0.6823000000000000  -27.8982826339412249 -39.0392454252202086  15.1359832333019106 0 0 0
203       11   7   -0.0585320000000000  -26.4206306370844040 -38.9854709800830079  17.0509592665553917 0 0 0
204       11   5   -0.1079060000000000  -25.5164109931152723 -40.0776374754112368  16.4952459252158334 0 0 0
205       11   1    0.0285690000000000  -30.8116065211056203 -37.3616351581658535  17.1827268316188082 0 0 0
206       11   1    0.0285690000000000  -30.6215810052883555 -39.1168835314361303  17.0330021917947647 0 0 0
207       11   1    0.0285690000000000  -30.3132842506012103 -38.0641539974160139  15.6373961533114372 0 0 0
208       11   2    0.0140440000000000  -28.7019641295506638 -38.0485327061314678  18.2485519156044909 0 0 0
209       11   2    0.0140440000000000  -28.3926154463201001 -37.0333845626660079  16.8335135759111267 0 0 0
210       11   3   -0.0487190000000000  -28.2610034742304777 -40.1002223695140643  16.8418865974749004 0 0 0
211       11   4    0.4025730000000000  -27.5474527406969401 -38.1702375074177809  14.8775125086483957 0 0 0
212       11   2    0.0140440000000000  -26.3959731089465635 -39.0242070221059336  18.1462019530201424 0 0 0
213       11   2    0.0140440000000000  -26.0103199189029439 -38.0151014310836501  16.7460383267689927 0 0 0
214       11   1    0.0285690000000000  -25.8826153438359370 -41.0701586457231187  16.7759571784565473 0 0 0
215       11   1    0.0285690000000000  -24.5023941011750246 -39.9649220423485758  16.8919206173873242 0 0 0
216       11   1    0.0285690000000000  -25.4561613599156011 -40.0281290578825519  15.4035352041486142 0 0 0
217       12   5   -0.1079060000000000   3.9467075186195877   5.3028038836215918  -14.6785976717733906 0 0 0
218       12   7   -0.0585320000000000   4.8033509571314372   6.1336689626472500  -15.6247310726267088 0 0 0
219       12   6    0.4337320000000000   5.6173752027776542   5.2642745718032815  -16.5898921091222533 0 0 0
220       12   8   -0.6823000000000000   4.7333577936169382   4.4830691909827927  -17.3907554415815930 0 0 0
221       12   7   -0.0585320000000000   6.5058909902951685   6.1265351448798828  -17.4938381644539618 0 0 0
222       12   5   -0.1079060000000000   7.3455152239562960   5.2906872494072568  -18.4507329223468730 0 0 0
223       12   1    0.0285690000000000   3.3970087883250719   5.9577306746083911  -13.9950910762965570 0 0 0
224       12   1    0.0285690000000000   4.5669347327760352   4.6296638896279285  -14.0783732198339990 0 0 0
225       12   1    0.0285690000000000   3.2152941659630287   4.7008870660782369  -15.2268494332061834 0 0 0
226       12   2    0.0140440000000000   5.4768774484995770   6.7655652850781500  -15.0342984520647711 0 0 0
227       12   2    0.0140440000000000   4.1395247318330579   6.7979079518097976  -16.1914490589147917 0 0 0
228       12   3   -0.0487190000000000   6.2424593513915054   4.5684030370753907  -16.0186492520928176 0 0 0
229       12   4    0.4025730000000000   4.1767257081701263   5.0940078329417124  -17.9025934901013812 0 0 0
230       12   2    0.0140440000000000   7.1720723421585859   6.7436363330491558  -16.8797913039542955 0 0 0
231       12   2    0.0140440000000000   5.8838819807326219   6.8053777269877243  -18.0898467779321592 0 0 0
232       12   1    0.0285690000000000   7.9894915599486707   4.5958764395198290  -17.9025220825731637 0 0 0
233       12   1    0.0285690000000000   7.9849878739318267   5.9406039164276185  -19.0565124971613642 0 0 0
234       12   1    0.0285690000000000   6.7149563525567135   4.7117135661379272  -19.1327141420155868 0 0 0
235       13   5   -0.1079060000000000  -26.2800537782789085  14.5986650964943472  17.0281497451330637 0 0 0
236       13   7   -0.0585320000000000  -26.5509576866708059  15.9740101321541950  16.4328512672215261 0 0 0
237       13   6    0.4337320000000000  -27.9768295340156357  16.4610863874704840  16.7150995659878916 0 0 0
238       13   8   -0.6823000000000000  -28.1782794015682221  16.5592898595977758  18.1232631690273891 0 0 0
239       13   7   -0.0585320000000000  -28.2342355996229664  17.8235276466352701  16.0612127224025265 0 0 0
240       13   5   -0.1079060000000000  -29.6511931720976385  18.3259272958715158  16.3042846583679335 0 0 0
241       13   1    0.0285690000000000  -25.2606794080716384  14.2791320058100695  16.7892908767143112 0 0 0
242       13   1    0.0285690000000000  -26.9727515590356894  13.8539124286745583  16.6236971648347804 0 0 0
243       13   1    0.0285690000000000  -26.3816166952790567  14.6082837574186897  18.1178477752553668 0 0 0
244       13   2    0.0140440000000000  -26.3779918592380511  15.9349514139003290  15.3511402081263171 0 0 0
245       13   2    0.0140440000000000  -25.8257557788539067  16.6785449337709295  16.8580110892997546 0 0 0
246       13   3   -0.0487190000000000  -28.6971568393357863  15.7292922855595929  16.3318349667634841 0 0 0
247       13   4    0.4025730000000000  -27.5438242563820666  17.2089626317659743  18.4703300913206583 0 0 0
248       13   2    0.0140440000000000  -28.0596023358506947  17.7557454150799963  14.9811322581918152 0 0 0
249       13   2    0.0140440000000000  -27.5351543444228746  18.5674694893580394  16.4621923476631373 0 0 0
250       13   1    0.0285690000000000  -30.3900979372263329  17.6171622128881395  15.9174067539669988 0 0 0
251       13   1    0.0285690000000000  -29.8026814592065215  19.2847216706671283  15.7982703471779100 0 0 0
252       13   1    0.0285690000000000  -29.8432019682628749  18.4765535049346923  17.3712231605968235 0 0 0
253       14   5   -0.1079060000000000  -14.5555687915838714 -27.9967364475359624  18.0923092401413363 0 0 0
254       14   7   -0.0585320000000000  -15.3278024840312561 -28.1782532562208878  16.7922900307009897 0 0 0
255       14   6    0.4337320000000000  -16.7919259860418464 -27.7416859847372521  16.9178658804077955 0 0 0
256       14   8   -0.6823000000000000  -16.8505423534153707 -26.3583211124190910  17.2584777643931808 0 0 0
257       14   7   -0.0585320000000000  -17.5540400674173895 -27.9833293626715935  15.6098663863828193 0 0 0
258       14   5   -0.1079060000000000  -19.0193284621715542 -27.5802716237948431  15.7085198968643027 0 0 0
259       14   1    0.0285690000000000  -13.5224983732494284 -28.3364192350513520  17.9671686139319604 0 0 0
260       14   1    0.0285690000000000  -15.0086216272461002 -28.5787603969726156  18.9010489336030680 0 0 0
261       14   1    0.0285690000000000  -14.5282769127542348 -26.9459013368596452  18.3970223266995383 0 0 0
262       14   2    0.0140440000000000  -15.2775742035661199 -29.2311262062136024  16.4914956701900834 0 0 0
263       14   2    0.0140440000000000  -14.8287283402895991 -27.5882629412026716  16.0139042681556916 0 0 0
264       14   3   -0.0487190000000000  -17.2726866945469943 -28.2991776379623303  17.7298744919027733 0 0 0
265       14   4    0.4025730000000000  -16.4276718568765006 -25.8567473536114711  16.5410742528792021 0 0 0
266       14   2    0.0140440000000000  -17.4926730955712912 -29.0426980469835172  15.3348443829618990 0 0 0
267       14   2    0.0140440000000000  -17.0951349952385456 -27.4049979647653466  14.7987636459581786 0 0 0
268       14   1    0.0285690000000000  -19.5254578237592398 -28.1344120341714756  16.5052407906699337 0 0 0
269       14   1    0.0285690000000000  -19.5331234841089803 -27.7949538281305664  14.7660698642504329 0 0 0
270       14   1    0.0285690000000000  -19.1255826161835074 -26.5100088441154433  15.9114017279584665 0 0 0
271       15   5   -0.1079060000000000   29.5906323022669540 -27.8300529030903014  7.3248596887542154  0 0 0