
                                 *****************
                                 * O   R   C   A *
                                 *****************

           --- An Ab Initio, DFT and Semiempirical electronic structure package ---

                  #######################################################
                  #                        -***-                        #
                  #          Department of theory and spectroscopy      #
                  #               Directorship: Frank Neese             #
                  #        Max Planck Institute fuer Kohlenforschung    #
                  #                Kaiser Wilhelm Platz 1               #
                  #                 D-45470 Muelheim/Ruhr               #
                  #                      Germany                        #
                  #                                                     #
                  #                  All rights reserved                #
                  #                        -***-                        #
                  #######################################################


                         Program Version 4.1.2  - RELEASE  -


 With contributions from (in alphabetic order):
   Daniel Aravena         : Magnetic Properties
   Michael Atanasov       : Ab Initio Ligand Field Theory
   Alexander A. Auer      : GIAO ZORA
   Ute Becker             : Parallelization
   Giovanni Bistoni       : ED, Open-shell LED
   Martin Brehm           : Molecular dynamics
   Dmytro Bykov           : SCF Hessian
   Vijay G. Chilkuri      : MRCI spin determinant printing
   Dipayan Datta          : RHF DLPNO-CCSD density
   Achintya Kumar Dutta   : EOM-CC, STEOM-CC
   Dmitry Ganyushin       : Spin-Orbit,Spin-Spin,Magnetic field MRCI
   Miquel Garcia          : C-PCM Hessian
   Yang Guo               : DLPNO-NEVPT2, CIM, IAO-localization
   Andreas Hansen         : Spin unrestricted coupled pair/coupled cluster methods
   Benjamin Helmich-Paris : CASSCF linear response (MC-RPA)
   Lee Huntington         : MR-EOM, pCC
   Robert Izsak           : Overlap fitted RIJCOSX, COSX-SCS-MP3, EOM
   Christian Kollmar      : KDIIS, OOCD, Brueckner-CCSD(T), CCSD density
   Simone Kossmann        : Meta GGA functionals, TD-DFT gradient, OOMP2, MP2 Hessian
   Martin Krupicka        : AUTO-CI
   Lucas Lang             : DCDCAS
   Dagmar Lenk            : GEPOL surface, SMD
   Dimitrios Liakos       : Extrapolation schemes; parallel MDCI
   Dimitrios Manganas     : ROCIS; embedding schemes
   Dimitrios Pantazis     : SARC Basis sets
   Taras Petrenko         : DFT Hessian,TD-DFT gradient, ASA, ECA, R-Raman, ABS, FL, XAS/XES, NRVS
   Peter Pinski           : DLPNO-MP2, DLPNO-MP2 Gradient
   Christoph Reimann      : Effective Core Potentials
   Marius Retegan         : Local ZFS, SOC
   Christoph Riplinger    : Optimizer, TS searches, QM/MM, DLPNO-CCSD(T), (RO)-DLPNO pert. Triples
   Tobias Risthaus        : Range-separated hybrids, TD-DFT gradient, RPA, STAB
   Michael Roemelt        : Restricted open shell CIS
   Masaaki Saitow         : Open-shell DLPNO
   Barbara Sandhoefer     : DKH picture change effects
   Avijit Sen             : IP-ROCIS
   Kantharuban Sivalingam : CASSCF convergence, NEVPT2, FIC-MRCI
   Bernardo de Souza      : ESD, SOC TD-DFT
   Georgi Stoychev        : AutoAux, RI-MP2 NMR
   Willem Van den Heuvel  : Paramagnetic NMR
   Boris Wezisla          : Elementary symmetry handling
   Frank Wennmohs         : Technical directorship


 We gratefully acknowledge several colleagues who have allowed us to
 interface, adapt or use parts of their codes:
   Stefan Grimme, W. Hujo, H. Kruse,             : VdW corrections, initial TS optimization,
                  C. Bannwarth                     DFT functionals, gCP, sTDA/sTD-DF
   Ed Valeev                                     : LibInt (2-el integral package), F12 methods
   Garnet Chan, S. Sharma, J. Yang, R. Olivares  : DMRG
   Ulf Ekstrom                                   : XCFun DFT Library
   Mihaly Kallay                                 : mrcc  (arbitrary order and MRCC methods)
   Andreas Klamt, Michael Diedenhofen            : otool_cosmo (COSMO solvation model)
   Jiri Pittner, Ondrej Demel                    : Mk-CCSD
   Frank Weinhold                                : gennbo (NPA and NBO analysis)
   Christopher J. Cramer and Donald G. Truhlar   : smd solvation model
   Lars Goerigk                                  : TD-DFT with DH, B97 family of functionals
   V. Asgeirsson, H. Jonsson                     : NEB implementation
   FAccTs GmbH                                   : IRC, NEB, NEB-TS, Multilevel


 Your calculation uses the libint2 library for the computation of 2-el integrals
 For citations please refer to: http://libint.valeyev.net

 This ORCA versions uses:
   CBLAS   interface :  Fast vector & matrix operations
   LAPACKE interface :  Fast linear algebra routines
   SCALAPACK package :  Parallel linear algebra routines


Your calculation utilizes the atom-pairwise dispersion correction
with the zero-damping scheme (D30)
Cite in your paper:
S.Grimme, J.Antony, S.Ehrlich and H.Krieg, J.Chem.Phys., 132, (2010), 154104 
   

XCFun DFT library Copyright 2009-2010 Ulf Ekstrom and contributors.
See http://admol.org/xcfun for more information. This is free soft-
ware; see the source code for copying conditions. There is ABSOLUTELY
NO WARRANTY; not even for MERCHANTABILITY or FITNESS FOR A PARTICULAR
PURPOSE. For details see the documentation. Scientific users of this 
library should cite U. Ekstrom, L. Visscher, R. Bast, A. J. Thorvald-
sen and K. Ruud; J.Chem.Theor.Comp. 2010, DOI: 10.1021/ct100117s
XCFun Version 0.99 
----- Orbital basis set information -----
Your calculation utilizes the basis: def2-TZVP
   F. Weigend and R. Ahlrichs, Phys. Chem. Chem. Phys. 7, 3297 (2005).

================================================================================
                                        WARNINGS
                       Please study these warnings very carefully!
================================================================================


INFO   : the flag for use of LIBINT has been found!

================================================================================
                                       INPUT FILE
================================================================================
NAME = 2.in
|  1> #Run DFT-D3 single point of the dimer
|  2> ! wB97X-D3 def2-TZVP TIGHTSCF  CHELPG PAL8
|  3> 
|  4> %base "2_charges"
|  5> 
|  6> %scf
|  7> MaxIter 1000
|  8> end
|  9> %output
| 10>   Print[ P_Mayer ] 1
| 11>   Print[ P_NatPop ] 1
| 12>   Print[ P_Hirshfeld ] 1
| 13>   Print[ P_Mulliken ] 1
| 14>   Print [ P_Loewdin ] 1
| 15> end
| 16> 
| 17> * xyz 0 1
| 18>   C                      3.643258             -1.721147            -11.488572          
| 19>   O                      3.142358             -2.957691            -11.222408          
| 20>   H                      2.911983             -2.963826            -10.301646          
| 21>   H                      4.392220             -1.459379            -10.798810          
| 22>   H                      4.251516             -1.778195            -12.429559          
| 23>   H                      2.901589             -0.967879            -11.648010          
| 24> *
| 25> 
| 26>                          ****END OF INPUT****
================================================================================

                       ****************************
                       * Single Point Calculation *
                       ****************************

---------------------------------
CARTESIAN COORDINATES (ANGSTROEM)
---------------------------------
  C      3.643258   -1.721147  -11.488572
  O      3.142358   -2.957691  -11.222408
  H      2.911983   -2.963826  -10.301646
  H      4.392220   -1.459379  -10.798810
  H      4.251516   -1.778195  -12.429559
  H      2.901589   -0.967879  -11.648010

----------------------------
CARTESIAN COORDINATES (A.U.)
----------------------------
  NO LB      ZA    FRAG     MASS         X           Y           Z
   0 C     6.0000    0    12.011    6.884760   -3.252496  -21.710255
   1 O     8.0000    0    15.999    5.938196   -5.589226  -21.207278
   2 H     1.0000    0     1.008    5.502850   -5.600819  -19.467290
   3 H     1.0000    0     1.008    8.300093   -2.757827  -20.406793
   4 H     1.0000    0     1.008    8.034201   -3.360302  -23.488462
   5 H     1.0000    0     1.008    5.483209   -1.829026  -22.011549

--------------------------------
INTERNAL COORDINATES (ANGSTROEM)
--------------------------------
 C      0   0   0     0.000000000000     0.00000000     0.00000000
 O      1   0   0     1.360435646707     0.00000000     0.00000000
 H      2   1   0     0.949164337454   106.56073668     0.00000000
 H      1   2   3     1.051303086608   111.11608590    50.84135096
 H      1   2   3     1.121913010459   108.51155388   160.05391281
 H      1   2   3     1.069067846878   114.46773595   279.04850850

---------------------------
INTERNAL COORDINATES (A.U.)
---------------------------
 C      0   0   0     0.000000000000     0.00000000     0.00000000
 O      1   0   0     2.570850795101     0.00000000     0.00000000
 H      2   1   0     1.793660653872   106.56073668     0.00000000
 H      1   2   3     1.986674917436   111.11608590    50.84135096
 H      1   2   3     2.120108335850   108.51155388   160.05391281
 H      1   2   3     2.020245449181   114.46773595   279.04850850

---------------------
BASIS SET INFORMATION
---------------------
There are 3 groups of distinct atoms

 Group   1 Type C   : 11s6p2d1f contracted to 5s3p2d1f pattern {62111/411/11/1}
 Group   2 Type O   : 11s6p2d1f contracted to 5s3p2d1f pattern {62111/411/11/1}
 Group   3 Type H   : 5s1p contracted to 3s1p pattern {311/1}

Atom   0C    basis set group =>   1
Atom   1O    basis set group =>   2
Atom   2H    basis set group =>   3
Atom   3H    basis set group =>   3
Atom   4H    basis set group =>   3
Atom   5H    basis set group =>   3


           ************************************************************
           *        Program running with 8 parallel MPI-processes     *
           *              working on a common directory               *
           ************************************************************
------------------------------------------------------------------------------
                           ORCA GTO INTEGRAL CALCULATION
------------------------------------------------------------------------------

                         BASIS SET STATISTICS AND STARTUP INFO

 # of primitive gaussian shells          ...   64
 # of primitive gaussian functions       ...  124
 # of contracted shells                  ...   38
 # of contracted basis functions         ...   86
 Highest angular momentum                ...    3
 Maximum contraction depth               ...    6
 Integral package used                   ... LIBINT
 Integral threshhold            Thresh   ...  2.500e-11
 Primitive cut-off              TCut     ...  2.500e-12


------------------------------ INTEGRAL EVALUATION ----------------------------


 * One electron integrals 
 Pre-screening matrix                    ... done
 Shell pair data                         ... done (   0.000 sec)



           ************************************************************
           *        Program running with 8 parallel MPI-processes     *
           *              working on a common directory               *
           ************************************************************
-------------------------------------------------------------------------------
                                 ORCA SCF
-------------------------------------------------------------------------------

------------
SCF SETTINGS
------------
Hamiltonian:
 Density Functional     Method          .... DFT(GTOs)
 Exchange Functional    Exchange        .... WB97X-D3
 Correlation Functional Correlation     .... WB97X-D3
 Gradients option       PostSCFGGA      .... off
 Hybrid DFT is turned on
   Fraction HF Exchange ScalHFX         ....  0.195728
   Scaling of DF-GGA-X  ScalDFX         ....  0.000000
   Scaling of DF-GGA-C  ScalDFC         ....  1.000000
   Scaling of DF-LDA-C  ScalLDAC        ....  1.000000
   Perturbative correction              ....  0.000000
   Density functional embedding theory  .... OFF
 Long-range corrected/Screened/Range-Separated Hybrid DFT is turned on
   Amount of maximum screened exact exchange              ....  0.804272
   Range separation parameter mu (erf(mu*r12)/r12)        ....  0.250000


General Settings:
 Integral files         IntName         .... 2_charges
 Hartree-Fock type      HFTyp           .... RHF
 Total Charge           Charge          ....    0
 Multiplicity           Mult            ....    1
 Number of Electrons    NEL             ....   18
 Basis Dimension        Dim             ....   86
 Nuclear Repulsion      ENuc            ....     41.5028921551 Eh

Convergence Acceleration:
 DIIS                   CNVDIIS         .... on
   Start iteration      DIISMaxIt       ....    12
   Startup error        DIISStart       ....  0.200000
   # of expansion vecs  DIISMaxEq       ....     5
   Bias factor          DIISBfac        ....   1.050
   Max. coefficient     DIISMaxC        ....  10.000
 Newton-Raphson         CNVNR           .... off
 SOSCF                  CNVSOSCF        .... on
   Start iteration      SOSCFMaxIt      ....   150
   Startup grad/error   SOSCFStart      ....  0.003300
 Level Shifting         CNVShift        .... on
   Level shift para.    LevelShift      ....    0.2500
   Turn off err/grad.   ShiftErr        ....    0.0010
 Zerner damping         CNVZerner       .... off
 Static damping         CNVDamp         .... on
   Fraction old density DampFac         ....    0.7000
   Max. Damping (<1)    DampMax         ....    0.9800
   Min. Damping (>=0)   DampMin         ....    0.0000
   Turn off err/grad.   DampErr         ....    0.1000
 Fernandez-Rico         CNVRico         .... off

SCF Procedure:
 Maximum # iterations   MaxIter         ....  1000
 SCF integral mode      SCFMode         .... Direct
   Integral package                     .... LIBINT
 Reset frequency        DirectResetFreq ....    20
 Integral Threshold     Thresh          ....  2.500e-11 Eh
 Primitive CutOff       TCut            ....  2.500e-12 Eh

Convergence Tolerance:
 Convergence Check Mode ConvCheckMode   .... Total+1el-Energy
 Convergence forced     ConvForced      .... 0
 Energy Change          TolE            ....  1.000e-08 Eh
 1-El. energy change                    ....  1.000e-05 Eh
 Orbital Gradient       TolG            ....  1.000e-05
 Orbital Rotation angle TolX            ....  1.000e-05
 DIIS Error             TolErr          ....  5.000e-07


Diagonalization of the overlap matrix:
Smallest eigenvalue                        ... 1.552e-03
Time for diagonalization                   ...    0.149 sec
Threshold for overlap eigenvalues          ... 1.000e-08
Number of eigenvalues below threshold      ... 0
Time for construction of square roots      ...    0.102 sec
Total time needed                          ...    0.251 sec

-------------------
DFT GRID GENERATION
-------------------

General Integration Accuracy     IntAcc      ...  4.340
Radial Grid Type                 RadialGrid  ... Gauss-Chebyshev
Angular Grid (max. acc.)         AngularGrid ... Lebedev-110
Angular grid pruning method      GridPruning ... 3 (G Style)
Weight generation scheme         WeightScheme... Becke
Basis function cutoff            BFCut       ...    1.0000e-11
Integration weight cutoff        WCut        ...    1.0000e-14
Grids for H and He will be reduced by one unit

# of grid points (after initial pruning)     ...   6548 (   0.0 sec)
# of grid points (after weights+screening)   ...   6369 (   0.1 sec)
nearest neighbour list constructed           ...    0.0 sec
Grid point re-assignment to atoms done       ...    0.0 sec
Grid point division into batches done        ...    0.0 sec
Reduced shell lists constructed in    0.0 sec

Total number of grid points                  ...     6369
Total number of batches                      ...      103
Average number of points per batch           ...       61
Average number of grid points per atom       ...     1062
Average number of shells per batch           ...    32.57 (85.71%)
Average number of basis functions per batch  ...    75.00 (87.21%)
Average number of large shells per batch     ...    31.71 (97.37%)
Average number of large basis fcns per batch ...    73.14 (97.52%)
Maximum spatial batch extension              ...  21.52, 14.90, 14.57 au
Average spatial batch extension              ...   0.49,  0.42,  0.34 au

Time for grid setup =    0.796 sec

------------------------------
INITIAL GUESS: MODEL POTENTIAL
------------------------------
Loading Hartree-Fock densities                     ... done
Calculating cut-offs                               ... done
Setting up the integral package                    ... done
Initializing the effective Hamiltonian             ... done
Starting the Coulomb interaction                   ... done (   0.0 sec)
Reading the grid                                   ... done
Mapping shells                                     ... done
Starting the XC term evaluation                    ... done (   0.3 sec)
  promolecular density results
     # of electrons  =     18.000497737
     EX              =    -14.457985893
     EC              =     -0.578975889
     EX+EC           =    -15.036961782
Transforming the Hamiltonian                       ... done (   0.0 sec)
Diagonalizing the Hamiltonian                      ... done (   0.0 sec)
Back transforming the eigenvectors                 ... done (   0.0 sec)
Now organizing SCF variables                       ... done
                      ------------------
                      INITIAL GUESS DONE (   2.2 sec)
                      ------------------
--------------
SCF ITERATIONS
--------------
ITER       Energy         Delta-E        Max-DP      RMS-DP      [F,P]     Damp
               ***  Starting incremental Fock matrix formation  ***
  0   -115.6385086197   0.000000000000 0.03663282  0.00152383  0.2542959 0.7000
  1   -115.6777614314  -0.039252811683 0.02239008  0.00108723  0.1290692 0.7000
                               ***Turning on DIIS***
  2   -115.6960346501  -0.018273218737 0.03381105  0.00198452  0.0527575 0.0000
  3   -115.7256559146  -0.029621264514 0.01765956  0.00070560  0.0595580 0.0000
  4   -115.7304624335  -0.004806518934 0.00410207  0.00013522  0.0062689 0.0000
                      *** Initiating the SOSCF procedure ***
                           *** Shutting down DIIS ***
                      *** Re-Reading the Fockian *** 
                      *** Removing any level shift *** 
ITER      Energy       Delta-E        Grad      Rot      Max-DP    RMS-DP
  5   -115.73055692  -0.0000944887  0.000454  0.000454  0.000762  0.000047
               *** Restarting incremental Fock matrix formation ***
  6   -115.73056534  -0.0000084226  0.000130  0.000168  0.000423  0.000028
  7   -115.73056607  -0.0000007271  0.000055  0.000106  0.000208  0.000013
  8   -115.73056613  -0.0000000542  0.000027  0.000022  0.000038  0.000002
  9   -115.73056614  -0.0000000151  0.000008  0.000008  0.000016  0.000001
 10   -115.73056614  -0.0000000010  0.000003  0.000003  0.000005  0.000000
                  ***Gradient check signals convergence***
              ***Rediagonalizing the Fockian in SOSCF/NRSCF***

               *****************************************************
               *                     SUCCESS                       *
               *           SCF CONVERGED AFTER  11 CYCLES          *
               *****************************************************

Setting up the final grid:

General Integration Accuracy     IntAcc      ...  4.670
Radial Grid Type                 RadialGrid  ... Gauss-Chebyshev
Angular Grid (max. acc.)         AngularGrid ... Lebedev-302
Angular grid pruning method      GridPruning ... 3 (G Style)
Weight generation scheme         WeightScheme... Becke
Basis function cutoff            BFCut       ...    1.0000e-11
Integration weight cutoff        WCut        ...    1.0000e-14
Grids for H and He will be reduced by one unit

# of grid points (after initial pruning)     ...  26000 (   0.0 sec)
# of grid points (after weights+screening)   ...  25171 (   0.1 sec)
nearest neighbour list constructed           ...    0.0 sec
Grid point re-assignment to atoms done       ...    0.0 sec
Grid point division into batches done        ...    0.1 sec
Reduced shell lists constructed in    0.1 sec

Total number of grid points                  ...    25171
Total number of batches                      ...      397
Average number of points per batch           ...       63
Average number of grid points per atom       ...     4195
Average number of shells per batch           ...    31.10 (81.84%)
Average number of basis functions per batch  ...    71.06 (82.63%)
Average number of large shells per batch     ...    29.69 (95.46%)
Average number of large basis fcns per batch ...    68.27 (96.08%)
Maximum spatial batch extension              ...  15.73, 13.48, 14.26 au
Average spatial batch extension              ...   0.33,  0.32,  0.30 au

Final grid set up in    0.6 sec
Final integration                            ... done (   0.3 sec)
Change in XC energy                          ...     0.000052528
Integrated number of electrons               ...    18.000029559
Previous integrated no of electrons          ...    18.001196093

----------------
TOTAL SCF ENERGY
----------------

Total Energy       :         -115.73051361 Eh           -3149.18738 eV

Components:
Nuclear Repulsion  :           41.50289216 Eh            1129.35111 eV
Electronic Energy  :         -157.23340577 Eh           -4278.53849 eV
One Electron Energy:         -239.31895738 Eh           -6512.19990 eV
Two Electron Energy:           82.08555161 Eh            2233.66142 eV

Virial components:
Potential Energy   :         -231.17462930 Eh           -6290.58147 eV
Kinetic Energy     :          115.44411569 Eh            3141.39409 eV
Virial Ratio       :            2.00248084


DFT components:
N(Alpha)           :        9.000014779286 electrons
N(Beta)            :        9.000014779286 electrons
N(Total)           :       18.000029558573 electrons
E(XC)              :      -10.692350976889 Eh       
DFET-embed. en.    :        0.000000000000 Eh       

---------------
SCF CONVERGENCE
---------------

  Last Energy change         ...   -3.5233e-10  Tolerance :   1.0000e-08
  Last MAX-Density change    ...    1.6411e-06  Tolerance :   1.0000e-07
  Last RMS-Density change    ...    9.4276e-08  Tolerance :   5.0000e-09
  Last Orbital Gradient      ...    7.3696e-07  Tolerance :   1.0000e-05
  Last Orbital Rotation      ...    1.0357e-06  Tolerance :   1.0000e-05

             **** THE GBW FILE WAS UPDATED (2_charges.gbw) ****
             **** DENSITY FILE WAS UPDATED (2_charges.scfp.tmp) ****
             **** ENERGY FILE WAS UPDATED (2_charges.en.tmp) ****
----------------
ORBITAL ENERGIES
----------------

  NO   OCC          E(Eh)            E(eV) 
   0   2.0000     -19.228858      -523.2438 
   1   2.0000     -10.302355      -280.3413 
   2   2.0000      -1.156822       -31.4787 
   3   2.0000      -0.796907       -21.6850 
   4   2.0000      -0.621656       -16.9161 
   5   2.0000      -0.561920       -15.2906 
   6   2.0000      -0.529465       -14.4075 
   7   2.0000      -0.422328       -11.4921 
   8   2.0000      -0.376428       -10.2431 
   9   0.0000       0.118457         3.2234 
  10   0.0000       0.159296         4.3347 
  11   0.0000       0.202132         5.5003 
  12   0.0000       0.211669         5.7598 
  13   0.0000       0.229583         6.2473 
  14   0.0000       0.306393         8.3374 
  15   0.0000       0.318800         8.6750 
  16   0.0000       0.421501        11.4696 
  17   0.0000       0.455988        12.4081 
  18   0.0000       0.490849        13.3567 
  19   0.0000       0.543843        14.7987 
  20   0.0000       0.544732        14.8229 
  21   0.0000       0.567094        15.4314 
  22   0.0000       0.609555        16.5868 
  23   0.0000       0.627491        17.0749 
  24   0.0000       0.677498        18.4357 
  25   0.0000       0.767405        20.8821 
  26   0.0000       0.822209        22.3734 
  27   0.0000       0.867348        23.6017 
  28   0.0000       0.978853        26.6360 
  29   0.0000       1.034148        28.1406 
  30   0.0000       1.127856        30.6905 
  31   0.0000       1.374415        37.3997 
  32   0.0000       1.505688        40.9718 
  33   0.0000       1.555579        42.3295 
  34   0.0000       1.607601        43.7450 
  35   0.0000       1.615124        43.9498 
  36   0.0000       1.650706        44.9180 
  37   0.0000       1.686130        45.8819 
  38   0.0000       1.713523        46.6273 
  39   0.0000       1.778465        48.3945 
  40   0.0000       1.950432        53.0739 
  41   0.0000       2.014083        54.8060 
  42   0.0000       2.046260        55.6816 
  43   0.0000       2.112256        57.4774 
  44   0.0000       2.139325        58.2140 
  45   0.0000       2.292828        62.3910 
  46   0.0000       2.311191        62.8907 
  47   0.0000       2.387215        64.9594 
  48   0.0000       2.413298        65.6692 
  49   0.0000       2.425767        66.0085 
  50   0.0000       2.554470        69.5107 
  51   0.0000       2.618053        71.2408 
  52   0.0000       2.680286        72.9343 
  53   0.0000       2.699299        73.4517 
  54   0.0000       2.860847        77.8476 
  55   0.0000       2.905526        79.0634 
  56   0.0000       2.913181        79.2717 
  57   0.0000       2.981709        81.1364 
  58   0.0000       3.127892        85.1143 
  59   0.0000       3.213790        87.4517 
  60   0.0000       3.304863        89.9299 
  61   0.0000       3.409246        92.7703 
  62   0.0000       3.472902        94.5025 
  63   0.0000       3.554539        96.7239 
  64   0.0000       3.655102        99.4604 
  65   0.0000       3.677867       100.0798 
  66   0.0000       3.713073       101.0378 
  67   0.0000       4.029623       109.6516 
  68   0.0000       4.186045       113.9081 
  69   0.0000       4.302517       117.0774 
  70   0.0000       4.475333       121.7800 
  71   0.0000       4.570538       124.3707 
  72   0.0000       5.383440       146.4909 
  73   0.0000       5.472026       148.9014 
  74   0.0000       5.580184       151.8445 
  75   0.0000       5.878025       159.9492 
  76   0.0000       5.934485       161.4856 
  77   0.0000       6.077081       165.3658 
  78   0.0000       6.399524       174.1399 
  79   0.0000       6.543700       178.0631 
  80   0.0000       6.766902       184.1368 
  81   0.0000       6.837786       186.0656 
  82   0.0000       7.044856       191.7003 
  83   0.0000       7.242614       197.0815 
  84   0.0000      22.610168       615.2539 
  85   0.0000      43.682590      1188.6637 

                    ********************************
                    * MULLIKEN POPULATION ANALYSIS *
                    ********************************

-----------------------
MULLIKEN ATOMIC CHARGES
-----------------------
   0 C :   -0.156641
   1 O :   -0.458913
   2 H :    0.313922
   3 H :    0.102764
   4 H :    0.102786
   5 H :    0.096081
Sum of atomic charges:    0.0000000

--------------------------------
MULLIKEN REDUCED ORBITAL CHARGES
--------------------------------
  0 C s       :     3.205213  s :     3.205213
      pz      :     1.089232  p :     2.838881
      px      :     0.990025
      py      :     0.759624
      dz2     :     0.013192  d :     0.103899
      dxz     :     0.016805
      dyz     :     0.020680
      dx2y2   :     0.025643
      dxy     :     0.027580
      f0      :     0.000585  f :     0.008647
      f+1     :     0.000811
      f-1     :     0.000986
      f+2     :     0.000822
      f-2     :     0.000950
      f+3     :     0.001618
      f-3     :     0.002876
  1 O s       :     3.787485  s :     3.787485
      pz      :     1.381776  p :     4.636609
      px      :     1.794716
      py      :     1.460118
      dz2     :     0.011956  d :     0.033009
      dxz     :     0.003336
      dyz     :     0.004617
      dx2y2   :     0.006941
      dxy     :     0.006158
      f0      :     0.000524  f :     0.001810
      f+1     :     0.000283
      f-1     :     0.000058
      f+2     :     0.000114
      f-2     :     0.000175
      f+3     :     0.000364
      f-3     :     0.000291
  2 H s       :     0.637620  s :     0.637620
      pz      :     0.018913  p :     0.048458
      px      :     0.017392
      py      :     0.012154
  3 H s       :     0.876511  s :     0.876511
      pz      :     0.007881  p :     0.020725
      px      :     0.008935
      py      :     0.003909
  4 H s       :     0.877713  s :     0.877713
      pz      :     0.010120  p :     0.019500
      px      :     0.006721
      py      :     0.002659
  5 H s       :     0.883306  s :     0.883306
      pz      :     0.004919  p :     0.020613
      px      :     0.007766
      py      :     0.007928


                     *******************************
                     * LOEWDIN POPULATION ANALYSIS *
                     *******************************

----------------------
LOEWDIN ATOMIC CHARGES
----------------------
   0 C :   -0.426689
   1 O :   -0.030373
   2 H :    0.167717
   3 H :    0.086959
   4 H :    0.114310
   5 H :    0.088076

-------------------------------
LOEWDIN REDUCED ORBITAL CHARGES
-------------------------------
  0 C s       :     2.839974  s :     2.839974
      pz      :     1.104644  p :     3.063853
      px      :     1.048587
      py      :     0.910622
      dz2     :     0.061232  d :     0.455646
      dxz     :     0.073149
      dyz     :     0.069594
      dx2y2   :     0.107432
      dxy     :     0.144239
      f0      :     0.004904  f :     0.067216
      f+1     :     0.004278
      f-1     :     0.010665
      f+2     :     0.010952
      f-2     :     0.005315
      f+3     :     0.011673
      f-3     :     0.019429
  1 O s       :     3.334108  s :     3.334108
      pz      :     1.385213  p :     4.608892
      px      :     1.702320
      py      :     1.521360
      dz2     :     0.025559  d :     0.081717
      dxz     :     0.007680
      dyz     :     0.014511
      dx2y2   :     0.017373
      dxy     :     0.016593
      f0      :     0.001563  f :     0.005656
      f+1     :     0.000467
      f-1     :     0.000564
      f+2     :     0.000469
      f-2     :     0.000558
      f+3     :     0.000954
      f-3     :     0.001081
  2 H s       :     0.671189  s :     0.671189
      pz      :     0.078885  p :     0.161094
      px      :     0.047856
      py      :     0.034353
  3 H s       :     0.845640  s :     0.845640
      pz      :     0.025925  p :     0.067401
      px      :     0.028258
      py      :     0.013217
  4 H s       :     0.831637  s :     0.831637
      pz      :     0.027996  p :     0.054053
      px      :     0.018139
      py      :     0.007918
  5 H s       :     0.848032  s :     0.848032
      pz      :     0.015924  p :     0.063892
      px      :     0.024362
      py      :     0.023607


                      *****************************
                      * MAYER POPULATION ANALYSIS *
                      *****************************

  NA   - Mulliken gross atomic population
  ZA   - Total nuclear charge
  QA   - Mulliken gross atomic charge
  VA   - Mayer's total valence
  BVA  - Mayer's bonded valence
  FA   - Mayer's free valence

  ATOM       NA         ZA         QA         VA         BVA        FA
  0 C      6.1566     6.0000    -0.1566     3.9538     3.9538     0.0000
  1 O      8.4589     8.0000    -0.4589     1.8972     1.8972     0.0000
  2 H      0.6861     1.0000     0.3139     0.9115     0.9115     0.0000
  3 H      0.8972     1.0000     0.1028     0.9598     0.9598    -0.0000
  4 H      0.8972     1.0000     0.1028     0.9569     0.9569    -0.0000
  5 H      0.9039     1.0000     0.0961     0.9567     0.9567     0.0000

  Mayer bond orders larger than 0.1
B(  0-C ,  1-O ) :   1.0122 B(  0-C ,  3-H ) :   0.9854 B(  0-C ,  4-H ) :   0.9746 
B(  0-C ,  5-H ) :   0.9743 B(  1-O ,  2-H ) :   0.9011 


------------------
HIRSHFELD ANALYSIS
------------------

Total integrated alpha density =      9.000598047
Total integrated beta density  =      9.000598047

  ATOM     CHARGE      SPIN    
   0 C   -0.000863    0.000000
   1 O   -0.241358    0.000000
   2 H    0.163205    0.000000
   3 H    0.023059    0.000000
   4 H    0.030118    0.000000
   5 H    0.024643    0.000000

  TOTAL  -0.001196    0.000000

-------
TIMINGS
-------

Total SCF time: 0 days 0 hours 0 min 28 sec 

Total time                  ....      28.649 sec
Sum of individual times     ....      25.217 sec  ( 88.0%)

Fock matrix formation       ....      17.979 sec  ( 62.8%)
  XC integration            ....       4.280 sec  ( 23.8% of F)
    Basis function eval.    ....       0.038 sec  (  0.9% of XC)
    Density eval.           ....       0.046 sec  (  1.1% of XC)
    XC-Functional eval.     ....       0.075 sec  (  1.8% of XC)
    XC-Potential eval.      ....       0.035 sec  (  0.8% of XC)
Diagonalization             ....       2.197 sec  (  7.7%)
Density matrix formation    ....       1.341 sec  (  4.7%)
Population analysis         ....       0.045 sec  (  0.2%)
Initial guess               ....       1.437 sec  (  5.0%)
Orbital Transformation      ....       0.000 sec  (  0.0%)
Orbital Orthonormalization  ....       0.000 sec  (  0.0%)
DIIS solution               ....       0.306 sec  (  1.1%)
SOSCF solution              ....       0.543 sec  (  1.9%)
Grid generation             ....       1.368 sec  (  4.8%)


-------------------------------------------------------------------------------
                          DFT DISPERSION CORRECTION                            
                                                                               
                              DFTD3 V3.1  Rev 1                                
                              USING zero damping                               
-------------------------------------------------------------------------------
The omegaB97X-D3 functional is recognized. Fit by Chai et al.
Active option DFTDOPT                   ...         3   

molecular C6(AA) [au] = 208.610726 


            DFT-D V3
 parameters
 s6 scaling factor         :     1.0000 
 rs6 scaling factor        :     1.2810 
 s8 scaling factor         :     1.0000 
 rs8 scaling factor        :     1.0940 
 Damping factor alpha6     :    14.0000 
 Damping factor alpha8     :    16.0000 
 ad hoc parameters k1-k3   :    16.0000     1.3333    -4.0000 

 Edisp/kcal,au: -0.133100127999  -0.000212108533 
 E6   /kcal   :  -0.026078807 
 E8   /kcal   :  -0.107021321 
 % E8         :  80.406625143 

-------------------------   ----------------
Dispersion correction           -0.000212109
-------------------------   ----------------


-------------------------   --------------------
FINAL SINGLE POINT ENERGY      -115.730725723479
-------------------------   --------------------


                            ***************************************
                            *     ORCA property calculations      *
                            ***************************************

                                    ---------------------
                                    Active property flags
                                    ---------------------
   (+) Dipole Moment


------------------------------------------------------------------------------
                       ORCA ELECTRIC PROPERTIES CALCULATION
------------------------------------------------------------------------------

Dipole Moment Calculation                       ... on
Quadrupole Moment Calculation                   ... off
Polarizability Calculation                      ... off
GBWName                                         ... 2_charges.gbw
Electron density file                           ... 2_charges.scfp.tmp
The origin for moment calculation is the CENTER OF MASS  = ( 6.405248, -4.436181 -21.412964)

-------------
DIPOLE MOMENT
-------------
                                X             Y             Z
Electronic contribution:     -0.77638      -1.63220       0.36056
Nuclear contribution   :      0.84001       2.07450       0.13951
                        -----------------------------------------
Total Dipole Moment    :      0.06364       0.44230       0.50007
                        -----------------------------------------
Magnitude (a.u.)       :      0.67064
Magnitude (Debye)      :      1.70462



--------------------
Rotational spectrum 
--------------------
 
Rotational constants in cm-1:     4.428128     0.884032     0.860479 
Rotational constants in MHz : 132751.943237 26502.616309 25796.523328 

 Dipole components along the rotational axes: 
x,y,z [a.u.] :    -0.285793     0.602808     0.068539 
x,y,z [Debye]:    -0.726427     1.532216     0.174212 

 
------------------------------------------------------------------------------
                      ORCA CHELPG CHARGES GENERATION
------------------------------------------------------------------------------

GBW file                           ... 2_charges.gbw

Reading the GBW file               ... done

Grid spacing                       ...     0.300000
Point Cut-Off                      ...     2.800000
Van-der-Waals Radii                ...        COSMO
Total charge                       ...            0


Number of points X direction       ...           23
Number of points Y direction       ...           25
Number of points Z direction       ...           25
Maximum number of possible points  ...        14375
Final number of points             ...         5830


CHELPG Charges            
--------------------------------
  0   C   :       0.163597
  1   O   :      -0.599036
  2   H   :       0.397081
  3   H   :      -0.007489
  4   H   :       0.048569
  5   H   :      -0.002721
--------------------------------
Total charge:    -0.000000
--------------------------------

CHELPG charges calculated...

Timings for individual parts in CHELPG calculation:
Grid generation                 ...        0.001 sec (=   0.000 min)
Potential calculation           ...        0.627 sec (=   0.010 min)
Fit to the potential            ...        0.001 sec (=   0.000 min)
------------------------------------------------------------------------------


Timings for individual modules:

Sum of individual times         ...       39.902 sec (=   0.665 min)
GTO integral calculation        ...        5.289 sec (=   0.088 min)  13.3 %
SCF iterations                  ...       33.918 sec (=   0.565 min)  85.0 %
CHELPG charge generation        ...        0.695 sec (=   0.012 min)   1.7 %
                             ****ORCA TERMINATED NORMALLY****
TOTAL RUN TIME: 0 days 0 hours 0 minutes 42 seconds 157 msec
