
                                 *****************
                                 * O   R   C   A *
                                 *****************

           --- An Ab Initio, DFT and Semiempirical electronic structure package ---

                  #######################################################
                  #                        -***-                        #
                  #          Department of theory and spectroscopy      #
                  #               Directorship: Frank Neese             #
                  #        Max Planck Institute fuer Kohlenforschung    #
                  #                Kaiser Wilhelm Platz 1               #
                  #                 D-45470 Muelheim/Ruhr               #
                  #                      Germany                        #
                  #                                                     #
                  #                  All rights reserved                #
                  #                        -***-                        #
                  #######################################################


                         Program Version 4.1.2  - RELEASE  -


 With contributions from (in alphabetic order):
   Daniel Aravena         : Magnetic Properties
   Michael Atanasov       : Ab Initio Ligand Field Theory
   Alexander A. Auer      : GIAO ZORA
   Ute Becker             : Parallelization
   Giovanni Bistoni       : ED, Open-shell LED
   Martin Brehm           : Molecular dynamics
   Dmytro Bykov           : SCF Hessian
   Vijay G. Chilkuri      : MRCI spin determinant printing
   Dipayan Datta          : RHF DLPNO-CCSD density
   Achintya Kumar Dutta   : EOM-CC, STEOM-CC
   Dmitry Ganyushin       : Spin-Orbit,Spin-Spin,Magnetic field MRCI
   Miquel Garcia          : C-PCM Hessian
   Yang Guo               : DLPNO-NEVPT2, CIM, IAO-localization
   Andreas Hansen         : Spin unrestricted coupled pair/coupled cluster methods
   Benjamin Helmich-Paris : CASSCF linear response (MC-RPA)
   Lee Huntington         : MR-EOM, pCC
   Robert Izsak           : Overlap fitted RIJCOSX, COSX-SCS-MP3, EOM
   Christian Kollmar      : KDIIS, OOCD, Brueckner-CCSD(T), CCSD density
   Simone Kossmann        : Meta GGA functionals, TD-DFT gradient, OOMP2, MP2 Hessian
   Martin Krupicka        : AUTO-CI
   Lucas Lang             : DCDCAS
   Dagmar Lenk            : GEPOL surface, SMD
   Dimitrios Liakos       : Extrapolation schemes; parallel MDCI
   Dimitrios Manganas     : ROCIS; embedding schemes
   Dimitrios Pantazis     : SARC Basis sets
   Taras Petrenko         : DFT Hessian,TD-DFT gradient, ASA, ECA, R-Raman, ABS, FL, XAS/XES, NRVS
   Peter Pinski           : DLPNO-MP2, DLPNO-MP2 Gradient
   Christoph Reimann      : Effective Core Potentials
   Marius Retegan         : Local ZFS, SOC
   Christoph Riplinger    : Optimizer, TS searches, QM/MM, DLPNO-CCSD(T), (RO)-DLPNO pert. Triples
   Tobias Risthaus        : Range-separated hybrids, TD-DFT gradient, RPA, STAB
   Michael Roemelt        : Restricted open shell CIS
   Masaaki Saitow         : Open-shell DLPNO
   Barbara Sandhoefer     : DKH picture change effects
   Avijit Sen             : IP-ROCIS
   Kantharuban Sivalingam : CASSCF convergence, NEVPT2, FIC-MRCI
   Bernardo de Souza      : ESD, SOC TD-DFT
   Georgi Stoychev        : AutoAux, RI-MP2 NMR
   Willem Van den Heuvel  : Paramagnetic NMR
   Boris Wezisla          : Elementary symmetry handling
   Frank Wennmohs         : Technical directorship


 We gratefully acknowledge several colleagues who have allowed us to
 interface, adapt or use parts of their codes:
   Stefan Grimme, W. Hujo, H. Kruse,             : VdW corrections, initial TS optimization,
                  C. Bannwarth                     DFT functionals, gCP, sTDA/sTD-DF
   Ed Valeev                                     : LibInt (2-el integral package), F12 methods
   Garnet Chan, S. Sharma, J. Yang, R. Olivares  : DMRG
   Ulf Ekstrom                                   : XCFun DFT Library
   Mihaly Kallay                                 : mrcc  (arbitrary order and MRCC methods)
   Andreas Klamt, Michael Diedenhofen            : otool_cosmo (COSMO solvation model)
   Jiri Pittner, Ondrej Demel                    : Mk-CCSD
   Frank Weinhold                                : gennbo (NPA and NBO analysis)
   Christopher J. Cramer and Donald G. Truhlar   : smd solvation model
   Lars Goerigk                                  : TD-DFT with DH, B97 family of functionals
   V. Asgeirsson, H. Jonsson                     : NEB implementation
   FAccTs GmbH                                   : IRC, NEB, NEB-TS, Multilevel


 Your calculation uses the libint2 library for the computation of 2-el integrals
 For citations please refer to: http://libint.valeyev.net

 This ORCA versions uses:
   CBLAS   interface :  Fast vector & matrix operations
   LAPACKE interface :  Fast linear algebra routines
   SCALAPACK package :  Parallel linear algebra routines


Your calculation utilizes the atom-pairwise dispersion correction
with the zero-damping scheme (D30)
Cite in your paper:
S.Grimme, J.Antony, S.Ehrlich and H.Krieg, J.Chem.Phys., 132, (2010), 154104 
   

XCFun DFT library Copyright 2009-2010 Ulf Ekstrom and contributors.
See http://admol.org/xcfun for more information. This is free soft-
ware; see the source code for copying conditions. There is ABSOLUTELY
NO WARRANTY; not even for MERCHANTABILITY or FITNESS FOR A PARTICULAR
PURPOSE. For details see the documentation. Scientific users of this 
library should cite U. Ekstrom, L. Visscher, R. Bast, A. J. Thorvald-
sen and K. Ruud; J.Chem.Theor.Comp. 2010, DOI: 10.1021/ct100117s
XCFun Version 0.99 
----- Orbital basis set information -----
Your calculation utilizes the basis: def2-TZVP
   F. Weigend and R. Ahlrichs, Phys. Chem. Chem. Phys. 7, 3297 (2005).

================================================================================
                                        WARNINGS
                       Please study these warnings very carefully!
================================================================================


INFO   : the flag for use of LIBINT has been found!

================================================================================
                                       INPUT FILE
================================================================================
NAME = 64.in
|  1> #Run DFT-D3 single point of the dimer
|  2> ! wB97X-D3 def2-TZVP TIGHTSCF  CHELPG PAL8
|  3> 
|  4> %base "64_charges"
|  5> 
|  6> %scf
|  7> MaxIter 1000
|  8> end
|  9> %output
| 10>   Print[ P_Mayer ] 1
| 11>   Print[ P_NatPop ] 1
| 12>   Print[ P_Hirshfeld ] 1
| 13>   Print[ P_Mulliken ] 1
| 14>   Print [ P_Loewdin ] 1
| 15> end
| 16> 
| 17> * xyz 0 1
| 18>   C                      9.495482             -10.342722           -3.673967           
| 19>   O                      10.644217            -9.910621            -3.001201           
| 20>   H                      10.948021            -10.622128           -2.414928           
| 21>   H                      9.815591             -11.141785           -4.446540           
| 22>   H                      8.789315             -10.850703           -3.008992           
| 23>   H                      8.927938             -9.488505            -4.042059           
| 24> *
| 25> 
| 26>                          ****END OF INPUT****
================================================================================

                       ****************************
                       * Single Point Calculation *
                       ****************************

---------------------------------
CARTESIAN COORDINATES (ANGSTROEM)
---------------------------------
  C      9.495482  -10.342722   -3.673967
  O     10.644217   -9.910621   -3.001201
  H     10.948021  -10.622128   -2.414928
  H      9.815591  -11.141785   -4.446540
  H      8.789315  -10.850703   -3.008992
  H      8.927938   -9.488505   -4.042059

----------------------------
CARTESIAN COORDINATES (A.U.)
----------------------------
  NO LB      ZA    FRAG     MASS         X           Y           Z
   0 C     6.0000    0    12.011   17.943860  -19.544912   -6.942791
   1 O     8.0000    0    15.999   20.114655  -18.728360   -5.671448
   2 H     1.0000    0     1.008   20.688761  -20.072913   -4.563553
   3 H     1.0000    0     1.008   18.548779  -21.054922   -8.402743
   4 H     1.0000    0     1.008   16.609398  -20.504857   -5.686171
   5 H     1.0000    0     1.008   16.871358  -17.930676   -7.638385

--------------------------------
INTERNAL COORDINATES (ANGSTROEM)
--------------------------------
 C      0   0   0     0.000000000000     0.00000000     0.00000000
 O      1   0   0     1.399613327024     0.00000000     0.00000000
 H      2   1   0     0.970698260014   108.71720551     0.00000000
 H      1   2   3     1.156650547996   107.89062538   288.64528737
 H      1   2   3     1.094946701386   112.37307731    44.26875052
 H      1   2   3     1.089625897035   110.35583023   159.19180186

---------------------------
INTERNAL COORDINATES (A.U.)
---------------------------
 C      0   0   0     0.000000000000     0.00000000     0.00000000
 O      1   0   0     2.644885881461     0.00000000     0.00000000
 H      2   1   0     1.834353870100   108.71720551     0.00000000
 H      1   2   3     2.185752768362   107.89062538   288.64528737
 H      1   2   3     2.069149396859   112.37307731    44.26875052
 H      1   2   3     2.059094533824   110.35583023   159.19180186

---------------------
BASIS SET INFORMATION
---------------------
There are 3 groups of distinct atoms

 Group   1 Type C   : 11s6p2d1f contracted to 5s3p2d1f pattern {62111/411/11/1}
 Group   2 Type O   : 11s6p2d1f contracted to 5s3p2d1f pattern {62111/411/11/1}
 Group   3 Type H   : 5s1p contracted to 3s1p pattern {311/1}

Atom   0C    basis set group =>   1
Atom   1O    basis set group =>   2
Atom   2H    basis set group =>   3
Atom   3H    basis set group =>   3
Atom   4H    basis set group =>   3
Atom   5H    basis set group =>   3


           ************************************************************
           *        Program running with 8 parallel MPI-processes     *
           *              working on a common directory               *
           ************************************************************
------------------------------------------------------------------------------
                           ORCA GTO INTEGRAL CALCULATION
------------------------------------------------------------------------------

                         BASIS SET STATISTICS AND STARTUP INFO

 # of primitive gaussian shells          ...   64
 # of primitive gaussian functions       ...  124
 # of contracted shells                  ...   38
 # of contracted basis functions         ...   86
 Highest angular momentum                ...    3
 Maximum contraction depth               ...    6
 Integral package used                   ... LIBINT
 Integral threshhold            Thresh   ...  2.500e-11
 Primitive cut-off              TCut     ...  2.500e-12


------------------------------ INTEGRAL EVALUATION ----------------------------


 * One electron integrals 
 Pre-screening matrix                    ... done
 Shell pair data                         ... done (   0.000 sec)



           ************************************************************
           *        Program running with 8 parallel MPI-processes     *
           *              working on a common directory               *
           ************************************************************
-------------------------------------------------------------------------------
                                 ORCA SCF
-------------------------------------------------------------------------------

------------
SCF SETTINGS
------------
Hamiltonian:
 Density Functional     Method          .... DFT(GTOs)
 Exchange Functional    Exchange        .... WB97X-D3
 Correlation Functional Correlation     .... WB97X-D3
 Gradients option       PostSCFGGA      .... off
 Hybrid DFT is turned on
   Fraction HF Exchange ScalHFX         ....  0.195728
   Scaling of DF-GGA-X  ScalDFX         ....  0.000000
   Scaling of DF-GGA-C  ScalDFC         ....  1.000000
   Scaling of DF-LDA-C  ScalLDAC        ....  1.000000
   Perturbative correction              ....  0.000000
   Density functional embedding theory  .... OFF
 Long-range corrected/Screened/Range-Separated Hybrid DFT is turned on
   Amount of maximum screened exact exchange              ....  0.804272
   Range separation parameter mu (erf(mu*r12)/r12)        ....  0.250000


General Settings:
 Integral files         IntName         .... 64_charges
 Hartree-Fock type      HFTyp           .... RHF
 Total Charge           Charge          ....    0
 Multiplicity           Mult            ....    1
 Number of Electrons    NEL             ....   18
 Basis Dimension        Dim             ....   86
 Nuclear Repulsion      ENuc            ....     40.3698644576 Eh

Convergence Acceleration:
 DIIS                   CNVDIIS         .... on
   Start iteration      DIISMaxIt       ....    12
   Startup error        DIISStart       ....  0.200000
   # of expansion vecs  DIISMaxEq       ....     5
   Bias factor          DIISBfac        ....   1.050
   Max. coefficient     DIISMaxC        ....  10.000
 Newton-Raphson         CNVNR           .... off
 SOSCF                  CNVSOSCF        .... on
   Start iteration      SOSCFMaxIt      ....   150
   Startup grad/error   SOSCFStart      ....  0.003300
 Level Shifting         CNVShift        .... on
   Level shift para.    LevelShift      ....    0.2500
   Turn off err/grad.   ShiftErr        ....    0.0010
 Zerner damping         CNVZerner       .... off
 Static damping         CNVDamp         .... on
   Fraction old density DampFac         ....    0.7000
   Max. Damping (<1)    DampMax         ....    0.9800
   Min. Damping (>=0)   DampMin         ....    0.0000
   Turn off err/grad.   DampErr         ....    0.1000
 Fernandez-Rico         CNVRico         .... off

SCF Procedure:
 Maximum # iterations   MaxIter         ....  1000
 SCF integral mode      SCFMode         .... Direct
   Integral package                     .... LIBINT
 Reset frequency        DirectResetFreq ....    20
 Integral Threshold     Thresh          ....  2.500e-11 Eh
 Primitive CutOff       TCut            ....  2.500e-12 Eh

Convergence Tolerance:
 Convergence Check Mode ConvCheckMode   .... Total+1el-Energy
 Convergence forced     ConvForced      .... 0
 Energy Change          TolE            ....  1.000e-08 Eh
 1-El. energy change                    ....  1.000e-05 Eh
 Orbital Gradient       TolG            ....  1.000e-05
 Orbital Rotation angle TolX            ....  1.000e-05
 DIIS Error             TolErr          ....  5.000e-07


Diagonalization of the overlap matrix:
Smallest eigenvalue                        ... 1.787e-03
Time for diagonalization                   ...    0.061 sec
Threshold for overlap eigenvalues          ... 1.000e-08
Number of eigenvalues below threshold      ... 0
Time for construction of square roots      ...    0.876 sec
Total time needed                          ...    0.937 sec

-------------------
DFT GRID GENERATION
-------------------

General Integration Accuracy     IntAcc      ...  4.340
Radial Grid Type                 RadialGrid  ... Gauss-Chebyshev
Angular Grid (max. acc.)         AngularGrid ... Lebedev-110
Angular grid pruning method      GridPruning ... 3 (G Style)
Weight generation scheme         WeightScheme... Becke
Basis function cutoff            BFCut       ...    1.0000e-11
Integration weight cutoff        WCut        ...    1.0000e-14
Grids for H and He will be reduced by one unit

# of grid points (after initial pruning)     ...   6548 (   0.0 sec)
# of grid points (after weights+screening)   ...   6387 (   0.1 sec)
nearest neighbour list constructed           ...    0.0 sec
Grid point re-assignment to atoms done       ...    0.0 sec
Grid point division into batches done        ...    0.0 sec
Reduced shell lists constructed in    0.0 sec

Total number of grid points                  ...     6387
Total number of batches                      ...      102
Average number of points per batch           ...       62
Average number of grid points per atom       ...     1064
Average number of shells per batch           ...    31.93 (84.02%)
Average number of basis functions per batch  ...    73.21 (85.13%)
Average number of large shells per batch     ...    30.71 (96.20%)
Average number of large basis fcns per batch ...    70.43 (96.20%)
Maximum spatial batch extension              ...  16.16, 17.05, 15.18 au
Average spatial batch extension              ...   0.39,  0.47,  0.44 au

Time for grid setup =    1.284 sec

------------------------------
INITIAL GUESS: MODEL POTENTIAL
------------------------------
Loading Hartree-Fock densities                     ... done
Calculating cut-offs                               ... done
Setting up the integral package                    ... done
Initializing the effective Hamiltonian             ... done
Starting the Coulomb interaction                   ... done (   0.0 sec)
Reading the grid                                   ... done
Mapping shells                                     ... done
Starting the XC term evaluation                    ... done (   0.1 sec)
  promolecular density results
     # of electrons  =     17.999687864
     EX              =    -14.422515621
     EC              =     -0.574524413
     EX+EC           =    -14.997040034
Transforming the Hamiltonian                       ... done (   0.0 sec)
Diagonalizing the Hamiltonian                      ... done (   0.0 sec)
Back transforming the eigenvectors                 ... done (   0.0 sec)
Now organizing SCF variables                       ... done
                      ------------------
                      INITIAL GUESS DONE (   1.8 sec)
                      ------------------
--------------
SCF ITERATIONS
--------------
ITER       Energy         Delta-E        Max-DP      RMS-DP      [F,P]     Damp
               ***  Starting incremental Fock matrix formation  ***
  0   -115.6454880660   0.000000000000 0.03659227  0.00148308  0.2487543 0.7000
  1   -115.6825966770  -0.037108610943 0.02172718  0.00104571  0.1235670 0.7000
                               ***Turning on DIIS***
  2   -115.6994605218  -0.016863844858 0.03073194  0.00187569  0.0472586 0.0000
  3   -115.7267234544  -0.027262932542 0.01686481  0.00068457  0.0604255 0.0000
  4   -115.7313434959  -0.004620041563 0.00403957  0.00013574  0.0061706 0.0000
                      *** Initiating the SOSCF procedure ***
                           *** Shutting down DIIS ***
                      *** Re-Reading the Fockian *** 
                      *** Removing any level shift *** 
ITER      Energy       Delta-E        Grad      Rot      Max-DP    RMS-DP
  5   -115.73143630  -0.0000928069  0.000450  0.000450  0.000663  0.000047
               *** Restarting incremental Fock matrix formation ***
  6   -115.73144478  -0.0000084769  0.000142  0.000199  0.000440  0.000029
  7   -115.73144557  -0.0000007889  0.000054  0.000112  0.000209  0.000013
  8   -115.73144563  -0.0000000612  0.000023  0.000019  0.000037  0.000002
  9   -115.73144564  -0.0000000110  0.000010  0.000009  0.000020  0.000001
                  ***Gradient check signals convergence***
              ***Rediagonalizing the Fockian in SOSCF/NRSCF***

               *****************************************************
               *                     SUCCESS                       *
               *           SCF CONVERGED AFTER  10 CYCLES          *
               *****************************************************

Setting up the final grid:

General Integration Accuracy     IntAcc      ...  4.670
Radial Grid Type                 RadialGrid  ... Gauss-Chebyshev
Angular Grid (max. acc.)         AngularGrid ... Lebedev-302
Angular grid pruning method      GridPruning ... 3 (G Style)
Weight generation scheme         WeightScheme... Becke
Basis function cutoff            BFCut       ...    1.0000e-11
Integration weight cutoff        WCut        ...    1.0000e-14
Grids for H and He will be reduced by one unit

# of grid points (after initial pruning)     ...  26000 (   0.0 sec)
# of grid points (after weights+screening)   ...  25222 (   0.1 sec)
nearest neighbour list constructed           ...    0.0 sec
Grid point re-assignment to atoms done       ...    0.0 sec
Grid point division into batches done        ...    0.1 sec
Reduced shell lists constructed in    0.2 sec

Total number of grid points                  ...    25222
Total number of batches                      ...      396
Average number of points per batch           ...       63
Average number of grid points per atom       ...     4204
Average number of shells per batch           ...    31.59 (83.13%)
Average number of basis functions per batch  ...    72.14 (83.88%)
Average number of large shells per batch     ...    29.92 (94.72%)
Average number of large basis fcns per batch ...    69.06 (95.73%)
Maximum spatial batch extension              ...  15.65, 15.65, 15.16 au
Average spatial batch extension              ...   0.32,  0.30,  0.30 au

Final grid set up in    1.9 sec
Final integration                            ... done (   0.4 sec)
Change in XC energy                          ...    -0.000211292
Integrated number of electrons               ...    18.000001574
Previous integrated no of electrons          ...    18.000912575

----------------
TOTAL SCF ENERGY
----------------

Total Energy       :         -115.73165693 Eh           -3149.21849 eV

Components:
Nuclear Repulsion  :           40.36986446 Eh            1098.51986 eV
Electronic Energy  :         -156.10152139 Eh           -4247.73835 eV
One Electron Energy:         -237.16970300 Eh           -6453.71572 eV
Two Electron Energy:           81.06818161 Eh            2205.97737 eV

Virial components:
Potential Energy   :         -230.91660907 Eh           -6283.56038 eV
Kinetic Energy     :          115.18495213 Eh            3134.34189 eV
Virial Ratio       :            2.00474632


DFT components:
N(Alpha)           :        9.000000786914 electrons
N(Beta)            :        9.000000786914 electrons
N(Total)           :       18.000001573827 electrons
E(XC)              :      -10.639909789262 Eh       
DFET-embed. en.    :        0.000000000000 Eh       

---------------
SCF CONVERGENCE
---------------

  Last Energy change         ...   -1.8931e-09  Tolerance :   1.0000e-08
  Last MAX-Density change    ...    4.4542e-06  Tolerance :   1.0000e-07
  Last RMS-Density change    ...    2.2726e-07  Tolerance :   5.0000e-09
  Last Orbital Gradient      ...    2.0771e-06  Tolerance :   1.0000e-05
  Last Orbital Rotation      ...    2.6632e-06  Tolerance :   1.0000e-05

             **** THE GBW FILE WAS UPDATED (64_charges.gbw) ****
             **** DENSITY FILE WAS UPDATED (64_charges.scfp.tmp) ****
             **** ENERGY FILE WAS UPDATED (64_charges.en.tmp) ****
----------------
ORBITAL ENERGIES
----------------

  NO   OCC          E(Eh)            E(eV) 
   0   2.0000     -19.229901      -523.2722 
   1   2.0000     -10.318187      -280.7721 
   2   2.0000      -1.138341       -30.9758 
   3   2.0000      -0.789944       -21.4955 
   4   2.0000      -0.612315       -16.6619 
   5   2.0000      -0.546095       -14.8600 
   6   2.0000      -0.520548       -14.1648 
   7   2.0000      -0.431736       -11.7481 
   8   2.0000      -0.369214       -10.0468 
   9   0.0000       0.112587         3.0636 
  10   0.0000       0.155078         4.2199 
  11   0.0000       0.193853         5.2750 
  12   0.0000       0.203772         5.5449 
  13   0.0000       0.229405         6.2424 
  14   0.0000       0.302703         8.2370 
  15   0.0000       0.314972         8.5708 
  16   0.0000       0.408163        11.1067 
  17   0.0000       0.453554        12.3418 
  18   0.0000       0.479435        13.0461 
  19   0.0000       0.516100        14.0438 
  20   0.0000       0.546600        14.8737 
  21   0.0000       0.563681        15.3385 
  22   0.0000       0.592852        16.1323 
  23   0.0000       0.599264        16.3068 
  24   0.0000       0.671632        18.2760 
  25   0.0000       0.787378        21.4256 
  26   0.0000       0.821946        22.3663 
  27   0.0000       0.866336        23.5742 
  28   0.0000       0.980445        26.6793 
  29   0.0000       1.010433        27.4953 
  30   0.0000       1.116342        30.3772 
  31   0.0000       1.381769        37.5999 
  32   0.0000       1.493926        40.6518 
  33   0.0000       1.544541        42.0291 
  34   0.0000       1.593011        43.3480 
  35   0.0000       1.617494        44.0143 
  36   0.0000       1.650562        44.9141 
  37   0.0000       1.674298        45.5600 
  38   0.0000       1.691712        46.0338 
  39   0.0000       1.771444        48.2034 
  40   0.0000       1.952616        53.1334 
  41   0.0000       1.992888        54.2292 
  42   0.0000       2.066990        56.2457 
  43   0.0000       2.094984        57.0074 
  44   0.0000       2.122811        57.7646 
  45   0.0000       2.245099        61.0923 
  46   0.0000       2.293818        62.4180 
  47   0.0000       2.340686        63.6933 
  48   0.0000       2.404766        65.4370 
  49   0.0000       2.431169        66.1555 
  50   0.0000       2.480222        67.4903 
  51   0.0000       2.577340        70.1330 
  52   0.0000       2.628111        71.5145 
  53   0.0000       2.704332        73.5886 
  54   0.0000       2.818917        76.7066 
  55   0.0000       2.854840        77.6841 
  56   0.0000       2.920017        79.4577 
  57   0.0000       2.979477        81.0757 
  58   0.0000       3.088513        84.0427 
  59   0.0000       3.151203        85.7486 
  60   0.0000       3.293772        89.6281 
  61   0.0000       3.380017        91.9749 
  62   0.0000       3.435380        93.4815 
  63   0.0000       3.508613        95.4742 
  64   0.0000       3.611870        98.2840 
  65   0.0000       3.647790        99.2614 
  66   0.0000       3.668978        99.8380 
  67   0.0000       3.990848       108.5965 
  68   0.0000       4.114274       111.9551 
  69   0.0000       4.288426       116.6940 
  70   0.0000       4.398576       119.6913 
  71   0.0000       4.557214       124.0081 
  72   0.0000       5.356778       145.7653 
  73   0.0000       5.421298       147.5210 
  74   0.0000       5.558395       151.2516 
  75   0.0000       5.829280       158.6228 
  76   0.0000       5.841044       158.9429 
  77   0.0000       5.989532       162.9834 
  78   0.0000       6.329319       172.2295 
  79   0.0000       6.541349       177.9991 
  80   0.0000       6.743864       183.5099 
  81   0.0000       6.823327       185.6722 
  82   0.0000       7.037780       191.5077 
  83   0.0000       7.203818       196.0258 
  84   0.0000      22.360583       608.4624 
  85   0.0000      43.666527      1188.2266 

                    ********************************
                    * MULLIKEN POPULATION ANALYSIS *
                    ********************************

-----------------------
MULLIKEN ATOMIC CHARGES
-----------------------
   0 C :   -0.166427
   1 O :   -0.471202
   2 H :    0.316927
   3 H :    0.095695
   4 H :    0.100941
   5 H :    0.124066
Sum of atomic charges:    0.0000000

--------------------------------
MULLIKEN REDUCED ORBITAL CHARGES
--------------------------------
  0 C s       :     3.236183  s :     3.236183
      pz      :     0.984529  p :     2.822304
      px      :     0.803986
      py      :     1.033789
      dz2     :     0.018862  d :     0.099994
      dxz     :     0.016135
      dyz     :     0.018999
      dx2y2   :     0.017808
      dxy     :     0.028190
      f0      :     0.000423  f :     0.007946
      f+1     :     0.001905
      f-1     :     0.000317
      f+2     :     0.001195
      f-2     :     0.001904
      f+3     :     0.001480
      f-3     :     0.000722
  1 O s       :     3.792748  s :     3.792748
      pz      :     1.592589  p :     4.646006
      px      :     1.493750
      py      :     1.559666
      dz2     :     0.002977  d :     0.030748
      dxz     :     0.004616
      dyz     :     0.008616
      dx2y2   :     0.006737
      dxy     :     0.007801
      f0      :     0.000254  f :     0.001701
      f+1     :     0.000264
      f-1     :     0.000134
      f+2     :     0.000427
      f-2     :     0.000353
      f+3     :     0.000140
      f-3     :     0.000130
  2 H s       :     0.636969  s :     0.636969
      pz      :     0.017155  p :     0.046104
      px      :     0.013421
      py      :     0.015528
  3 H s       :     0.886627  s :     0.886627
      pz      :     0.007139  p :     0.017678
      px      :     0.003154
      py      :     0.007384
  4 H s       :     0.879638  s :     0.879638
      pz      :     0.006458  p :     0.019422
      px      :     0.007031
      py      :     0.005933
  5 H s       :     0.855789  s :     0.855789
      pz      :     0.004951  p :     0.020145
      px      :     0.006175
      py      :     0.009020


                     *******************************
                     * LOEWDIN POPULATION ANALYSIS *
                     *******************************

----------------------
LOEWDIN ATOMIC CHARGES
----------------------
   0 C :   -0.404177
   1 O :   -0.075480
   2 H :    0.176142
   3 H :    0.104312
   4 H :    0.091456
   5 H :    0.107746

-------------------------------
LOEWDIN REDUCED ORBITAL CHARGES
-------------------------------
  0 C s       :     2.874507  s :     2.874507
      pz      :     1.046114  p :     3.048878
      px      :     0.925173
      py      :     1.077591
      dz2     :     0.055586  d :     0.421410
      dxz     :     0.091786
      dyz     :     0.089078
      dx2y2   :     0.074834
      dxy     :     0.110127
      f0      :     0.006322  f :     0.059382
      f+1     :     0.015013
      f-1     :     0.002104
      f+2     :     0.007004
      f-2     :     0.009143
      f+3     :     0.011890
      f-3     :     0.007906
  1 O s       :     3.365780  s :     3.365780
      pz      :     1.555370  p :     4.631627
      px      :     1.510911
      py      :     1.565346
      dz2     :     0.008694  d :     0.073299
      dxz     :     0.014945
      dyz     :     0.017415
      dx2y2   :     0.014130
      dxy     :     0.018113
      f0      :     0.000526  f :     0.004775
      f+1     :     0.000781
      f-1     :     0.000319
      f+2     :     0.001016
      f-2     :     0.000755
      f+3     :     0.000743
      f-3     :     0.000636
  2 H s       :     0.671186  s :     0.671186
      pz      :     0.053020  p :     0.152672
      px      :     0.035390
      py      :     0.064262
  3 H s       :     0.844913  s :     0.844913
      pz      :     0.020808  p :     0.050775
      px      :     0.009312
      py      :     0.020655
  4 H s       :     0.848021  s :     0.848021
      pz      :     0.020640  p :     0.060522
      px      :     0.021552
      py      :     0.018331
  5 H s       :     0.831878  s :     0.831878
      pz      :     0.015056  p :     0.060375
      px      :     0.017119
      py      :     0.028200


                      *****************************
                      * MAYER POPULATION ANALYSIS *
                      *****************************

  NA   - Mulliken gross atomic population
  ZA   - Total nuclear charge
  QA   - Mulliken gross atomic charge
  VA   - Mayer's total valence
  BVA  - Mayer's bonded valence
  FA   - Mayer's free valence

  ATOM       NA         ZA         QA         VA         BVA        FA
  0 C      6.1664     6.0000    -0.1664     3.9334     3.9334     0.0000
  1 O      8.4712     8.0000    -0.4712     1.8823     1.8823     0.0000
  2 H      0.6831     1.0000     0.3169     0.9100     0.9100    -0.0000
  3 H      0.9043     1.0000     0.0957     0.9628     0.9628     0.0000
  4 H      0.8991     1.0000     0.1009     0.9543     0.9543    -0.0000
  5 H      0.8759     1.0000     0.1241     0.9579     0.9579    -0.0000

  Mayer bond orders larger than 0.1
B(  0-C ,  1-O ) :   0.9993 B(  0-C ,  3-H ) :   0.9766 B(  0-C ,  4-H ) :   0.9762 
B(  0-C ,  5-H ) :   0.9699 B(  1-O ,  2-H ) :   0.8959 


------------------
HIRSHFELD ANALYSIS
------------------

Total integrated alpha density =      9.000456287
Total integrated beta density  =      9.000456287

  ATOM     CHARGE      SPIN    
   0 C    0.007115    0.000000
   1 O   -0.252777    0.000000
   2 H    0.162956    0.000000
   3 H    0.020860    0.000000
   4 H    0.019028    0.000000
   5 H    0.041906    0.000000

  TOTAL  -0.000913    0.000000

-------
TIMINGS
-------

Total SCF time: 0 days 0 hours 0 min 27 sec 

Total time                  ....      27.016 sec
Sum of individual times     ....      23.209 sec  ( 85.9%)

Fock matrix formation       ....      15.784 sec  ( 58.4%)
  XC integration            ....       4.001 sec  ( 25.3% of F)
    Basis function eval.    ....       0.034 sec  (  0.8% of XC)
    Density eval.           ....       0.053 sec  (  1.3% of XC)
    XC-Functional eval.     ....       0.094 sec  (  2.3% of XC)
    XC-Potential eval.      ....       0.036 sec  (  0.9% of XC)
Diagonalization             ....       0.854 sec  (  3.2%)
Density matrix formation    ....       1.439 sec  (  5.3%)
Population analysis         ....       0.495 sec  (  1.8%)
Initial guess               ....       0.541 sec  (  2.0%)
Orbital Transformation      ....       0.000 sec  (  0.0%)
Orbital Orthonormalization  ....       0.000 sec  (  0.0%)
DIIS solution               ....       0.367 sec  (  1.4%)
SOSCF solution              ....       0.553 sec  (  2.0%)
Grid generation             ....       3.177 sec  ( 11.8%)


-------------------------------------------------------------------------------
                          DFT DISPERSION CORRECTION                            
                                                                               
                              DFTD3 V3.1  Rev 1                                
                              USING zero damping                               
-------------------------------------------------------------------------------
The omegaB97X-D3 functional is recognized. Fit by Chai et al.
Active option DFTDOPT                   ...         3   

molecular C6(AA) [au] = 208.836786 


            DFT-D V3
 parameters
 s6 scaling factor         :     1.0000 
 rs6 scaling factor        :     1.2810 
 s8 scaling factor         :     1.0000 
 rs8 scaling factor        :     1.0940 
 Damping factor alpha6     :    14.0000 
 Damping factor alpha8     :    16.0000 
 ad hoc parameters k1-k3   :    16.0000     1.3333    -4.0000 

 Edisp/kcal,au: -0.148367595220  -0.000236438788 
 E6   /kcal   :  -0.029552839 
 E8   /kcal   :  -0.118814756 
 % E8         :  80.081338438 

-------------------------   ----------------
Dispersion correction           -0.000236439
-------------------------   ----------------


-------------------------   --------------------
FINAL SINGLE POINT ENERGY      -115.731893373761
-------------------------   --------------------


                            ***************************************
                            *     ORCA property calculations      *
                            ***************************************

                                    ---------------------
                                    Active property flags
                                    ---------------------
   (+) Dipole Moment


------------------------------------------------------------------------------
                       ORCA ELECTRIC PROPERTIES CALCULATION
------------------------------------------------------------------------------

Dipole Moment Calculation                       ... on
Quadrupole Moment Calculation                   ... off
Polarizability Calculation                      ... off
GBWName                                         ... 64_charges.gbw
Electron density file                           ... 64_charges.scfp.tmp
The origin for moment calculation is the CENTER OF MASS  = (19.057428, -19.180726 -6.261424)

-------------
DIPOLE MOMENT
-------------
                                X             Y             Z
Electronic contribution:      1.46338       0.80671       0.76862
Nuclear contribution   :     -1.73501      -1.40664      -0.61355
                        -----------------------------------------
Total Dipole Moment    :     -0.27163      -0.59993       0.15506
                        -----------------------------------------
Magnitude (a.u.)       :      0.67657
Magnitude (Debye)      :      1.71970



--------------------
Rotational spectrum 
--------------------
 
Rotational constants in cm-1:     4.124960     0.842768     0.812731 
Rotational constants in MHz : 123663.192812 25265.549123 24365.074824 

 Dipole components along the rotational axes: 
x,y,z [a.u.] :     0.305241     0.563941     0.215740 
x,y,z [Debye]:     0.775860     1.433424     0.548366 

 
------------------------------------------------------------------------------
                      ORCA CHELPG CHARGES GENERATION
------------------------------------------------------------------------------

GBW file                           ... 64_charges.gbw

Reading the GBW file               ... done

Grid spacing                       ...     0.300000
Point Cut-Off                      ...     2.800000
Van-der-Waals Radii                ...        COSMO
Total charge                       ...            0


Number of points X direction       ...           25
Number of points Y direction       ...           24
Number of points Z direction       ...           25
Maximum number of possible points  ...        15000
Final number of points             ...         5979


CHELPG Charges            
--------------------------------
  0   C   :       0.061177
  1   O   :      -0.590202
  2   H   :       0.403383
  3   H   :       0.018547
  4   H   :       0.017961
  5   H   :       0.089135
--------------------------------
Total charge:    -0.000000
--------------------------------

CHELPG charges calculated...

Timings for individual parts in CHELPG calculation:
Grid generation                 ...        0.001 sec (=   0.000 min)
Potential calculation           ...        0.621 sec (=   0.010 min)
Fit to the potential            ...        0.001 sec (=   0.000 min)
------------------------------------------------------------------------------


Timings for individual modules:

Sum of individual times         ...       36.865 sec (=   0.614 min)
GTO integral calculation        ...        5.326 sec (=   0.089 min)  14.4 %
SCF iterations                  ...       30.877 sec (=   0.515 min)  83.8 %
CHELPG charge generation        ...        0.662 sec (=   0.011 min)   1.8 %
                             ****ORCA TERMINATED NORMALLY****
TOTAL RUN TIME: 0 days 0 hours 0 minutes 41 seconds 258 msec
