LAMMPS data file via vdw_self_gen.py, on 2021-08-05 13:24:13.894497

4000 atoms
5 atom types
3500 bonds
4 bond types
6000 angles
6 angle types
4500 dihedrals
2 dihedral types

-44.6984358787960687  44.6984358787960687 xlo xhi
-44.6984358787960687  44.6984358787960687 ylo yhi
-44.6984358787960687  44.6984358787960687 zlo zhi

Masses

1  35.452700
2  35.452700
3  1.007940
4  12.011000
5  12.011000

Atoms

1         0    2   -0.2033700000000000  -26.6248943650372425  24.7531721834591316  26.1410154016502183 0 0 0
2         0    4    0.4412270000000000  -24.9714048587706010  24.4303386216852338  25.5075455544921432 0 0 0
3         0    2   -0.2033700000000000  -24.8301354582569864  22.6532395254191599  25.2595325140510880 0 0 0
4         0    5    0.5157510000000000  -24.6191314363317773  25.2602254361862038  24.2477859418831869 0 0 0
5         0    1   -0.1761700000000000  -22.9198436138867869  24.9378908396513843  23.7234943099006585 0 0 0
6         0    1   -0.1761700000000000  -25.7019989170537180  24.9195597326226874  22.8545854077853505 0 0 0
7         0    1   -0.1761700000000000  -24.7081305599837329  27.0302772039163415  24.6018255352122388 0 0 0
8         0    3   -0.0217280000000000  -24.2841758075505716  24.6750114739312743  26.3239303518965322 0 0 0
9         1    2   -0.2033700000000000  -12.9599403923297469  15.8369235319017516 -25.3717108749416624 0 0 0
10        1    4    0.4412270000000000  -14.1493158974865292  14.6874515973308259 -24.6620396253007996 0 0 0
11        1    2   -0.2033700000000000  -13.8610658441521704  14.6467905125923998 -22.8858619054088344 0 0 0
12        1    5    0.5157510000000000  -15.6172871285035786  15.0032900170487888 -25.0429720709343258 0 0 0
13        1    1   -0.1761700000000000  -16.7375955350957213  13.7610791725172934 -24.3587340254798761 0 0 0
14        1    1   -0.1761700000000000  -16.1624862421424069  16.6164195618604396 -24.4683123205226600 0 0 0
15        1    1   -0.1761700000000000  -15.8397054320061503  14.9469080547575484 -26.8356514373284512 0 0 0
16        1    3   -0.0217280000000000  -13.8684325384065446  13.6969665621138041 -25.0344327569548106 0 0 0
17        2    2   -0.2033700000000000  -4.4678681278733947   6.9087800583221313   25.7865566984803465 0 0 0
18        2    4    0.4412270000000000  -4.7229726689671701   5.1400115405968840   25.5722841920373440 0 0 0
19        2    2   -0.2033700000000000  -5.9276310389775642   4.6192991928161327   26.8040331811307162 0 0 0
20        2    5    0.5157510000000000  -5.1067482612754835   4.7416389476745415   24.1252808946821773 0 0 0
21        2    1   -0.1761700000000000  -5.2663553050145957   2.9475712698085292   23.9762601920086347 0 0 0
22        2    1   -0.1761700000000000  -6.6498232845973657   5.4817807336179607   23.5768536527433170 0 0 0
23        2    1   -0.1761700000000000  -3.8118202364168274   5.2288058720108044   22.9624490339351368 0 0 0
24        2    3   -0.0217280000000000  -3.7787240802518802   4.6640553885273022   25.8559971718537440 0 0 0
25        3    2   -0.2033700000000000   32.6670719717104134  5.5491165605688133   34.3309883317743569 0 0 0
26        3    4    0.4412270000000000   34.4510499101173906  5.6643833579003040   34.5399605402378924 0 0 0
27        3    2   -0.2033700000000000   34.7659839641647537  6.9546719787366680   35.7546705987462872 0 0 0
28        3    5    0.5157510000000000   35.1214417479305254  4.3116586121211560   34.8871111077878666 0 0 0
29        3    1   -0.1761700000000000   36.9155869875131586  4.4970680530674052   35.0012452809831700 0 0 0
30        3    1   -0.1761700000000000   34.5377071438893353  3.6136149921552549   36.4368374859816981 0 0 0
31        3    1   -0.1761700000000000   34.8242339573653013  3.0965761502914466   33.5826609254193613 0 0 0
32        3    3   -0.0217280000000000   34.8405253409290978  6.0448532985332353   33.5901267526893434 0 0 0
33        4    2   -0.2033700000000000   5.4245844936615306  -24.2851404690175698 -17.0023307148242893 0 0 0
34        4    4    0.4412270000000000   5.5199740925667218  -24.3462236066479853 -15.2060281852046462 0 0 0
35        4    2   -0.2033700000000000   5.3280328759357882  -22.6617470161562231 -14.6016724165191238 0 0 0
36        4    5    0.5157510000000000   4.5262900648322395  -25.3488649243189741 -14.5679800587091908 0 0 0
37        4    1   -0.1761700000000000   4.7400338105998250  -25.4082670875682233 -12.7743397923384361 0 0 0
38        4    1   -0.1761700000000000   2.8073319178942335  -24.9492685567758627 -14.9073448517001612 0 0 0
39        4    1   -0.1761700000000000   4.8362622291537125  -27.0258293743092821 -15.1663575557080339 0 0 0
40        4    3   -0.0217280000000000   6.5494335187302370  -24.6343739820773031 -14.9697754351189776 0 0 0
41        5    2   -0.2033700000000000   7.1392671429065011   24.6956095770032178 -35.2033097443489567 0 0 0
42        5    4    0.4412270000000000   5.5191174176087037   24.3119828788181280 -34.5195857303951712 0 0 0
43        5    2   -0.2033700000000000   5.6795578952551473   24.3155672090650370 -32.7268797546676282 0 0 0
44        5    5    0.5157510000000000   4.3927859273573100   25.2388271216214370 -35.0412562147532967 0 0 0
45        5    1   -0.1761700000000000   2.7905732334271565   24.7389364284821411 -34.3708949768212406 0 0 0
46        5    1   -0.1761700000000000   4.6526519542401639   26.9671429341015028 -34.6228581614553832 0 0 0
47        5    1   -0.1761700000000000   4.2450266095672582   25.1175875896684069 -36.8384251823236966 0 0 0
48        5    3   -0.0217280000000000   5.3129628230120476   23.2740612781115459 -34.8003912588546171 0 0 0
49        6    2   -0.2033700000000000   15.7895095212624401  16.4056794217344155 -23.4647646779404191 0 0 0
50        6    4    0.4412270000000000   14.8557971443796202  14.9783514760625884 -24.0396118193267796 0 0 0
51        6    2   -0.2033700000000000   13.1556513838919535  15.1932108082755839 -23.4892586870955036 0 0 0
52        6    5    0.5157510000000000   14.9854368959799960  14.7275079224772796 -25.5627907375861199 0 0 0
53        6    1   -0.1761700000000000   14.0863151208852546  13.2356047971300441 -26.0446262999200329 0 0 0
54        6    1   -0.1761700000000000   14.3668580293532813  16.0913464814505609 -26.5562530677328077 0 0 0
55        6    1   -0.1761700000000000   16.7107095971426993  14.4436917240645304 -26.0202080637132731 0 0 0
56        6    3   -0.0217280000000000   15.2455513172276174  14.1204363789278453 -23.4822016635564808 0 0 0
57        7    2   -0.2033700000000000  -23.3220485990705235  6.4938828198787677  -25.3956006239008580 0 0 0
58        7    4    0.4412270000000000  -24.1934079442810415  5.2410281161386836  -24.4413359404766872 0 0 0
59        7    2   -0.2033700000000000  -24.6510052893482161  5.9873489267539775  -22.8687080038273400 0 0 0
60        7    5    0.5157510000000000  -25.3891142054150016  4.6091425323506900  -25.1968557063901741 0 0 0
61        7    1   -0.1761700000000000  -26.1586613613982557  3.3094497799538760  -24.2044060426362471 0 0 0
62        7    1   -0.1761700000000000  -26.6612502232623285  5.8036130549273697  -25.6264752513260703 0 0 0
63        7    1   -0.1761700000000000  -24.8344674566305095  3.8141429035511627  -26.7222050802620856 0 0 0
64        7    3   -0.0217280000000000  -23.4497599374655366  4.4733348698197508  -24.2041283680519648 0 0 0
65        8    2   -0.2033700000000000   16.1719382198315174 -6.7862921098854123   34.7414579122649201 0 0 0
66        8    4    0.4412270000000000   15.6382050796904171 -5.0933599956902782   35.0391874792244380 0 0 0
67        8    2   -0.2033700000000000   16.8333353553426619 -4.0071619909554581   34.2445893239097785 0 0 0
68        8    5    0.5157510000000000   14.1748443398622896 -4.8219385022284271   34.6094099918933438 0 0 0
69        8    1   -0.1761700000000000   13.6927495058180941 -3.1276786247591772   35.0136728390432950 0 0 0
70        8    1   -0.1761700000000000   13.8996209791599590 -5.0708258403230335   32.8510101439463895 0 0 0
71        8    1   -0.1761700000000000   13.0337328767982790 -5.8968089344413182   35.5087799496517817 0 0 0
72        8    3   -0.0217280000000000   15.7514026536196230 -4.9278770050911858   36.1154933836860508 0 0 0
73        9    2   -0.2033700000000000   36.3449927601236737  24.0351821365397740 -33.4235170448766894 0 0 0
74        9    4    0.4412270000000000   35.5384780204473785  24.6837663835598313 -34.8960677409147877 0 0 0
75        9    2   -0.2033700000000000   35.7663531202105744  23.4736501567966158 -36.2087902425625003 0 0 0
76        9    5    0.5157510000000000   34.0574530894400169  25.0763752155323658 -34.6675367159054275 0 0 0
77        9    1   -0.1761700000000000   33.3457325800458619  25.7903623271004747 -36.1675489598629127 0 0 0
78        9    1   -0.1761700000000000   33.0289271112807228  23.6878060214246204 -34.1739045289216179 0 0 0
79        9    1   -0.1761700000000000   33.9223039597306411  26.3498960944398597 -33.3923004939349681 0 0 0
80        9    3   -0.0217280000000000   36.1193603823411138  25.5626766814778890 -35.1939352966410723 0 0 0
81        10   2   -0.2033700000000000   34.3717374186066209 -6.6265547965036511   13.4780064956556576 0 0 0
82        10   4    0.4412270000000000   34.8146146025912060 -5.7576895345455110   14.9907741776439654 0 0 0
83        10   2   -0.2033700000000000   36.4821914761723747 -6.2696936855203749   15.4341564391088664 0 0 0
84        10   5    0.5157510000000000   34.6452035165420966 -4.2209456637631027   14.8931978990902714 0 0 0
85        10   1   -0.1761700000000000   35.0326991346847478 -3.4326798454290466   16.4727055934578566 0 0 0
86        10   1   -0.1761700000000000   35.6875019655807719 -3.4761824747046988   13.6327993248467436 0 0 0
87        10   1   -0.1761700000000000   32.9298198156081767 -3.7882660220376350   14.5236099876178102 0 0 0
88        10   3   -0.0217280000000000   34.1598330938339672 -6.1599309808702607   15.7705790927016807 0 0 0
89        11   2   -0.2033700000000000   6.3785723401377448   25.7683731416507200 -23.3966702876908421 0 0 0
90        11   4    0.4412270000000000   5.2995818571010229   25.5575030422085305 -24.8217479844770246 0 0 0
91        11   2   -0.2033700000000000   6.2928083704644786   25.8505955278225059 -26.2938711443140178 0 0 0
92        11   5    0.5157510000000000   4.5558590286055258   24.1986779785629160 -24.8382940227694604 0 0 0
93        11   1   -0.1761700000000000   3.4366406957875064   24.0987501110189974 -26.2538240138937056 0 0 0
94        11   1   -0.1761700000000000   5.6673455765336431   22.7883788606829931 -24.9112109788354772 0 0 0
95        11   1   -0.1761700000000000   3.5220783242554212   24.0168422888716613 -23.3670423871313169 0 0 0
96        11   3   -0.0217280000000000   4.5790568104889244   26.3805940660530958 -24.7770541977595578 0 0 0
97        12   2   -0.2033700000000000   16.8872573492322076  35.5265472281156747  25.4656035798677181 0 0 0
98        12   4    0.4412270000000000   15.1379338026780328  35.4972508033935199  25.0430613308918204 0 0 0
99        12   2   -0.2033700000000000   14.8883390100249642  36.6825925377897164  23.7118152522575834 0 0 0
100       12   5    0.5157510000000000   14.6044560025858985  34.0799322244134970  24.7168521141505799 0 0 0
101       12   1   -0.1761700000000000   12.8290038137105338  34.1256249888041339  24.3821251996366115 0 0 0
102       12   1   -0.1761700000000000   15.4156995583905321  33.3312671455901395  23.2987381118518044 0 0 0
103       12   1   -0.1761700000000000   14.8207196592525463  32.9737464371533520  26.1296263965357163 0 0 0
104       12   3   -0.0217280000000000   14.6124198142481330  35.9066396583599428  25.9118930316796003 0 0 0
105       13   2   -0.2033700000000000   3.6956830140370078  -23.0123066655465465 -24.8913413562583692 0 0 0
106       13   4    0.4412270000000000   5.0693122169579858  -24.1329726071023742 -25.2024422458737121 0 0 0
107       13   2   -0.2033700000000000   6.5701753308405912  -23.3072256251759455 -24.6500831734163590 0 0 0
108       13   5    0.5157510000000000   4.8729937048236813  -25.5386913052044910 -24.5817837615206081 0 0 0
109       13   1   -0.1761700000000000   6.2544486464792213  -26.6241731892556537 -25.0056607891739695 0 0 0
110       13   1   -0.1761700000000000   4.7262837936845852  -25.5035856501406499 -22.7909999595065074 0 0 0
111       13   1   -0.1761700000000000   3.3902968156330564  -26.3303178304903547 -25.2460770080227022 0 0 0
112       13   3   -0.0217280000000000   5.1527494809181418  -24.2104421439554116 -26.2913267230991998 0 0 0
113       14   2   -0.2033700000000000  -25.7680565895422546 -33.7026322116562866 -13.1887818131916710 0 0 0
114       14   4    0.4412270000000000  -25.5301775855396720 -34.8796825844705793 -14.5294902462644551 0 0 0
115       14   2   -0.2033700000000000  -26.9172007563733331 -34.6906644227597596 -15.6608556018476737 0 0 0
116       14   5    0.5157510000000000  -24.1485784640939301 -34.7594101506200133 -15.2197955264673830 0 0 0
117       14   1   -0.1761700000000000  -23.9589258207523628 -36.0239787647847578 -16.4970028338153440 0 0 0
118       14   1   -0.1761700000000000  -23.8810080494188384 -33.1555836647219380 -15.9851774617927571 0 0 0
119       14   1   -0.1761700000000000  -22.8139164505763219 -35.0395239869357482 -14.0338099926274378 0 0 0
120       14   3   -0.0217280000000000  -25.6418513005746895 -35.8721252376709145 -14.0809155341161194 0 0 0
121       15   2   -0.2033700000000000  -14.7443837856070719  25.6280898679639151  2.8990490512443268  0 0 0
122       15   4    0.4412270000000000  -14.9264041750884875  24.4636619353209674  4.2593833008660571  0 0 0
123       15   2   -0.2033700000000000  -13.6128941281288078  23.2435266646145884  4.0996648378938652  0 0 0
124       15   5    0.5157510000000000  -14.9742218802463896  25.1418285486354058  5.6513626406046491  0 0 0
125       15   1   -0.1761700000000000  -15.2376028641660088  23.9152075817496339  6.9522822660641816  0 0 0
126       15   1   -0.1761700000000000  -13.4744918045902491  26.0509908311082476  6.0436590526468459  0 0 0
127       15   1   -0.1761700000000000  -16.3650454438053359  26.2911818096904994  5.7559811592866881  0 0 0
128       15   3   -0.0217280000000000  -15.8607849284905225  23.9252277777881588  4.0705606947676767  0 0 0
129       16   2   -0.2033700000000000  -14.4285219766755031  36.7386045171639353  33.8619791057446449 0 0 0
130       16   4    0.4412270000000000  -14.7907638712893696  35.4822299155409979  35.0988448112209355 0 0 0
131       16   2   -0.2033700000000000  -16.2534885820282291  36.0217713057453466  35.9982224952615368 0 0 0
132       16   5    0.5157510000000000  -14.9181805526733768  34.0546588574181115  34.5109597596036934 0 0 0
133       16   1   -0.1761700000000000  -15.2020821241840256  32.8449455155813084  35.8233445885604453 0 0 0
134       16   1   -0.1761700000000000  -16.2537389230109284  33.9008038003096104  33.3183679218723441 0 0 0
135       16   1   -0.1761700000000000  -13.3836595582790370  33.5592004285796222  33.6948014409204148 0 0 0
136       16   3   -0.0217280000000000  -13.9653934219823608  35.5213866832810297  35.8170809004359683 0 0 0
137       17   2   -0.2033700000000000   32.7535215710954049  14.7004274025058308 -35.6841015253004485 0 0 0
138       17   4    0.4412270000000000   34.2658795840893262  15.4487704658653104 -35.0577717373653499 0 0 0
139       17   2   -0.2033700000000000   33.7905483379067206  16.6459300648089510 -33.8006250431567778 0 0 0
140       17   5    0.5157510000000000   35.3086153897109938  14.4149697370613481 -34.5640500916995563 0 0 0
141       17   1   -0.1761700000000000   36.8240407909869560  15.2406552552741470 -34.0273102206434928 0 0 0
142       17   1   -0.1761700000000000   34.7123546619354002  13.4105651080592878 -33.1982875514489635 0 0 0
143       17   1   -0.1761700000000000   35.7907545383807104  13.3021632412284987 -35.9040320625679215 0 0 0
144       17   3   -0.0217280000000000   34.6778861495144781  16.0323477353194690 -35.8874227914374870 0 0 0
145       18   2   -0.2033700000000000  -24.8912055802328815 -3.3639374931447534  -26.3686167182577584 0 0 0
146       18   4    0.4412270000000000  -24.8304379191242504 -4.1717091995031410  -24.7613378796705526 0 0 0
147       18   2   -0.2033700000000000  -26.2461903128777081 -3.5890152835156846  -23.8149438446341399 0 0 0
148       18   5    0.5157510000000000  -24.7383128217617028 -5.7156367028237636  -24.8485376590630693 0 0 0
149       18   1   -0.1761700000000000  -24.6014021875013462 -6.4428486288151072  -23.1996657101469559 0 0 0
150       18   1   -0.1761700000000000  -26.1548964071451806 -6.4605886176059606  -25.6658505862117998 0 0 0
151       18   1   -0.1761700000000000  -23.2512695424622500 -6.2185718000532546  -25.7441417633218137 0 0 0
152       18   3   -0.0217280000000000  -23.9460002457660863 -3.7696352779126219  -24.2566208555653304 0 0 0
153       19   2   -0.2033700000000000   22.9409307269885758 -25.2294663670905948  6.0600595939348985  0 0 0
154       19   4    0.4412270000000000   24.0866986131280036 -24.5824965075216788  4.8319801766735591  0 0 0
155       19   2   -0.2033700000000000   23.9715051475853826 -22.7870962385907596  4.8850560612069396  0 0 0
156       19   5    0.5157510000000000   25.5325654000063622 -25.1142326788487011  4.9948569684658413  0 0 0
157       19   1   -0.1761700000000000   26.5990988108080657 -24.4817532786951766  3.6800046181902859  0 0 0
158       19   1   -0.1761700000000000   26.2733840897306443 -24.6688365103636151  6.5704434474170910  0 0 0
159       19   1   -0.1761700000000000   25.5722223605080643 -26.9153465461599914  4.8507587361284781  0 0 0
160       19   3   -0.0217280000000000   23.6833098681163179 -24.8804868896009062  3.8587834013571860  0 0 0
161       20   2   -0.2033700000000000   5.2553931024404017  -26.0259030875422823  3.1161850630039893  0 0 0
162       20   4    0.4412270000000000   5.4806982264861812  -24.7468825589350487  4.3623299950564292  0 0 0
163       20   2   -0.2033700000000000   5.2781365426373803  -23.1577672783651103  3.5418239932530309  0 0 0
164       20   5    0.5157510000000000   4.5679720689216055  -24.9235414219840266  5.6014932522601217  0 0 0
165       20   1   -0.1761700000000000   4.9110232661856230  -23.6490016460086885  6.8360881844190429  0 0 0
166       20   1   -0.1761700000000000   2.8171758170214471  -24.8504857435728930  5.2026973360520419  0 0 0
167       20   1   -0.1761700000000000   4.8883863041864180  -26.5068230876084812  6.4119881771283378  0 0 0
168       20   3   -0.0217280000000000   6.5331576754952305  -24.7993101928548967  4.6593370022012950  0 0 0
169       21   2   -0.2033700000000000   27.0165548334488044  14.5692308785154427  14.6712603074174943 0 0 0
170       21   4    0.4412270000000000   25.3296330704045758  15.0757201132042358  14.3007245821330091 0 0 0
171       21   2   -0.2033700000000000   24.8456807820611729  14.2520093035828719  12.7753264719925674 0 0 0
172       21   5    0.5157510000000000   24.3422216613858851  14.8397039420007726  15.4708177608457973 0 0 0
173       21   1   -0.1761700000000000   22.6927892306518615  15.4459140164231972  15.0486301093072274 0 0 0
174       21   1   -0.1761700000000000   24.1946970498137723  13.1083547905796944  15.9294346330321588 0 0 0
175       21   1   -0.1761700000000000   24.8558559097888612  15.7620201644959348  16.9377399751059059 0 0 0
176       21   3   -0.0217280000000000   25.3822824793164870  16.1428758013207059  14.0618951702886950 0 0 0
177       22   2   -0.2033700000000000  -16.1869492006051914 -6.3869931977892600   35.8861626922567964 0 0 0
178       22   4    0.4412270000000000  -14.7561519172157940 -5.7040655981029662   35.0341285787189562 0 0 0
179       22   2   -0.2033700000000000  -14.3453410288283649 -6.8289585269537394   33.6904772019460239 0 0 0
180       22   5    0.5157510000000000  -14.9521007672696111 -4.2376905742653372   34.5746165459844477 0 0 0
181       22   1   -0.1761700000000000  -13.4470429599540200 -3.6026570923788261   33.8013805635563642 0 0 0
182       22   1   -0.1761700000000000  -16.3010578965904287 -4.0409486411434985   33.4036041183791710 0 0 0
183       22   1   -0.1761700000000000  -15.2820076027362681 -3.1622818649917668   35.9891856415152915 0 0 0
184       22   3   -0.0217280000000000  -13.9251776369231717 -5.7683475077488868   35.7440456812629392 0 0 0
185       23   2   -0.2033700000000000   35.4382079170094073 -22.8410470661134255  4.2502161494580992  0 0 0
186       23   4    0.4412270000000000   35.3197753230476295 -24.3332047039801829  5.2497022212186595  0 0 0
187       23   2   -0.2033700000000000   34.9493642553232036 -23.8212582587658410  6.9350078872150638  0 0 0
188       23   5    0.5157510000000000   34.3222533069449938 -25.3764373167371815  4.6871913202836133  0 0 0
189       23   1   -0.1761700000000000   34.3212815527525592 -26.8726379036546277  5.7009680562574294  0 0 0
190       23   1   -0.1761700000000000   32.6348856735668917 -24.7636758772834362  4.6036645656086641  0 0 0
191       23   1   -0.1761700000000000   34.8083905886165681 -25.8959631257535747  3.0258329558014490  0 0 0
192       23   3   -0.0217280000000000   36.3294424063587300 -24.7554907645831506  5.2793598475312988  0 0 0
193       24   2   -0.2033700000000000  -33.2463397713889108 -16.5162978885277738 -14.9974454328123770 0 0 0
194       24   4    0.4412270000000000  -34.6154395105409236 -15.5085405430174088 -14.4062397663782988 0 0 0
195       24   2   -0.2033700000000000  -34.1834865647255839 -14.9324564265380229 -12.7566663509033926 0 0 0
196       24   5    0.5157510000000000  -35.0067070470680477 -14.3665327017815727 -15.3770800086508768 0 0 0
197       24   1   -0.1761700000000000  -36.4354106346072655 -13.4545242288753553 -14.7498583450423197 0 0 0
198       24   1   -0.1761700000000000  -33.6766568387715211 -13.1897893382960554 -15.6525874141831647 0 0 0
199       24   1   -0.1761700000000000  -35.5016550131869764 -15.0326848294248130 -16.9825755682122050 0 0 0
200       24   3   -0.0217280000000000  -35.4579056433307471 -16.1950030536618499 -14.2733761239402224 0 0 0
201       25   2   -0.2033700000000000  -3.7051535064387133  -23.0515928484453170  14.4884824072130698 0 0 0
202       25   4    0.4412270000000000  -4.2601712601606545  -24.6102941773523440  15.1969586337139191 0 0 0
203       25   2   -0.2033700000000000  -4.3338837741947245  -24.3914347423666165  16.9819560350264354 0 0 0
204       25   5    0.5157510000000000  -5.5832914945755263  -25.1320187668215738  14.5829885459856055 0 0 0
205       25   1   -0.1761700000000000  -6.0284798159126032  -26.7348872938872582  15.2893738901763019 0 0 0
206       25   1   -0.1761700000000000  -6.9664009968881953  -24.0127224670392785  14.8356676478243568 0 0 0
207       25   1   -0.1761700000000000  -5.4019923979294218  -25.3998819995912193  12.8048636729281675 0 0 0
208       25   3   -0.0217280000000000  -3.4525697572744463  -25.3268827213678023  15.0155381772549852 0 0 0
209       26   2   -0.2033700000000000  -4.0499324353375350  -6.5120745400561191  -33.4606541381344442 0 0 0
210       26   4    0.4412270000000000  -4.2705417002411377  -5.3530567464840333  -34.8198974605833484 0 0 0
211       26   2   -0.2033700000000000  -4.1545864508334986  -6.2935046867297793  -36.3501460552640552 0 0 0
212       26   5    0.5157510000000000  -5.5653001636161488  -4.5097583542176070  -34.7092118078561143 0 0 0
213       26   1   -0.1761700000000000  -5.6717789514906851  -3.3194371322822978  -36.0649986890963916 0 0 0
214       26   1   -0.1761700000000000  -7.0596981246688699  -5.5077470824995727  -34.7305674353015377 0 0 0
215       26   1   -0.1761700000000000  -5.5674811403107860  -3.5372045169078126  -33.1858988344410335 0 0 0
216       26   3   -0.0217280000000000  -3.3926240368756275  -4.6991599441970635  -34.8022266029430369 0 0 0
217       27   2   -0.2033700000000000  -16.3203237577534175 -3.7830201301485737  -33.5358202360953115 0 0 0
218       27   4    0.4412270000000000  -15.3967236655707964 -4.3744725790198391  -34.9629432068460417 0 0 0
219       27   2   -0.2033700000000000  -14.5091885999679135 -2.9663916498673286  -35.6478799294578650 0 0 0
220       27   5    0.5157510000000000  -14.4849084162275776 -5.5870710460905064  -34.6498922855520064 0 0 0
221       27   1   -0.1761700000000000  -13.6561203204773758 -6.1681491461114311  -36.1471627838317460 0 0 0
222       27   1   -0.1761700000000000  -13.2218200844625748 -5.2207483242844672  -33.4251154241410475 0 0 0
223       27   1   -0.1761700000000000  -15.4607587915968114 -6.9818479853363691  -34.0427172920454311 0 0 0
224       27   3   -0.0217280000000000  -16.1459853740663917 -4.6502421425157747  -35.7120698656505127 0 0 0
225       28   2   -0.2033700000000000   26.4952630289818636 -34.7065019031231756  23.3617420894061922 0 0 0
226       28   4    0.4412270000000000   24.8809027568209729 -34.4324606499005341  24.1089203856653391 0 0 0
227       28   2   -0.2033700000000000   23.6485746842522460 -35.1098810555734246  22.9855247183971443 0 0 0
228       28   5    0.5157510000000000   24.7675135657232737 -34.9797546590431310  25.5537093423987578 0 0 0
229       28   1   -0.1761700000000000   23.1483822858062425 -34.5952199598238437  26.2586259151154238 0 0 0
230       28   1   -0.1761700000000000   25.0062855698925190 -36.7581304324880023  25.6538610725351397 0 0 0
231       28   1   -0.1761700000000000   25.9848282515097679 -34.1932659311836460  26.6334910679426500 0 0 0
232       28   3   -0.0217280000000000   24.7279648738845523 -33.3483864324842330  24.1038404254107732 0 0 0
233       29   2   -0.2033700000000000   23.1464916671389531 -16.1325288474005113  4.2125157731026279  0 0 0
234       29   4    0.4412270000000000   24.1113530613739613 -15.0463700125275608  5.2749820448224645  0 0 0
235       29   2   -0.2033700000000000   24.2306227744897988 -15.8402180257216010  6.8859223842457062  0 0 0
236       29   5    0.5157510000000000   25.4851672857408431 -14.6556829987872099  4.6751478137036706  0 0 0
237       29   1   -0.1761700000000000   26.3546975283206422 -13.5042562570925089  5.7634924405335592  0 0 0
238       29   1   -0.1761700000000000   26.5586723825658702 -16.0693363070987090  4.3943739516890581  0 0 0
239       29   1   -0.1761700000000000   25.2744519181734830 -13.7954939228742042  3.0997044076585896  0 0 0
240       29   3   -0.0217280000000000   23.4982583990678648 -14.1519426386205520  5.4258041876185858  0 0 0
241       30   2   -0.2033700000000000   26.1628899467937188 -13.3251605129096315  35.5918208552386943 0 0 0
242       30   4    0.4412270000000000   24.9906977000565895 -14.1599752775817915  34.5108107958152530 0 0 0
243       30   2   -0.2033700000000000   25.6993820723927335 -14.1679114554038605  32.8563464755024768 0 0 0
244       30   5    0.5157510000000000   24.5792095801441519 -15.5662146034221873  35.0137734745806668 0 0 0
245       30   1   -0.1761700000000000   23.3441427972941149 -16.3017490928701037  33.9183468600906295 0 0 0
246       30   1   -0.1761700000000000   25.9640981495678709 -16.7056018435918112  35.1301487203081493 0 0 0
247       30   1   -0.1761700000000000   23.8059621711698242 -15.4620145494631789  36.6439817224341340 0 0 0
248       30   3   -0.0217280000000000   24.1133325994524235 -13.5072016748802870  34.4583721196499866 0 0 0
249       31   2   -0.2033700000000000  -6.8578801316191713   3.8939334265687959  -34.3141533595208585 0 0 0
250       31   4    0.4412270000000000  -5.4429125608241389   4.5257530617129156  -35.2296880805689980 0 0 0
251       31   2   -0.2033700000000000  -6.0836309527985595   5.4801600423393815  -36.6146559383971493 0 0 0
252       31   5    0.5157510000000000  -4.4381070159008287   5.3109410260841017  -34.3501150886587183 0 0 0
253       31   1   -0.1761700000000000  -3.0118770959361805   5.8411482392182350  -35.3253632301787164 0 0 0
254       31   1   -0.1761700000000000  -5.1597722591678137   6.7693899341913353  -33.5873642186486023 0 0 0
255       31   1   -0.1761700000000000  -3.7833290730529967   4.2606062517680972  -33.0331447603967021 0 0 0
256       31   3   -0.0217280000000000  -4.9544339140746025   3.6500110214914239  -35.6691163472502240 0 0 0
257       32   2   -0.2033700000000000   15.6005113831847062 -23.6448490331694785 -6.7070448470653172  0 0 0
258       32   4    0.4412270000000000   14.5157387178486506 -24.3138991484156826 -5.4361501578684948  0 0 0
259       32   2   -0.2033700000000000   13.1220957758084431 -25.0861289039980484 -6.2733892302932270  0 0 0
260       32   5    0.5157510000000000   15.2376575247495474 -25.2556723348012433 -4.4403090700196488  0 0 0
261       32   1   -0.1761700000000000   14.1006291415203897 -25.8196559984076508 -3.1536664258031513  0 0 0
262       32   1   -0.1761700000000000   15.9438190802071205 -26.7074922857496482 -5.2297503396666576  0 0 0
263       32   1   -0.1761700000000000   16.5701213278562705 -24.3835397900814499 -3.5857488463074771  0 0 0
264       32   3   -0.0217280000000000   14.1052560589477363 -23.4484775222482185 -4.9058840863503175  0 0 0
265       33   2   -0.2033700000000000   16.0913688465186624  15.4358848720140411  16.6947681126192613 0 0 0
266       33   4    0.4412270000000000   14.6900661879013388  15.2622948448757381  15.5786361918186422 0 0 0
267       33   2   -0.2033700000000000   14.0405191339158595  16.9128855772965956  15.2733698025697251 0 0 0
268       33   5    0.5157510000000000   15.0242968475314491  14.4802978130862083  14.2838105359731991 0 0 0
269       33   1   -0.1761700000000000   13.5500238120013545  14.2815750364496807  13.2574632819919795 0 0 0
270       33   1   -0.1761700000000000   16.2893238519750057  15.2771218888103899  13.2865939592082327 0 0 0
271       33   1   -0.1761700000000000   15.5934789085150349  12.8098733937082034  14.6737620441125909 0 0 0