
                                 *****************
                                 * O   R   C   A *
                                 *****************

           --- An Ab Initio, DFT and Semiempirical electronic structure package ---

                  #######################################################
                  #                        -***-                        #
                  #          Department of theory and spectroscopy      #
                  #               Directorship: Frank Neese             #
                  #        Max Planck Institute fuer Kohlenforschung    #
                  #                Kaiser Wilhelm Platz 1               #
                  #                 D-45470 Muelheim/Ruhr               #
                  #                      Germany                        #
                  #                                                     #
                  #                  All rights reserved                #
                  #                        -***-                        #
                  #######################################################


                         Program Version 4.1.2  - RELEASE  -


 With contributions from (in alphabetic order):
   Daniel Aravena         : Magnetic Properties
   Michael Atanasov       : Ab Initio Ligand Field Theory
   Alexander A. Auer      : GIAO ZORA
   Ute Becker             : Parallelization
   Giovanni Bistoni       : ED, Open-shell LED
   Martin Brehm           : Molecular dynamics
   Dmytro Bykov           : SCF Hessian
   Vijay G. Chilkuri      : MRCI spin determinant printing
   Dipayan Datta          : RHF DLPNO-CCSD density
   Achintya Kumar Dutta   : EOM-CC, STEOM-CC
   Dmitry Ganyushin       : Spin-Orbit,Spin-Spin,Magnetic field MRCI
   Miquel Garcia          : C-PCM Hessian
   Yang Guo               : DLPNO-NEVPT2, CIM, IAO-localization
   Andreas Hansen         : Spin unrestricted coupled pair/coupled cluster methods
   Benjamin Helmich-Paris : CASSCF linear response (MC-RPA)
   Lee Huntington         : MR-EOM, pCC
   Robert Izsak           : Overlap fitted RIJCOSX, COSX-SCS-MP3, EOM
   Christian Kollmar      : KDIIS, OOCD, Brueckner-CCSD(T), CCSD density
   Simone Kossmann        : Meta GGA functionals, TD-DFT gradient, OOMP2, MP2 Hessian
   Martin Krupicka        : AUTO-CI
   Lucas Lang             : DCDCAS
   Dagmar Lenk            : GEPOL surface, SMD
   Dimitrios Liakos       : Extrapolation schemes; parallel MDCI
   Dimitrios Manganas     : ROCIS; embedding schemes
   Dimitrios Pantazis     : SARC Basis sets
   Taras Petrenko         : DFT Hessian,TD-DFT gradient, ASA, ECA, R-Raman, ABS, FL, XAS/XES, NRVS
   Peter Pinski           : DLPNO-MP2, DLPNO-MP2 Gradient
   Christoph Reimann      : Effective Core Potentials
   Marius Retegan         : Local ZFS, SOC
   Christoph Riplinger    : Optimizer, TS searches, QM/MM, DLPNO-CCSD(T), (RO)-DLPNO pert. Triples
   Tobias Risthaus        : Range-separated hybrids, TD-DFT gradient, RPA, STAB
   Michael Roemelt        : Restricted open shell CIS
   Masaaki Saitow         : Open-shell DLPNO
   Barbara Sandhoefer     : DKH picture change effects
   Avijit Sen             : IP-ROCIS
   Kantharuban Sivalingam : CASSCF convergence, NEVPT2, FIC-MRCI
   Bernardo de Souza      : ESD, SOC TD-DFT
   Georgi Stoychev        : AutoAux, RI-MP2 NMR
   Willem Van den Heuvel  : Paramagnetic NMR
   Boris Wezisla          : Elementary symmetry handling
   Frank Wennmohs         : Technical directorship


 We gratefully acknowledge several colleagues who have allowed us to
 interface, adapt or use parts of their codes:
   Stefan Grimme, W. Hujo, H. Kruse,             : VdW corrections, initial TS optimization,
                  C. Bannwarth                     DFT functionals, gCP, sTDA/sTD-DF
   Ed Valeev                                     : LibInt (2-el integral package), F12 methods
   Garnet Chan, S. Sharma, J. Yang, R. Olivares  : DMRG
   Ulf Ekstrom                                   : XCFun DFT Library
   Mihaly Kallay                                 : mrcc  (arbitrary order and MRCC methods)
   Andreas Klamt, Michael Diedenhofen            : otool_cosmo (COSMO solvation model)
   Jiri Pittner, Ondrej Demel                    : Mk-CCSD
   Frank Weinhold                                : gennbo (NPA and NBO analysis)
   Christopher J. Cramer and Donald G. Truhlar   : smd solvation model
   Lars Goerigk                                  : TD-DFT with DH, B97 family of functionals
   V. Asgeirsson, H. Jonsson                     : NEB implementation
   FAccTs GmbH                                   : IRC, NEB, NEB-TS, Multilevel


 Your calculation uses the libint2 library for the computation of 2-el integrals
 For citations please refer to: http://libint.valeyev.net

 This ORCA versions uses:
   CBLAS   interface :  Fast vector & matrix operations
   LAPACKE interface :  Fast linear algebra routines
   SCALAPACK package :  Parallel linear algebra routines


Your calculation utilizes the atom-pairwise dispersion correction
with the zero-damping scheme (D30)
Cite in your paper:
S.Grimme, J.Antony, S.Ehrlich and H.Krieg, J.Chem.Phys., 132, (2010), 154104 
   

XCFun DFT library Copyright 2009-2010 Ulf Ekstrom and contributors.
See http://admol.org/xcfun for more information. This is free soft-
ware; see the source code for copying conditions. There is ABSOLUTELY
NO WARRANTY; not even for MERCHANTABILITY or FITNESS FOR A PARTICULAR
PURPOSE. For details see the documentation. Scientific users of this 
library should cite U. Ekstrom, L. Visscher, R. Bast, A. J. Thorvald-
sen and K. Ruud; J.Chem.Theor.Comp. 2010, DOI: 10.1021/ct100117s
XCFun Version 0.99 
----- Orbital basis set information -----
Your calculation utilizes the basis: def2-TZVP
   F. Weigend and R. Ahlrichs, Phys. Chem. Chem. Phys. 7, 3297 (2005).

================================================================================
                                        WARNINGS
                       Please study these warnings very carefully!
================================================================================


WARNING: Geometry Optimization
  ===> : Switching off AutoStart
         For restart on a previous wavefunction, please use MOREAD

INFO   : the flag for use of LIBINT has been found!

================================================================================
                                       INPUT FILE
================================================================================
NAME = bonds_angles_[1[8[6]]]-[8[6[1][1][1]][1]]-[6[8[1]][1][1][1]]_10.in
|  1> #Run DFT geometry optimization
|  2> ! wB97X-D3 def2-TZVP TIGHTSCF Grid5 FinalGrid6 Opt CHELPG PAL4
|  3> 
|  4> %base "10_geo_opt"
|  5> %geom MaxIter 500
|  6> end
|  7> 
|  8> %geom
|  9>   Constraints
| 10>     { A 2 1 0 C }
| 11>   end
| 12> end
| 13> 
| 14> 
| 15> * xyz 0 1
| 16>   C                    3.011836             -1.175887            0.594949            
| 17>   O                    4.394673             -1.128050            0.874308            
| 18>   H                    4.768428             -0.378085            0.410951            
| 19>   H                    2.806434             -1.318965            -0.469350           
| 20>   H                    2.611632             -2.040265            1.135898            
| 21>   H                    2.484757             -0.284491            0.945659            
| 22> *
| 23> 
| 24>                          ****END OF INPUT****
================================================================================

                       *****************************
                       * Geometry Optimization Run *
                       *****************************

Geometry optimization settings:
Update method            Update   .... BFGS
Choice of coordinates    CoordSys .... Z-matrix Internals
Initial Hessian          InHess   .... Almoef's Model

Convergence Tolerances:
Energy Change            TolE     ....  5.0000e-06 Eh
Max. Gradient            TolMAXG  ....  3.0000e-04 Eh/bohr
RMS Gradient             TolRMSG  ....  1.0000e-04 Eh/bohr
Max. Displacement        TolMAXD  ....  4.0000e-03 bohr
RMS Displacement         TolRMSD  ....  2.0000e-03 bohr

------------------------------------------------------------------------------
                        ORCA OPTIMIZATION COORDINATE SETUP
------------------------------------------------------------------------------

The optimization will be done in new redundant internal coordinates
Making redundant internal coordinates   ...  (new redundants) done
Evaluating the initial hessian          ...  (Almloef) done
Evaluating the coordinates              ...  done
Calculating the B-matrix                .... done
Calculating the G-matrix                .... done
Diagonalizing the G-matrix              .... done
Imposing constraints:
 Iter   0:  RMS(Cart)=    0.0000000000 RMS(Int)=    0.0000000000
CONVERGED
The first mode is                       ....    3
The number of degrees of freedom        ....   12
Storing new coordinates                 .... done

    -----------------------------------------------------------------
                    Redundant Internal Coordinates


    -----------------------------------------------------------------
         Definition                    Initial Value    Approx d2E/dq
    -----------------------------------------------------------------
      1. B(O   1,C   0)                  1.4116         0.516940   
      2. B(H   2,O   1)                  0.9575         0.524720   
      3. B(H   3,C   0)                  1.0933         0.355708   
      4. B(H   4,C   0)                  1.0954         0.353005   
      5. B(H   5,C   0)                  1.0933         0.355706   
      6. A(O   1,C   0,H   4)          106.6733         0.339058   
      7. A(O   1,C   0,H   3)          112.4033         0.339490   
      8. A(O   1,C   0,H   5)          112.4051         0.339489   
      9. A(H   3,C   0,H   5)          109.1701         0.289721   
     10. A(H   4,C   0,H   5)          107.9874         0.289375   
     11. A(H   3,C   0,H   4)          107.9878         0.289375   
     12. A(C   0,O   1,H   2)          108.2499         0.359341 C 
     13. D(H   2,O   1,C   0,H   5)    -61.8274         0.021176   
     14. D(H   2,O   1,C   0,H   3)     61.8239         0.021176   
     15. D(H   2,O   1,C   0,H   4)    179.9980         0.021176   
    -----------------------------------------------------------------

Number of atoms                         .... 6
Number of degrees of freedom            .... 15

         *************************************************************
         *                GEOMETRY OPTIMIZATION CYCLE   1            *
         *************************************************************
---------------------------------
CARTESIAN COORDINATES (ANGSTROEM)
---------------------------------
  C      3.011836   -1.175887    0.594949
  O      4.394673   -1.128050    0.874308
  H      4.768428   -0.378085    0.410951
  H      2.806434   -1.318965   -0.469350
  H      2.611632   -2.040265    1.135898
  H      2.484757   -0.284491    0.945659

----------------------------
CARTESIAN COORDINATES (A.U.)
----------------------------
  NO LB      ZA    FRAG     MASS         X           Y           Z
   0 C     6.0000    0    12.011    5.691545   -2.222104    1.124291
   1 O     8.0000    0    15.999    8.304728   -2.131706    1.652203
   2 H     1.0000    0     1.008    9.011023   -0.714477    0.776585
   3 H     1.0000    0     1.008    5.303392   -2.492483   -0.886943
   4 H     1.0000    0     1.008    4.935269   -3.855542    2.146536
   5 H     1.0000    0     1.008    4.695510   -0.537610    1.787037

--------------------------------
INTERNAL COORDINATES (ANGSTROEM)
--------------------------------
 C      0   0   0     0.000000000000     0.00000000     0.00000000
 O      1   0   0     1.411583507278     0.00000000     0.00000000
 H      2   1   0     0.957517629446   108.24991652     0.00000000
 H      1   2   3     1.093340595189   112.40327928    61.82392038
 H      1   2   3     1.095416993250   106.67328895   179.99802051
 H      1   2   3     1.093341943381   112.40506621   298.17263126

---------------------------
INTERNAL COORDINATES (A.U.)
---------------------------
 C      0   0   0     0.000000000000     0.00000000     0.00000000
 O      1   0   0     2.667506243915     0.00000000     0.00000000
 H      2   1   0     1.809446088054   108.24991652     0.00000000
 H      1   2   3     2.066114296006   112.40327928    61.82392038
 H      1   2   3     2.070038119686   106.67328895   179.99802051
 H      1   2   3     2.066116843720   112.40506621   298.17263126

---------------------
BASIS SET INFORMATION
---------------------
There are 3 groups of distinct atoms

 Group   1 Type C   : 11s6p2d1f contracted to 5s3p2d1f pattern {62111/411/11/1}
 Group   2 Type O   : 11s6p2d1f contracted to 5s3p2d1f pattern {62111/411/11/1}
 Group   3 Type H   : 5s1p contracted to 3s1p pattern {311/1}

Atom   0C    basis set group =>   1
Atom   1O    basis set group =>   2
Atom   2H    basis set group =>   3
Atom   3H    basis set group =>   3
Atom   4H    basis set group =>   3
Atom   5H    basis set group =>   3


           ************************************************************
           *        Program running with 4 parallel MPI-processes     *
           *              working on a common directory               *
           ************************************************************
------------------------------------------------------------------------------
                           ORCA GTO INTEGRAL CALCULATION
------------------------------------------------------------------------------

                         BASIS SET STATISTICS AND STARTUP INFO

 # of primitive gaussian shells          ...   64
 # of primitive gaussian functions       ...  124
 # of contracted shells                  ...   38
 # of contracted basis functions         ...   86
 Highest angular momentum                ...    3
 Maximum contraction depth               ...    6
 Integral package used                   ... LIBINT
 Integral threshhold            Thresh   ...  2.500e-11
 Primitive cut-off              TCut     ...  2.500e-12


------------------------------ INTEGRAL EVALUATION ----------------------------


 * One electron integrals 
 Pre-screening matrix                    ... done
 Shell pair data                         ... done (   0.000 sec)



           ************************************************************
           *        Program running with 4 parallel MPI-processes     *
           *              working on a common directory               *
           ************************************************************
-------------------------------------------------------------------------------
                                 ORCA SCF
-------------------------------------------------------------------------------

------------
SCF SETTINGS
------------
Hamiltonian:
 Density Functional     Method          .... DFT(GTOs)
 Exchange Functional    Exchange        .... WB97X-D3
 Correlation Functional Correlation     .... WB97X-D3
 Gradients option       PostSCFGGA      .... off
 Hybrid DFT is turned on
   Fraction HF Exchange ScalHFX         ....  0.195728
   Scaling of DF-GGA-X  ScalDFX         ....  0.000000
   Scaling of DF-GGA-C  ScalDFC         ....  1.000000
   Scaling of DF-LDA-C  ScalLDAC        ....  1.000000
   Perturbative correction              ....  0.000000
   Density functional embedding theory  .... OFF
 Long-range corrected/Screened/Range-Separated Hybrid DFT is turned on
   Amount of maximum screened exact exchange              ....  0.804272
   Range separation parameter mu (erf(mu*r12)/r12)        ....  0.250000


General Settings:
 Integral files         IntName         .... 10_geo_opt
 Hartree-Fock type      HFTyp           .... RHF
 Total Charge           Charge          ....    0
 Multiplicity           Mult            ....    1
 Number of Electrons    NEL             ....   18
 Basis Dimension        Dim             ....   86
 Nuclear Repulsion      ENuc            ....     40.4424612725 Eh

Convergence Acceleration:
 DIIS                   CNVDIIS         .... on
   Start iteration      DIISMaxIt       ....    12
   Startup error        DIISStart       ....  0.200000
   # of expansion vecs  DIISMaxEq       ....     5
   Bias factor          DIISBfac        ....   1.050
   Max. coefficient     DIISMaxC        ....  10.000
 Newton-Raphson         CNVNR           .... off
 SOSCF                  CNVSOSCF        .... on
   Start iteration      SOSCFMaxIt      ....   150
   Startup grad/error   SOSCFStart      ....  0.003300
 Level Shifting         CNVShift        .... on
   Level shift para.    LevelShift      ....    0.2500
   Turn off err/grad.   ShiftErr        ....    0.0010
 Zerner damping         CNVZerner       .... off
 Static damping         CNVDamp         .... on
   Fraction old density DampFac         ....    0.7000
   Max. Damping (<1)    DampMax         ....    0.9800
   Min. Damping (>=0)   DampMin         ....    0.0000
   Turn off err/grad.   DampErr         ....    0.1000
 Fernandez-Rico         CNVRico         .... off

SCF Procedure:
 Maximum # iterations   MaxIter         ....   125
 SCF integral mode      SCFMode         .... Direct
   Integral package                     .... LIBINT
 Reset frequency        DirectResetFreq ....    20
 Integral Threshold     Thresh          ....  2.500e-11 Eh
 Primitive CutOff       TCut            ....  2.500e-12 Eh

Convergence Tolerance:
 Convergence Check Mode ConvCheckMode   .... Total+1el-Energy
 Convergence forced     ConvForced      .... 0
 Energy Change          TolE            ....  1.000e-08 Eh
 1-El. energy change                    ....  1.000e-05 Eh
 Orbital Gradient       TolG            ....  1.000e-05
 Orbital Rotation angle TolX            ....  1.000e-05
 DIIS Error             TolErr          ....  5.000e-07


Diagonalization of the overlap matrix:
Smallest eigenvalue                        ... 1.648e-03
Time for diagonalization                   ...    0.002 sec
Threshold for overlap eigenvalues          ... 1.000e-08
Number of eigenvalues below threshold      ... 0
Time for construction of square roots      ...    0.016 sec
Total time needed                          ...    0.018 sec

-------------------
DFT GRID GENERATION
-------------------

General Integration Accuracy     IntAcc      ...  5.010
Radial Grid Type                 RadialGrid  ... Gauss-Chebyshev
Angular Grid (max. acc.)         AngularGrid ... Lebedev-434
Angular grid pruning method      GridPruning ... 3 (G Style)
Weight generation scheme         WeightScheme... Becke
Basis function cutoff            BFCut       ...    1.0000e-11
Integration weight cutoff        WCut        ...    1.0000e-14
Grids for H and He will be reduced by one unit

# of grid points (after initial pruning)     ...  48308 (   0.0 sec)
# of grid points (after weights+screening)   ...  46675 (   0.0 sec)
nearest neighbour list constructed           ...    0.0 sec
Grid point re-assignment to atoms done       ...    0.0 sec
Grid point division into batches done        ...    0.3 sec
Reduced shell lists constructed in    0.3 sec

Total number of grid points                  ...    46675
Total number of batches                      ...      732
Average number of points per batch           ...       63
Average number of grid points per atom       ...     7779
Average number of shells per batch           ...    33.10 (87.11%)
Average number of basis functions per batch  ...    76.71 (89.20%)
Average number of large shells per batch     ...    30.52 (92.20%)
Average number of large basis fcns per batch ...    72.02 (93.89%)
Maximum spatial batch extension              ...  15.77, 14.98, 16.57 au
Average spatial batch extension              ...   0.41,  0.40,  0.42 au

Time for grid setup =    0.380 sec

------------------------------
INITIAL GUESS: MODEL POTENTIAL
------------------------------
Loading Hartree-Fock densities                     ... done
Calculating cut-offs                               ... done
Setting up the integral package                    ... done
Initializing the effective Hamiltonian             ... done
Starting the Coulomb interaction                   ... done (   0.0 sec)
Reading the grid                                   ... done
Mapping shells                                     ... done
Starting the XC term evaluation                    ... done (   0.1 sec)
  promolecular density results
     # of electrons  =     17.998045143
     EX              =    -14.430336339
     EC              =     -0.575154078
     EX+EC           =    -15.005490417
Transforming the Hamiltonian                       ... done (   0.0 sec)
Diagonalizing the Hamiltonian                      ... done (   0.0 sec)
Back transforming the eigenvectors                 ... done (   0.0 sec)
Now organizing SCF variables                       ... done
                      ------------------
                      INITIAL GUESS DONE (   0.6 sec)
                      ------------------
--------------
SCF ITERATIONS
--------------
ITER       Energy         Delta-E        Max-DP      RMS-DP      [F,P]     Damp
               ***  Starting incremental Fock matrix formation  ***
  0   -115.6513148837   0.000000000000 0.03691021  0.00147305  0.2520321 0.7000
  1   -115.6883097160  -0.036994832362 0.02200877  0.00103975  0.1260958 0.7000
                               ***Turning on DIIS***
  2   -115.7053462490  -0.017036533000 0.03154489  0.00188015  0.0490435 0.0000
  3   -115.7330423109  -0.027696061894 0.01772184  0.00067945  0.0610470 0.0000
  4   -115.7375551112  -0.004512800300 0.00406568  0.00013172  0.0065727 0.0000
                      *** Initiating the SOSCF procedure ***
                           *** Shutting down DIIS ***
                      *** Re-Reading the Fockian *** 
                      *** Removing any level shift *** 
ITER      Energy       Delta-E        Grad      Rot      Max-DP    RMS-DP
  5   -115.73764919  -0.0000940834  0.000488  0.000488  0.000676  0.000043
               *** Restarting incremental Fock matrix formation ***
  6   -115.73765732  -0.0000081244  0.000154  0.000200  0.000485  0.000026
  7   -115.73765804  -0.0000007190  0.000055  0.000107  0.000205  0.000011
  8   -115.73765809  -0.0000000568  0.000020  0.000018  0.000030  0.000001
  9   -115.73765810  -0.0000000056  0.000011  0.000008  0.000015  0.000001
 10   -115.73765810  -0.0000000015  0.000003  0.000003  0.000003  0.000000
                  ***Gradient check signals convergence***
              ***Rediagonalizing the Fockian in SOSCF/NRSCF***

               *****************************************************
               *                     SUCCESS                       *
               *           SCF CONVERGED AFTER  11 CYCLES          *
               *****************************************************

Setting up the final grid:

General Integration Accuracy     IntAcc      ...  5.340
Radial Grid Type                 RadialGrid  ... Gauss-Chebyshev
Angular Grid (max. acc.)         AngularGrid ... Lebedev-590
Angular grid pruning method      GridPruning ... 3 (G Style)
Weight generation scheme         WeightScheme... Becke
Basis function cutoff            BFCut       ...    1.0000e-11
Integration weight cutoff        WCut        ...    1.0000e-14
Grids for H and He will be reduced by one unit

# of grid points (after initial pruning)     ...  77324 (   0.0 sec)
# of grid points (after weights+screening)   ...  74516 (   0.0 sec)
nearest neighbour list constructed           ...    0.0 sec
Grid point re-assignment to atoms done       ...    0.0 sec
Grid point division into batches done        ...    0.8 sec
Reduced shell lists constructed in    0.8 sec

Total number of grid points                  ...    74516
Total number of batches                      ...     1167
Average number of points per batch           ...       63
Average number of grid points per atom       ...    12419
Average number of shells per batch           ...    32.92 (86.63%)
Average number of basis functions per batch  ...    76.34 (88.77%)
Average number of large shells per batch     ...    30.27 (91.94%)
Average number of large basis fcns per batch ...    71.43 (93.57%)
Maximum spatial batch extension              ...  13.18, 14.26, 15.48 au
Average spatial batch extension              ...   0.33,  0.36,  0.37 au

Final grid set up in    0.9 sec
Final integration                            ... done (   0.2 sec)
Change in XC energy                          ...    -0.000107552
Integrated number of electrons               ...    18.000000758
Previous integrated no of electrons          ...    18.000002235

----------------
TOTAL SCF ENERGY
----------------

Total Energy       :         -115.73776565 Eh           -3149.38472 eV

Components:
Nuclear Repulsion  :           40.44246127 Eh            1100.49532 eV
Electronic Energy  :         -156.18022693 Eh           -4249.88003 eV
One Electron Energy:         -237.30255830 Eh           -6457.33090 eV
Two Electron Energy:           81.12233137 Eh            2207.45086 eV

Virial components:
Potential Energy   :         -230.98916444 Eh           -6285.53471 eV
Kinetic Energy     :          115.25139879 Eh            3136.15000 eV
Virial Ratio       :            2.00422005


DFT components:
N(Alpha)           :        9.000000378881 electrons
N(Beta)            :        9.000000378881 electrons
N(Total)           :       18.000000757762 electrons
E(XC)              :      -10.655587270667 Eh       
DFET-embed. en.    :        0.000000000000 Eh       

---------------
SCF CONVERGENCE
---------------

  Last Energy change         ...   -3.7332e-11  Tolerance :   1.0000e-08
  Last MAX-Density change    ...    1.8479e-06  Tolerance :   1.0000e-07
  Last RMS-Density change    ...    7.7111e-08  Tolerance :   5.0000e-09
  Last Orbital Gradient      ...    1.3351e-06  Tolerance :   1.0000e-05
  Last Orbital Rotation      ...    7.7028e-07  Tolerance :   1.0000e-05

             **** THE GBW FILE WAS UPDATED (10_geo_opt.gbw) ****
             **** DENSITY FILE WAS UPDATED (10_geo_opt.scfp.tmp) ****
             **** ENERGY FILE WAS UPDATED (10_geo_opt.en.tmp) ****
----------------
ORBITAL ENERGIES
----------------

  NO   OCC          E(Eh)            E(eV) 
   0   2.0000     -19.228365      -523.2304 
   1   2.0000     -10.315056      -280.6869 
   2   2.0000      -1.137189       -30.9445 
   3   2.0000      -0.795047       -21.6343 
   4   2.0000      -0.611650       -16.6438 
   5   2.0000      -0.542817       -14.7708 
   6   2.0000      -0.525038       -14.2870 
   7   2.0000      -0.433915       -11.8074 
   8   2.0000      -0.374125       -10.1805 
   9   0.0000       0.116688         3.1752 
  10   0.0000       0.156694         4.2639 
  11   0.0000       0.201689         5.4882 
  12   0.0000       0.205588         5.5943 
  13   0.0000       0.226339         6.1590 
  14   0.0000       0.304349         8.2818 
  15   0.0000       0.313791         8.5387 
  16   0.0000       0.404173        10.9981 
  17   0.0000       0.452250        12.3063 
  18   0.0000       0.485903        13.2221 
  19   0.0000       0.537132        14.6161 
  20   0.0000       0.543280        14.7834 
  21   0.0000       0.566103        15.4044 
  22   0.0000       0.599178        16.3045 
  23   0.0000       0.603014        16.4088 
  24   0.0000       0.671548        18.2737 
  25   0.0000       0.777828        21.1658 
  26   0.0000       0.831031        22.6135 
  27   0.0000       0.860497        23.4153 
  28   0.0000       0.989905        26.9367 
  29   0.0000       1.015135        27.6232 
  30   0.0000       1.109553        30.1925 
  31   0.0000       1.381230        37.5852 
  32   0.0000       1.512473        41.1565 
  33   0.0000       1.554800        42.3083 
  34   0.0000       1.602454        43.6050 
  35   0.0000       1.612196        43.8701 
  36   0.0000       1.625792        44.2401 
  37   0.0000       1.660584        45.1868 
  38   0.0000       1.687554        45.9207 
  39   0.0000       1.776120        48.3307 
  40   0.0000       1.951503        53.1031 
  41   0.0000       2.033666        55.3389 
  42   0.0000       2.055678        55.9378 
  43   0.0000       2.091460        56.9115 
  44   0.0000       2.115017        57.5525 
  45   0.0000       2.268741        61.7356 
  46   0.0000       2.332838        63.4798 
  47   0.0000       2.346649        63.8556 
  48   0.0000       2.379818        64.7581 
  49   0.0000       2.427359        66.0518 
  50   0.0000       2.499043        68.0024 
  51   0.0000       2.596459        70.6532 
  52   0.0000       2.642015        71.8929 
  53   0.0000       2.705612        73.6235 
  54   0.0000       2.841472        77.3204 
  55   0.0000       2.868995        78.0693 
  56   0.0000       2.889045        78.6149 
  57   0.0000       2.992913        81.4413 
  58   0.0000       3.096295        84.2545 
  59   0.0000       3.173423        86.3532 
  60   0.0000       3.300061        89.7992 
  61   0.0000       3.407654        92.7270 
  62   0.0000       3.436790        93.5198 
  63   0.0000       3.491600        95.0113 
  64   0.0000       3.611880        98.2843 
  65   0.0000       3.645065        99.1873 
  66   0.0000       3.666609        99.7735 
  67   0.0000       4.004775       108.9755 
  68   0.0000       4.224437       114.9528 
  69   0.0000       4.271040       116.2209 
  70   0.0000       4.458873       121.3321 
  71   0.0000       4.562727       124.1581 
  72   0.0000       5.347431       145.5110 
  73   0.0000       5.428524       147.7176 
  74   0.0000       5.552608       151.0941 
  75   0.0000       5.826714       158.5529 
  76   0.0000       5.830233       158.6487 
  77   0.0000       5.988207       162.9474 
  78   0.0000       6.378267       173.5615 
  79   0.0000       6.530557       177.7055 
  80   0.0000       6.747484       183.6084 
  81   0.0000       6.803178       185.1239 
  82   0.0000       7.039145       191.5449 
  83   0.0000       7.215600       196.3465 
  84   0.0000      22.405079       609.6732 
  85   0.0000      43.663607      1188.1471 

                    ********************************
                    * MULLIKEN POPULATION ANALYSIS *
                    ********************************

-----------------------
MULLIKEN ATOMIC CHARGES
-----------------------
   0 C :   -0.151940
   1 O :   -0.476416
   2 H :    0.312633
   3 H :    0.099209
   4 H :    0.117302
   5 H :    0.099212
Sum of atomic charges:   -0.0000000

--------------------------------
MULLIKEN REDUCED ORBITAL CHARGES
--------------------------------
  0 C s       :     3.222994  s :     3.222994
      pz      :     1.047291  p :     2.827325
      px      :     0.702989
      py      :     1.077045
      dz2     :     0.011046  d :     0.094197
      dxz     :     0.032495
      dyz     :     0.002673
      dx2y2   :     0.012699
      dxy     :     0.035285
      f0      :     0.001351  f :     0.007423
      f+1     :     0.000967
      f-1     :     0.000176
      f+2     :     0.001463
      f-2     :     0.000125
      f+3     :     0.001350
      f-3     :     0.001990
  1 O s       :     3.793840  s :     3.793840
      pz      :     1.758291  p :     4.650166
      px      :     1.313191
      py      :     1.578683
      dz2     :     0.003151  d :     0.030731
      dxz     :     0.006501
      dyz     :     0.005885
      dx2y2   :     0.008978
      dxy     :     0.006216
      f0      :     0.000269  f :     0.001679
      f+1     :     0.000232
      f-1     :     0.000088
      f+2     :     0.000291
      f-2     :     0.000233
      f+3     :     0.000363
      f-3     :     0.000203
  2 H s       :     0.639691  s :     0.639691
      pz      :     0.017020  p :     0.047676
      px      :     0.012680
      py      :     0.017977
  3 H s       :     0.881348  s :     0.881348
      pz      :     0.012072  p :     0.019443
      px      :     0.003029
      py      :     0.004342
  4 H s       :     0.862630  s :     0.862630
      pz      :     0.006247  p :     0.020068
      px      :     0.004135
      py      :     0.009687
  5 H s       :     0.881346  s :     0.881346
      pz      :     0.004980  p :     0.019442
      px      :     0.005019
      py      :     0.009443


                     *******************************
                     * LOEWDIN POPULATION ANALYSIS *
                     *******************************

----------------------
LOEWDIN ATOMIC CHARGES
----------------------
   0 C :   -0.385925
   1 O :   -0.075812
   2 H :    0.165882
   3 H :    0.092896
   4 H :    0.110064
   5 H :    0.092894

-------------------------------
LOEWDIN REDUCED ORBITAL CHARGES
-------------------------------
  0 C s       :     2.862949  s :     2.862949
      pz      :     1.096842  p :     3.052816
      px      :     0.846273
      py      :     1.109700
      dz2     :     0.072263  d :     0.413163
      dxz     :     0.114345
      dyz     :     0.020906
      dx2y2   :     0.081852
      dxy     :     0.123798
      f0      :     0.007759  f :     0.056997
      f+1     :     0.007180
      f-1     :     0.000868
      f+2     :     0.012569
      f-2     :     0.004873
      f+3     :     0.011649
      f-3     :     0.012099
  1 O s       :     3.367243  s :     3.367243
      pz      :     1.698262  p :     4.632207
      px      :     1.381231
      py      :     1.552715
      dz2     :     0.006153  d :     0.071697
      dxz     :     0.017870
      dyz     :     0.008152
      dx2y2   :     0.019389
      dxy     :     0.020133
      f0      :     0.000483  f :     0.004664
      f+1     :     0.000625
      f-1     :     0.000073
      f+2     :     0.001062
      f-2     :     0.000559
      f+3     :     0.000892
      f-3     :     0.000970
  2 H s       :     0.675101  s :     0.675101
      pz      :     0.055796  p :     0.159017
      px      :     0.033801
      py      :     0.069420
  3 H s       :     0.846806  s :     0.846806
      pz      :     0.036331  p :     0.060298
      px      :     0.009829
      py      :     0.014138
  4 H s       :     0.831316  s :     0.831316
      pz      :     0.018883  p :     0.058619
      px      :     0.011339
      py      :     0.028398
  5 H s       :     0.846808  s :     0.846808
      pz      :     0.015811  p :     0.060297
      px      :     0.015386
      py      :     0.029100


                      *****************************
                      * MAYER POPULATION ANALYSIS *
                      *****************************

  NA   - Mulliken gross atomic population
  ZA   - Total nuclear charge
  QA   - Mulliken gross atomic charge
  VA   - Mayer's total valence
  BVA  - Mayer's bonded valence
  FA   - Mayer's free valence

  ATOM       NA         ZA         QA         VA         BVA        FA
  0 C      6.1519     6.0000    -0.1519     3.9348     3.9348    -0.0000
  1 O      8.4764     8.0000    -0.4764     1.8892     1.8892    -0.0000
  2 H      0.6874     1.0000     0.3126     0.9138     0.9138     0.0000
  3 H      0.9008     1.0000     0.0992     0.9594     0.9594    -0.0000
  4 H      0.8827     1.0000     0.1173     0.9602     0.9602     0.0000
  5 H      0.9008     1.0000     0.0992     0.9594     0.9594    -0.0000

  Mayer bond orders larger than 0.1
B(  0-C ,  1-O ) :   0.9991 B(  0-C ,  3-H ) :   0.9753 B(  0-C ,  4-H ) :   0.9753 
B(  0-C ,  5-H ) :   0.9752 B(  1-O ,  2-H ) :   0.9007 

-------
TIMINGS
-------

Total SCF time: 0 days 0 hours 0 min 8 sec 

Total time                  ....       8.772 sec
Sum of individual times     ....       8.350 sec  ( 95.2%)

Fock matrix formation       ....       6.831 sec  ( 77.9%)
  XC integration            ....       1.941 sec  ( 28.4% of F)
    Basis function eval.    ....       0.413 sec  ( 21.3% of XC)
    Density eval.           ....       0.260 sec  ( 13.4% of XC)
    XC-Functional eval.     ....       0.664 sec  ( 34.2% of XC)
    XC-Potential eval.      ....       0.268 sec  ( 13.8% of XC)
Diagonalization             ....       0.021 sec  (  0.2%)
Density matrix formation    ....       0.002 sec  (  0.0%)
Population analysis         ....       0.014 sec  (  0.2%)
Initial guess               ....       0.173 sec  (  2.0%)
Orbital Transformation      ....       0.000 sec  (  0.0%)
Orbital Orthonormalization  ....       0.000 sec  (  0.0%)
DIIS solution               ....       0.012 sec  (  0.1%)
SOSCF solution              ....       0.022 sec  (  0.3%)
Grid generation             ....       1.275 sec  ( 14.5%)


-------------------------------------------------------------------------------
                          DFT DISPERSION CORRECTION                            
                                                                               
                              DFTD3 V3.1  Rev 1                                
                              USING zero damping                               
-------------------------------------------------------------------------------
The omegaB97X-D3 functional is recognized. Fit by Chai et al.
Active option DFTDOPT                   ...         3   

molecular C6(AA) [au] = 208.712541 


            DFT-D V3
 parameters
 s6 scaling factor         :     1.0000 
 rs6 scaling factor        :     1.2810 
 s8 scaling factor         :     1.0000 
 rs8 scaling factor        :     1.0940 
 Damping factor alpha6     :    14.0000 
 Damping factor alpha8     :    16.0000 
 ad hoc parameters k1-k3   :    16.0000     1.3333    -4.0000 

 Edisp/kcal,au: -0.149681201598  -0.000238532153 
 E6   /kcal   :  -0.029464352 
 E8   /kcal   :  -0.120216849 
 % E8         :  80.315262107 

-------------------------   ----------------
Dispersion correction           -0.000238532
-------------------------   ----------------


-------------------------   --------------------
FINAL SINGLE POINT ENERGY      -115.738004186259
-------------------------   --------------------



           ************************************************************
           *        Program running with 4 parallel MPI-processes     *
           *              working on a common directory               *
           ************************************************************
------------------------------------------------------------------------------
                         ORCA SCF GRADIENT CALCULATION
------------------------------------------------------------------------------

Gradient of the Kohn-Sham DFT energy:
Kohn-Sham wavefunction type      ... RKS
Hartree-Fock exchange scaling    ...    0.196
Number of operators              ...    1
Number of atoms                  ...    6
Basis set dimensions             ...   86
Integral neglect threshold       ... 2.5e-11
Integral primitive cutoff        ... 2.5e-12

Nuclear repulsion gradient       ... done
One Electron Gradient            ... done
Pre-screening matrix             ... done
Starting the two electron gradient:
Two electron gradient done
Exchange-correlation gradient    ... done
Dispersion correction            ... done

------------------
CARTESIAN GRADIENT
------------------

   1   C   :    0.000789154    0.006058432   -0.004248965
   2   O   :    0.000399009   -0.001231425    0.000988723
   3   H   :   -0.000940386    0.000023241   -0.000231508
   4   H   :    0.000091376   -0.000328419    0.001668970
   5   H   :   -0.000836325   -0.002892971    0.001919533
   6   H   :    0.000497171   -0.001628858   -0.000096753

Difference to translation invariance:
           :    0.0000000000   -0.0000000000    0.0000000000

Norm of the cartesian gradient     ...    0.0088055341
RMS gradient                       ...    0.0020754843
MAX gradient                       ...    0.0060584320

-------
TIMINGS
-------

Total SCF gradient time            ...        1.700 sec

One electron gradient       ....       0.005 sec  (  0.3%)
Prescreening matrices       ....       0.024 sec  (  1.4%)
Two electron gradient       ....       0.840 sec  ( 49.4%)
XC gradient                 ....       0.523 sec  ( 30.8%)
------------------------------------------------------------------------------
                         ORCA GEOMETRY RELAXATION STEP
------------------------------------------------------------------------------

Reading the OPT-File                    .... done
Getting information on internals        .... done
Copying old internal coords+grads       .... done
Making the new internal coordinates     .... (new redundants).... done
Validating the new internal coordinates .... (new redundants).... done
Calculating the B-matrix                .... done
Calculating the G,G- and P matrices     .... done
Transforming gradient to internals      .... done
Projecting the internal gradient        .... done
Number of atoms                         ....   6
Number of internal coordinates          ....  15
Current Energy                          ....  -115.738004186 Eh
Current gradient norm                   ....     0.008805534 Eh/bohr
Maximum allowed component of the step   ....  0.300
Current trust radius                    ....  0.300
Evaluating the initial hessian          ....  (Almloef) done
Projecting the Hessian                  .... done
Forming the augmented Hessian           .... done
Diagonalizing the augmented Hessian     .... done
Last element of RFO vector              ....  0.999896885
Lowest eigenvalues of augmented Hessian:
 -0.000063909  0.021176336  0.181042828  0.192689250  0.313421025
Length of the computed step             ....  0.014361792
The final length of the internal step   ....  0.014361792
Converting the step to cartesian space:
 Initial RMS(Int)=    0.0037081989
Transforming coordinates:
 Iter   0:  RMS(Cart)=    0.0021163143 RMS(Int)=    0.0037076428
 Iter   1:  RMS(Cart)=    0.0000072944 RMS(Int)=    0.0000068792
 Iter   2:  RMS(Cart)=    0.0000000219 RMS(Int)=    0.0000000217
Imposing constraints:
 Iter   0:  RMS(Cart)=    0.0000000006 RMS(Int)=    0.0000000000
CONVERGED
done
Storing new coordinates                 .... done

                                .--------------------.
          ----------------------|Geometry convergence|-------------------------
          Item                value                   Tolerance       Converged
          ---------------------------------------------------------------------
          RMS gradient        0.0011823704            0.0001000000      NO
          MAX gradient        0.0035361705            0.0003000000      NO
          RMS step            0.0037081989            0.0020000000      NO
          MAX step            0.0100155297            0.0040000000      NO
          ........................................................
          Max(Bonds)      0.0053      Max(Angles)    0.25
          Max(Dihed)        0.20      Max(Improp)    0.00
          ---------------------------------------------------------------------

The optimization has not yet converged - more geometry cycles are needed


    ---------------------------------------------------------------------------
                         Redundant Internal Coordinates
                            (Angstroem and degrees)

        Definition                    Value    dE/dq     Step     New-Value
    ----------------------------------------------------------------------------
     1. B(O   1,C   0)                1.4116 -0.000421  0.0004    1.4120   
     2. B(H   2,O   1)                0.9575 -0.000237  0.0002    0.9578   
     3. B(H   3,C   0)                1.0933 -0.001599  0.0024    1.0957   
     4. B(H   4,C   0)                1.0954  0.003536 -0.0053    1.0901   
     5. B(H   5,C   0)                1.0933 -0.001599  0.0024    1.0957   
     6. A(O   1,C   0,H   4)          106.67 -0.001208    0.25    106.93   
     7. A(O   1,C   0,H   3)          112.40  0.000560   -0.12    112.28   
     8. A(O   1,C   0,H   5)          112.41  0.000560   -0.12    112.29   
     9. A(H   3,C   0,H   5)          109.17  0.000338   -0.16    109.01   
    10. A(H   4,C   0,H   5)          107.99 -0.000172    0.09    108.08   
    11. A(H   3,C   0,H   4)          107.99 -0.000173    0.09    108.08   
    12. A(C   0,O   1,H   2)          108.25 -0.001699    0.00    108.25 C 
    13. D(H   2,O   1,C   0,H   5)    -61.83 -0.000656    0.20    -61.63   
    14. D(H   2,O   1,C   0,H   3)     61.82  0.000655   -0.20     61.63   
    15. D(H   2,O   1,C   0,H   4)    180.00 -0.000001    0.00    180.00   
    ----------------------------------------------------------------------------

         *************************************************************
         *                GEOMETRY OPTIMIZATION CYCLE   2            *
         *************************************************************
---------------------------------
CARTESIAN COORDINATES (ANGSTROEM)
---------------------------------
  C      3.011791   -1.178609    0.596926
  O      4.395322   -1.128226    0.874575
  H      4.767259   -0.377595    0.410340
  H      2.807044   -1.319341   -0.470254
  H      2.611346   -2.038320    1.134415
  H      2.484997   -0.283651    0.946413

----------------------------
CARTESIAN COORDINATES (A.U.)
----------------------------
  NO LB      ZA    FRAG     MASS         X           Y           Z
   0 C     6.0000    0    12.011    5.691461   -2.227248    1.128026
   1 O     8.0000    0    15.999    8.305955   -2.132039    1.652707
   2 H     1.0000    0     1.008    9.008814   -0.713552    0.775430
   3 H     1.0000    0     1.008    5.304545   -2.493194   -0.888651
   4 H     1.0000    0     1.008    4.934729   -3.851866    2.143735
   5 H     1.0000    0     1.008    4.695964   -0.536023    1.788461

--------------------------------
INTERNAL COORDINATES (ANGSTROEM)
--------------------------------
 C      0   0   0     0.000000000000     0.00000000     0.00000000
 O      1   0   0     1.412014634395     0.00000000     0.00000000
 H      2   1   0     0.957756836422   108.24991662     0.00000000
 H      1   2   3     1.095718431822   112.28329465    61.62687945
 H      1   2   3     1.090117003259   106.92501101   179.99945070
 H      1   2   3     1.095719948191   112.28506831   298.37228329

---------------------------
INTERNAL COORDINATES (A.U.)
---------------------------
 C      0   0   0     0.000000000000     0.00000000     0.00000000
 O      1   0   0     2.668320956096     0.00000000     0.00000000
 H      2   1   0     1.809898123729   108.24991662     0.00000000
 H      1   2   3     2.070607756033   112.28329465    61.62687945
 H      1   2   3     2.060022590090   106.92501101   179.99945070
 H      1   2   3     2.070610621556   112.28506831   298.37228329



           ************************************************************
           *        Program running with 4 parallel MPI-processes     *
           *              working on a common directory               *
           ************************************************************


           ************************************************************
           *        Program running with 4 parallel MPI-processes     *
           *              working on a common directory               *
           ************************************************************

Diagonalization of the overlap matrix:
Smallest eigenvalue                        ... 1.649e-03
Time for diagonalization                   ...    0.002 sec
Threshold for overlap eigenvalues          ... 1.000e-08
Number of eigenvalues below threshold      ... 0
Time for construction of square roots      ...    0.006 sec
Total time needed                          ...    0.008 sec

-------------------
DFT GRID GENERATION
-------------------

General Integration Accuracy     IntAcc      ...  5.010
Radial Grid Type                 RadialGrid  ... Gauss-Chebyshev
Angular Grid (max. acc.)         AngularGrid ... Lebedev-434
Angular grid pruning method      GridPruning ... 3 (G Style)
Weight generation scheme         WeightScheme... Becke
Basis function cutoff            BFCut       ...    1.0000e-11
Integration weight cutoff        WCut        ...    1.0000e-14
Grids for H and He will be reduced by one unit

# of grid points (after initial pruning)     ...  48308 (   0.0 sec)
# of grid points (after weights+screening)   ...  46677 (   0.0 sec)
nearest neighbour list constructed           ...    0.0 sec
Grid point re-assignment to atoms done       ...    0.0 sec
Grid point division into batches done        ...    0.3 sec
Reduced shell lists constructed in    0.3 sec

Total number of grid points                  ...    46677
Total number of batches                      ...      733
Average number of points per batch           ...       63
Average number of grid points per atom       ...     7780
Average number of shells per batch           ...    33.12 (87.16%)
Average number of basis functions per batch  ...    76.74 (89.23%)
Average number of large shells per batch     ...    30.56 (92.28%)
Average number of large basis fcns per batch ...    72.11 (93.96%)
Maximum spatial batch extension              ...  15.76, 14.98, 16.57 au
Average spatial batch extension              ...   0.41,  0.41,  0.43 au

Time for grid setup =    0.386 sec

--------------
SCF ITERATIONS
--------------
ITER       Energy         Delta-E        Max-DP      RMS-DP      [F,P]     Damp
               ***  Starting incremental Fock matrix formation  ***
                      *** Initiating the SOSCF procedure ***
                      *** Re-Reading the Fockian *** 
                      *** Removing any level shift *** 
ITER      Energy       Delta-E        Grad      Rot      Max-DP    RMS-DP
  0   -115.73768597 -115.7376859729  0.000620  0.000620  0.000620  0.000033
               *** Restarting incremental Fock matrix formation ***
  1   -115.73769450  -0.0000085282  0.000161  0.000263  0.000249  0.000014
  2   -115.73769554  -0.0000010404  0.000055  0.000131  0.000143  0.000007
  3   -115.73769564  -0.0000000971  0.000008  0.000011  0.000024  0.000001
  4   -115.73769564  -0.0000000011  0.000005  0.000004  0.000009  0.000000
                  ***Gradient check signals convergence***
              ***Rediagonalizing the Fockian in SOSCF/NRSCF***

               *****************************************************
               *                     SUCCESS                       *
               *           SCF CONVERGED AFTER   5 CYCLES          *
               *****************************************************

Setting up the final grid:

General Integration Accuracy     IntAcc      ...  5.340
Radial Grid Type                 RadialGrid  ... Gauss-Chebyshev
Angular Grid (max. acc.)         AngularGrid ... Lebedev-590
Angular grid pruning method      GridPruning ... 3 (G Style)
Weight generation scheme         WeightScheme... Becke
Basis function cutoff            BFCut       ...    1.0000e-11
Integration weight cutoff        WCut        ...    1.0000e-14
Grids for H and He will be reduced by one unit

# of grid points (after initial pruning)     ...  77324 (   0.0 sec)
# of grid points (after weights+screening)   ...  74516 (   0.0 sec)
nearest neighbour list constructed           ...    0.0 sec
Grid point re-assignment to atoms done       ...    0.0 sec
Grid point division into batches done        ...    0.8 sec
Reduced shell lists constructed in    0.8 sec

Total number of grid points                  ...    74516
Total number of batches                      ...     1167
Average number of points per batch           ...       63
Average number of grid points per atom       ...    12419
Average number of shells per batch           ...    32.89 (86.55%)
Average number of basis functions per batch  ...    76.32 (88.74%)
Average number of large shells per batch     ...    30.32 (92.20%)
Average number of large basis fcns per batch ...    71.49 (93.68%)
Maximum spatial batch extension              ...  13.20, 14.26, 15.48 au
Average spatial batch extension              ...   0.34,  0.37,  0.37 au

Final grid set up in    0.9 sec
Final integration                            ... done (   0.2 sec)
Change in XC energy                          ...    -0.000107464
Integrated number of electrons               ...    18.000000761
Previous integrated no of electrons          ...    18.000002274
Total Energy       :         -115.73780310 Eh           -3149.38573 eV
  Last Energy change         ...   -2.4025e-10  Tolerance :   1.0000e-08
  Last MAX-Density change    ...    1.7381e-06  Tolerance :   1.0000e-07
             **** THE GBW FILE WAS UPDATED (10_geo_opt.gbw) ****
             **** DENSITY FILE WAS UPDATED (10_geo_opt.scfp.tmp) ****
             **** ENERGY FILE WAS UPDATED (10_geo_opt.en.tmp) ****
Total SCF time: 0 days 0 hours 0 min 5 sec 


-------------------------------------------------------------------------------
                          DFT DISPERSION CORRECTION                            
                                                                               
                              DFTD3 V3.1  Rev 1                                
                              USING zero damping                               
-------------------------------------------------------------------------------
-------------------------   ----------------
Dispersion correction           -0.000238506
-------------------------   ----------------


-------------------------   --------------------
FINAL SINGLE POINT ENERGY      -115.738041609172
-------------------------   --------------------



           ************************************************************
           *        Program running with 4 parallel MPI-processes     *
           *              working on a common directory               *
           ************************************************************
------------------------------------------------------------------------------
                         ORCA SCF GRADIENT CALCULATION
------------------------------------------------------------------------------

Gradient of the Kohn-Sham DFT energy:
Kohn-Sham wavefunction type      ... RKS
Hartree-Fock exchange scaling    ...    0.196
Number of operators              ...    1
Number of atoms                  ...    6
Basis set dimensions             ...   86
Integral neglect threshold       ... 2.5e-11
Integral primitive cutoff        ... 2.5e-12

Nuclear repulsion gradient       ... done
One Electron Gradient            ... done
Pre-screening matrix             ... done
Starting the two electron gradient:
Two electron gradient done
Exchange-correlation gradient    ... done
Dispersion correction            ... done

------------------
CARTESIAN GRADIENT
------------------

   1   C   :    0.000192665    0.001659996   -0.001170258
   2   O   :    0.000600014   -0.001018386    0.000877993
   3   H   :   -0.000750167    0.000252547   -0.000355327
   4   H   :   -0.000034520   -0.000345150    0.000203906
   5   H   :    0.000035956   -0.000239063    0.000178342
   6   H   :   -0.000043949   -0.000309945    0.000265343

Difference to translation invariance:
           :    0.0000000000   -0.0000000000    0.0000000000

Norm of the cartesian gradient     ...    0.0027392606
RMS gradient                       ...    0.0006456499
MAX gradient                       ...    0.0016599960

-------
TIMINGS
-------

Total SCF gradient time            ...        1.626 sec

One electron gradient       ....       0.004 sec  (  0.3%)
Prescreening matrices       ....       0.025 sec  (  1.5%)
Two electron gradient       ....       0.839 sec  ( 51.6%)
XC gradient                 ....       0.443 sec  ( 27.3%)
------------------------------------------------------------------------------
                         ORCA GEOMETRY RELAXATION STEP
------------------------------------------------------------------------------

Reading the OPT-File                    .... done
Getting information on internals        .... done
Copying old internal coords+grads       .... done
Making the new internal coordinates     .... (new redundants).... done
Validating the new internal coordinates .... (new redundants).... done
Calculating the B-matrix                .... done
Calculating the G,G- and P matrices     .... done
Transforming gradient to internals      .... done
Projecting the internal gradient        .... done
Number of atoms                         ....   6
Number of internal coordinates          ....  15
Current Energy                          ....  -115.738041609 Eh
Current gradient norm                   ....     0.002739261 Eh/bohr
Maximum allowed component of the step   ....  0.300
Current trust radius                    ....  0.300
Updating the Hessian (BFGS)             .... done
Forming the augmented Hessian           .... done
Diagonalizing the augmented Hessian     .... done
Last element of RFO vector              ....  0.999983055
Lowest eigenvalues of augmented Hessian:
 -0.000005219  0.021176326  0.148020341  0.192689253  0.313418522
Length of the computed step             ....  0.005821616
The final length of the internal step   ....  0.005821616
Converting the step to cartesian space:
 Initial RMS(Int)=    0.0015031348
Transforming coordinates:
 Iter   0:  RMS(Cart)=    0.0011270992 RMS(Int)=    1.6223090176
 Iter   1:  RMS(Cart)=    0.0000017465 RMS(Int)=    0.0000018117
 Iter   2:  RMS(Cart)=    0.0000000022 RMS(Int)=    0.0000000030
Imposing constraints:
 Iter   0:  RMS(Cart)=    0.0000000002 RMS(Int)=    0.0000000000
CONVERGED
done
Storing new coordinates                 .... done

                                .--------------------.
          ----------------------|Geometry convergence|-------------------------
          Item                value                   Tolerance       Converged
          ---------------------------------------------------------------------
          Energy change      -0.0000374229            0.0000050000      NO
          RMS gradient        0.0002365180            0.0001000000      NO
          MAX gradient        0.0004638977            0.0003000000      NO
          RMS step            0.0015031348            0.0020000000      YES
          MAX step            0.0025306513            0.0040000000      YES
          ........................................................
          Max(Bonds)      0.0007      Max(Angles)    0.14
          Max(Dihed)        0.14      Max(Improp)    0.00
          ---------------------------------------------------------------------

The optimization has not yet converged - more geometry cycles are needed


    ---------------------------------------------------------------------------
                         Redundant Internal Coordinates
                            (Angstroem and degrees)

        Definition                    Value    dE/dq     Step     New-Value
    ----------------------------------------------------------------------------
     1. B(O   1,C   0)                1.4120 -0.000071  0.0001    1.4121   
     2. B(H   2,O   1)                0.9578  0.000078 -0.0001    0.9577   
     3. B(H   3,C   0)                1.0957 -0.000148  0.0004    1.0961   
     4. B(H   4,C   0)                1.0901  0.000263 -0.0007    1.0894   
     5. B(H   5,C   0)                1.0957 -0.000147  0.0004    1.0961   
     6. A(O   1,C   0,H   4)          106.93 -0.000464    0.14    107.06   
     7. A(O   1,C   0,H   3)          112.28  0.000225   -0.07    112.22   
     8. A(O   1,C   0,H   5)          112.29  0.000225   -0.07    112.22   
     9. A(H   3,C   0,H   5)          109.01  0.000290   -0.14    108.87   
    10. A(H   4,C   0,H   5)          108.08 -0.000162    0.08    108.15   
    11. A(H   3,C   0,H   4)          108.08 -0.000162    0.08    108.15   
    12. A(C   0,O   1,H   2)          108.25 -0.001563    0.00    108.25 C 
    13. D(H   2,O   1,C   0,H   5)    -61.63 -0.000362    0.14    -61.48   
    14. D(H   2,O   1,C   0,H   3)     61.63  0.000362   -0.14     61.48   
    15. D(H   2,O   1,C   0,H   4)    180.00 -0.000000    0.00    180.00   
    ----------------------------------------------------------------------------

         *************************************************************
         *                GEOMETRY OPTIMIZATION CYCLE   3            *
         *************************************************************
---------------------------------
CARTESIAN COORDINATES (ANGSTROEM)
---------------------------------
  C      3.011822   -1.179832    0.597826
  O      4.395605   -1.128053    0.874507
  H      4.766457   -0.377226    0.409893
  H      2.807645   -1.318537   -0.470115
  H      2.610460   -2.038706    1.134498
  H      2.485771   -0.283390    0.945806

----------------------------
CARTESIAN COORDINATES (A.U.)
----------------------------
  NO LB      ZA    FRAG     MASS         X           Y           Z
   0 C     6.0000    0    12.011    5.691518   -2.229558    1.129727
   1 O     8.0000    0    15.999    8.306490   -2.131711    1.652578
   2 H     1.0000    0     1.008    9.007299   -0.712853    0.774586
   3 H     1.0000    0     1.008    5.305681   -2.491674   -0.888389
   4 H     1.0000    0     1.008    4.933054   -3.852596    2.143891
   5 H     1.0000    0     1.008    4.697426   -0.535529    1.787314

--------------------------------
INTERNAL COORDINATES (ANGSTROEM)
--------------------------------
 C      0   0   0     0.000000000000     0.00000000     0.00000000
 O      1   0   0     1.412122976386     0.00000000     0.00000000
 H      2   1   0     0.957673087574   108.24991662     0.00000000
 H      1   2   3     1.096095194778   112.21465527    61.48382291
 H      1   2   3     1.089391529665   107.06274683   180.00014961
 H      1   2   3     1.096096372820   112.21654822   298.51678744

---------------------------
INTERNAL COORDINATES (A.U.)
---------------------------
 C      0   0   0     0.000000000000     0.00000000     0.00000000
 O      1   0   0     2.668525692786     0.00000000     0.00000000
 H      2   1   0     1.809739861342   108.24991662     0.00000000
 H      1   2   3     2.071319734838   112.21465527    61.48382291
 H      1   2   3     2.058651643680   107.06274683   180.00014961
 H      1   2   3     2.071321961015   112.21654822   298.51678744



           ************************************************************
           *        Program running with 4 parallel MPI-processes     *
           *              working on a common directory               *
           ************************************************************


           ************************************************************
           *        Program running with 4 parallel MPI-processes     *
           *              working on a common directory               *
           ************************************************************

Diagonalization of the overlap matrix:
Smallest eigenvalue                        ... 1.649e-03
Time for diagonalization                   ...    0.002 sec
Threshold for overlap eigenvalues          ... 1.000e-08
Number of eigenvalues below threshold      ... 0
Time for construction of square roots      ...    0.003 sec
Total time needed                          ...    0.006 sec

-------------------
DFT GRID GENERATION
-------------------

General Integration Accuracy     IntAcc      ...  5.010
Radial Grid Type                 RadialGrid  ... Gauss-Chebyshev
Angular Grid (max. acc.)         AngularGrid ... Lebedev-434
Angular grid pruning method      GridPruning ... 3 (G Style)
Weight generation scheme         WeightScheme... Becke
Basis function cutoff            BFCut       ...    1.0000e-11
Integration weight cutoff        WCut        ...    1.0000e-14
Grids for H and He will be reduced by one unit

# of grid points (after initial pruning)     ...  48308 (   0.0 sec)
# of grid points (after weights+screening)   ...  46676 (   0.0 sec)
nearest neighbour list constructed           ...    0.0 sec
Grid point re-assignment to atoms done       ...    0.0 sec
Grid point division into batches done        ...    0.3 sec
Reduced shell lists constructed in    0.3 sec

Total number of grid points                  ...    46676
Total number of batches                      ...      733
Average number of points per batch           ...       63
Average number of grid points per atom       ...     7779
Average number of shells per batch           ...    33.11 (87.13%)
Average number of basis functions per batch  ...    76.73 (89.22%)
Average number of large shells per batch     ...    30.53 (92.21%)
Average number of large basis fcns per batch ...    72.05 (93.91%)
Maximum spatial batch extension              ...  15.76, 14.99, 16.57 au
Average spatial batch extension              ...   0.41,  0.40,  0.43 au

Time for grid setup =    0.413 sec

--------------
SCF ITERATIONS
--------------
ITER       Energy         Delta-E        Max-DP      RMS-DP      [F,P]     Damp
               ***  Starting incremental Fock matrix formation  ***
                      *** Initiating the SOSCF procedure ***
                      *** Re-Reading the Fockian *** 
                      *** Removing any level shift *** 
ITER      Energy       Delta-E        Grad      Rot      Max-DP    RMS-DP
  0   -115.73769789 -115.7376978914  0.000158  0.000158  0.000142  0.000011
               *** Restarting incremental Fock matrix formation ***
  1   -115.73769889  -0.0000009988  0.000056  0.000065  0.000081  0.000005
  2   -115.73769902  -0.0000001254  0.000019  0.000032  0.000035  0.000002
  3   -115.73769902  -0.0000000087  0.000014  0.000010  0.000016  0.000001
  4   -115.73769903  -0.0000000013  0.000007  0.000004  0.000005  0.000000
                 **** Energy Check signals convergence ****
              ***Rediagonalizing the Fockian in SOSCF/NRSCF***

               *****************************************************
               *                     SUCCESS                       *
               *           SCF CONVERGED AFTER   5 CYCLES          *
               *****************************************************

Setting up the final grid:

General Integration Accuracy     IntAcc      ...  5.340
Radial Grid Type                 RadialGrid  ... Gauss-Chebyshev
Angular Grid (max. acc.)         AngularGrid ... Lebedev-590
Angular grid pruning method      GridPruning ... 3 (G Style)
Weight generation scheme         WeightScheme... Becke
Basis function cutoff            BFCut       ...    1.0000e-11
Integration weight cutoff        WCut        ...    1.0000e-14
Grids for H and He will be reduced by one unit

# of grid points (after initial pruning)     ...  77324 (   0.0 sec)
# of grid points (after weights+screening)   ...  74513 (   0.0 sec)
nearest neighbour list constructed           ...    0.0 sec
Grid point re-assignment to atoms done       ...    0.0 sec
Grid point division into batches done        ...    0.8 sec
Reduced shell lists constructed in    0.9 sec

Total number of grid points                  ...    74513
Total number of batches                      ...     1167
Average number of points per batch           ...       63
Average number of grid points per atom       ...    12419
Average number of shells per batch           ...    32.89 (86.55%)
Average number of basis functions per batch  ...    76.29 (88.71%)
Average number of large shells per batch     ...    30.33 (92.23%)
Average number of large basis fcns per batch ...    71.48 (93.70%)
Maximum spatial batch extension              ...  13.20, 14.25, 15.48 au
Average spatial batch extension              ...   0.34,  0.36,  0.37 au

Final grid set up in    1.0 sec
Final integration                            ... done (   0.2 sec)
Change in XC energy                          ...    -0.000107481
Integrated number of electrons               ...    18.000000759
Previous integrated no of electrons          ...    18.000002285
Total Energy       :         -115.73780651 Eh           -3149.38583 eV
  Last Energy change         ...   -3.7625e-10  Tolerance :   1.0000e-08
  Last MAX-Density change    ...    9.9664e-07  Tolerance :   1.0000e-07
             **** THE GBW FILE WAS UPDATED (10_geo_opt.gbw) ****
             **** DENSITY FILE WAS UPDATED (10_geo_opt.scfp.tmp) ****
             **** ENERGY FILE WAS UPDATED (10_geo_opt.en.tmp) ****
Total SCF time: 0 days 0 hours 0 min 5 sec 


-------------------------------------------------------------------------------
                          DFT DISPERSION CORRECTION                            
                                                                               
                              DFTD3 V3.1  Rev 1                                
                              USING zero damping                               
-------------------------------------------------------------------------------
-------------------------   ----------------
Dispersion correction           -0.000238239
-------------------------   ----------------


-------------------------   --------------------
FINAL SINGLE POINT ENERGY      -115.738044746030
-------------------------   --------------------



           ************************************************************
           *        Program running with 4 parallel MPI-processes     *
           *              working on a common directory               *
           ************************************************************
------------------------------------------------------------------------------
                         ORCA SCF GRADIENT CALCULATION
------------------------------------------------------------------------------

Gradient of the Kohn-Sham DFT energy:
Kohn-Sham wavefunction type      ... RKS
Hartree-Fock exchange scaling    ...    0.196
Number of operators              ...    1
Number of atoms                  ...    6
Basis set dimensions             ...   86
Integral neglect threshold       ... 2.5e-11
Integral primitive cutoff        ... 2.5e-12

Nuclear repulsion gradient       ... done
One Electron Gradient            ... done
Pre-screening matrix             ... done
Starting the two electron gradient:
Two electron gradient done
Exchange-correlation gradient    ... done
Dispersion correction            ... done

------------------
CARTESIAN GRADIENT
------------------

   1   C   :    0.000045230    0.000565831   -0.000403826
   2   O   :    0.000697179   -0.000704689    0.000670194
   3   H   :   -0.000739757    0.000201710   -0.000315472
   4   H   :    0.000000388   -0.000147545   -0.000036696
   5   H   :    0.000035882    0.000101262   -0.000070235
   6   H   :   -0.000038922   -0.000016568    0.000156036

Difference to translation invariance:
           :    0.0000000000   -0.0000000000   -0.0000000000

Norm of the cartesian gradient     ...    0.0016340957
RMS gradient                       ...    0.0003851601
MAX gradient                       ...    0.0007397566

-------
TIMINGS
-------

Total SCF gradient time            ...        1.516 sec

One electron gradient       ....       0.005 sec  (  0.3%)
Prescreening matrices       ....       0.024 sec  (  1.6%)
Two electron gradient       ....       0.820 sec  ( 54.1%)
XC gradient                 ....       0.389 sec  ( 25.7%)
------------------------------------------------------------------------------
                         ORCA GEOMETRY RELAXATION STEP
------------------------------------------------------------------------------

Reading the OPT-File                    .... done
Getting information on internals        .... done
Copying old internal coords+grads       .... done
Making the new internal coordinates     .... (new redundants).... done
Validating the new internal coordinates .... (new redundants).... done
Calculating the B-matrix                .... done
Calculating the G,G- and P matrices     .... done
Transforming gradient to internals      .... done
Projecting the internal gradient        .... done
Number of atoms                         ....   6
Number of internal coordinates          ....  15
Current Energy                          ....  -115.738044746 Eh
Current gradient norm                   ....     0.001634096 Eh/bohr
Maximum allowed component of the step   ....  0.300
Current trust radius                    ....  0.300
Updating the Hessian (BFGS)             .... done
Forming the augmented Hessian           .... done
Diagonalizing the augmented Hessian     .... done
Last element of RFO vector              ....  0.999997739
Lowest eigenvalues of augmented Hessian:
 -0.000000544  0.021176309  0.106819764  0.192689266  0.313420893
Length of the computed step             ....  0.002126653
The final length of the internal step   ....  0.002126653
Converting the step to cartesian space:
 Initial RMS(Int)=    0.0005490995
Transforming coordinates:
 Iter   0:  RMS(Cart)=    0.0004724970 RMS(Int)=    0.0005491376
 Iter   1:  RMS(Cart)=    0.0000002114 RMS(Int)=    0.0000002508
 Iter   2:  RMS(Cart)=    0.0000000001 RMS(Int)=    0.0000000002
Imposing constraints:
 Iter   0:  RMS(Cart)=    0.0000000000 RMS(Int)=    0.0000000000
CONVERGED
done
Storing new coordinates                 .... done

                                .--------------------.
          ----------------------|Geometry convergence|-------------------------
          Item                value                   Tolerance       Converged
          ---------------------------------------------------------------------
          Energy change      -0.0000031369            0.0000050000      YES
          RMS gradient        0.0000742027            0.0001000000      YES
          MAX gradient        0.0001425102            0.0003000000      YES
          RMS step            0.0005490995            0.0020000000      YES
          MAX step            0.0011464175            0.0040000000      YES
          ........................................................
          Max(Bonds)      0.0001      Max(Angles)    0.07
          Max(Dihed)        0.06      Max(Improp)    0.00
          ---------------------------------------------------------------------

                    ***********************HURRAY********************
                    ***        THE OPTIMIZATION HAS CONVERGED     ***
                    *************************************************


    ---------------------------------------------------------------------------
                         Redundant Internal Coordinates

                          --- Optimized Parameters ---  
                            (Angstroem and degrees)

        Definition                    OldVal   dE/dq     Step     FinalVal
    ----------------------------------------------------------------------------
     1. B(O   1,C   0)                1.4121  0.000010  0.0000    1.4121   
     2. B(H   2,O   1)                0.9577  0.000024 -0.0000    0.9576   
     3. B(H   3,C   0)                1.0961  0.000055 -0.0000    1.0961   
     4. B(H   4,C   0)                1.0894 -0.000128  0.0001    1.0895   
     5. B(H   5,C   0)                1.0961  0.000055 -0.0000    1.0961   
     6. A(O   1,C   0,H   4)          107.06 -0.000050    0.03    107.10   
     7. A(O   1,C   0,H   3)          112.21  0.000023   -0.02    112.20   
     8. A(O   1,C   0,H   5)          112.22  0.000022   -0.02    112.20   
     9. A(H   3,C   0,H   5)          108.87  0.000143   -0.07    108.80   
    10. A(H   4,C   0,H   5)          108.15 -0.000075    0.04    108.19   
    11. A(H   3,C   0,H   4)          108.15 -0.000075    0.04    108.19   
    12. A(C   0,O   1,H   2)          108.25 -0.001499   -0.00    108.25 C 
    13. D(H   2,O   1,C   0,H   5)    -61.48 -0.000111    0.06    -61.43   
    14. D(H   2,O   1,C   0,H   3)     61.48  0.000111   -0.06     61.43   
    15. D(H   2,O   1,C   0,H   4)   -180.00  0.000000    0.00   -180.00   
    ----------------------------------------------------------------------------
                 *******************************************************
                 *** FINAL ENERGY EVALUATION AT THE STATIONARY POINT ***
                 ***               (AFTER    3 CYCLES)               ***
                 *******************************************************
---------------------------------
CARTESIAN COORDINATES (ANGSTROEM)
---------------------------------
  C      3.011837   -1.180176    0.598082
  O      4.395665   -1.128005    0.874483
  H      4.766208   -0.377127    0.409767
  H      2.807787   -1.318028   -0.469961
  H      2.610209   -2.039071    1.134708
  H      2.486054   -0.283336    0.945336

----------------------------
CARTESIAN COORDINATES (A.U.)
----------------------------
  NO LB      ZA    FRAG     MASS         X           Y           Z
   0 C     6.0000    0    12.011    5.691548   -2.230210    1.130211
   1 O     8.0000    0    15.999    8.306603   -2.131620    1.652534
   2 H     1.0000    0     1.008    9.006827   -0.712668    0.774347
   3 H     1.0000    0     1.008    5.305948   -2.490712   -0.888097
   4 H     1.0000    0     1.008    4.932581   -3.853285    2.144287
   5 H     1.0000    0     1.008    4.697962   -0.535427    1.786426

--------------------------------
INTERNAL COORDINATES (ANGSTROEM)
--------------------------------
 C      0   0   0     0.000000000000     0.00000000     0.00000000
 O      1   0   0     1.412125352091     0.00000000     0.00000000
 H      2   1   0     0.957643057492   108.24991662     0.00000000
 H      1   2   3     1.096063118139   112.19830458    61.42855715
 H      1   2   3     1.089482464559   107.09581841   180.00034247
 H      1   2   3     1.096064116411   112.20029251   298.57258643

---------------------------
INTERNAL COORDINATES (A.U.)
---------------------------
 C      0   0   0     0.000000000000     0.00000000     0.00000000
 O      1   0   0     2.668530182219     0.00000000     0.00000000
 H      2   1   0     1.809683112710   108.24991662     0.00000000
 H      1   2   3     2.071259118774   112.19830458    61.42855715
 H      1   2   3     2.058823485727   107.09581841   180.00034247
 H      1   2   3     2.071261005236   112.20029251   298.57258643

---------------------
BASIS SET INFORMATION
---------------------
There are 3 groups of distinct atoms

 Group   1 Type C   : 11s6p2d1f contracted to 5s3p2d1f pattern {62111/411/11/1}
 Group   2 Type O   : 11s6p2d1f contracted to 5s3p2d1f pattern {62111/411/11/1}
 Group   3 Type H   : 5s1p contracted to 3s1p pattern {311/1}

Atom   0C    basis set group =>   1
Atom   1O    basis set group =>   2
Atom   2H    basis set group =>   3
Atom   3H    basis set group =>   3
Atom   4H    basis set group =>   3
Atom   5H    basis set group =>   3


           ************************************************************
           *        Program running with 4 parallel MPI-processes     *
           *              working on a common directory               *
           ************************************************************
------------------------------------------------------------------------------
                           ORCA GTO INTEGRAL CALCULATION
------------------------------------------------------------------------------

                         BASIS SET STATISTICS AND STARTUP INFO

 # of primitive gaussian shells          ...   64
 # of primitive gaussian functions       ...  124
 # of contracted shells                  ...   38
 # of contracted basis functions         ...   86
 Highest angular momentum                ...    3
 Maximum contraction depth               ...    6
 Integral package used                   ... LIBINT
[...]
  0   -115.73769933 -115.7376993349  0.000050  0.000050  0.000046  0.000003
               *** Restarting incremental Fock matrix formation ***
  1   -115.73769942  -0.0000000864  0.000017  0.000018  0.000023  0.000002
  2   -115.73769943  -0.0000000093  0.000006  0.000009  0.000010  0.000001
  3   -115.73769943  -0.0000000006  0.000004  0.000003  0.000004  0.000000
                  ***Gradient check signals convergence***
              ***Rediagonalizing the Fockian in SOSCF/NRSCF***

               *****************************************************
               *                     SUCCESS                       *
               *           SCF CONVERGED AFTER   4 CYCLES          *
               *****************************************************

Setting up the final grid:

General Integration Accuracy     IntAcc      ...  5.340
Radial Grid Type                 RadialGrid  ... Gauss-Chebyshev
Angular Grid (max. acc.)         AngularGrid ... Lebedev-590
Angular grid pruning method      GridPruning ... 3 (G Style)
Weight generation scheme         WeightScheme... Becke
Basis function cutoff            BFCut       ...    1.0000e-11
Integration weight cutoff        WCut        ...    1.0000e-14
Grids for H and He will be reduced by one unit

# of grid points (after initial pruning)     ...  77324 (   0.0 sec)
# of grid points (after weights+screening)   ...  74511 (   0.0 sec)
nearest neighbour list constructed           ...    0.0 sec
Grid point re-assignment to atoms done       ...    0.0 sec
Grid point division into batches done        ...    0.7 sec
Reduced shell lists constructed in    0.8 sec

Total number of grid points                  ...    74511
Total number of batches                      ...     1167
Average number of points per batch           ...       63
Average number of grid points per atom       ...    12418
Average number of shells per batch           ...    32.87 (86.50%)
Average number of basis functions per batch  ...    76.17 (88.57%)
Average number of large shells per batch     ...    30.27 (92.10%)
Average number of large basis fcns per batch ...    71.37 (93.70%)
Maximum spatial batch extension              ...  13.18, 14.25, 15.48 au
Average spatial batch extension              ...   0.34,  0.36,  0.37 au

Final grid set up in    0.9 sec
Final integration                            ... done (   0.2 sec)
Change in XC energy                          ...    -0.000107508
Integrated number of electrons               ...    18.000000757
Previous integrated no of electrons          ...    18.000002288

----------------
TOTAL SCF ENERGY
----------------

Total Energy       :         -115.73780694 Eh           -3149.38584 eV

Components:
Nuclear Repulsion  :           40.43479105 Eh            1100.28660 eV
Electronic Energy  :         -156.17259799 Eh           -4249.67244 eV
One Electron Energy:         -237.28759960 Eh           -6456.92385 eV
Two Electron Energy:           81.11500161 Eh            2207.25141 eV

Virial components:
Potential Energy   :         -230.98841608 Eh           -6285.51435 eV
Kinetic Energy     :          115.25060914 Eh            3136.12851 eV
Virial Ratio       :            2.00422729


DFT components:
N(Alpha)           :        9.000000378675 electrons
N(Beta)            :        9.000000378675 electrons
N(Total)           :       18.000000757349 electrons
E(XC)              :      -10.655485792766 Eh       
DFET-embed. en.    :        0.000000000000 Eh       

---------------
SCF CONVERGENCE
---------------

  Last Energy change         ...   -1.7292e-10  Tolerance :   1.0000e-08
  Last MAX-Density change    ...    1.1075e-06  Tolerance :   1.0000e-07
  Last RMS-Density change    ...    7.8778e-08  Tolerance :   5.0000e-09
  Last Orbital Gradient      ...    1.4695e-06  Tolerance :   1.0000e-05
  Last Orbital Rotation      ...    1.0136e-06  Tolerance :   1.0000e-05

             **** THE GBW FILE WAS UPDATED (10_geo_opt.gbw) ****
             **** DENSITY FILE WAS UPDATED (10_geo_opt.scfp.tmp) ****
             **** ENERGY FILE WAS UPDATED (10_geo_opt.en.tmp) ****
----------------
ORBITAL ENERGIES
----------------

  NO   OCC          E(Eh)            E(eV) 
   0   2.0000     -19.228304      -523.2287 
   1   2.0000     -10.315135      -280.6891 
   2   2.0000      -1.136972       -30.9386 
   3   2.0000      -0.795132       -21.6366 
   4   2.0000      -0.611400       -16.6370 
   5   2.0000      -0.541872       -14.7451 
   6   2.0000      -0.526174       -14.3179 
   7   2.0000      -0.434385       -11.8202 
   8   2.0000      -0.373708       -10.1691 
   9   0.0000       0.116525         3.1708 
  10   0.0000       0.156724         4.2647 
  11   0.0000       0.202544         5.5115 
  12   0.0000       0.205006         5.5785 
  13   0.0000       0.226220         6.1558 
  14   0.0000       0.304598         8.2885 
  15   0.0000       0.313297         8.5252 
  16   0.0000       0.403965        10.9925 
  17   0.0000       0.452404        12.3106 
  18   0.0000       0.485525        13.2118 
  19   0.0000       0.535857        14.5814 
  20   0.0000       0.543297        14.7839 
  21   0.0000       0.567208        15.4345 
  22   0.0000       0.598488        16.2857 
  23   0.0000       0.603735        16.4285 
  24   0.0000       0.671268        18.2661 
  25   0.0000       0.778895        21.1948 
  26   0.0000       0.830413        22.5967 
  27   0.0000       0.860949        23.4276 
  28   0.0000       0.989377        26.9223 
  29   0.0000       1.014484        27.6055 
  30   0.0000       1.109538        30.1921 
  31   0.0000       1.381714        37.5984 
  32   0.0000       1.511439        41.1283 
  33   0.0000       1.553510        42.2731 
  34   0.0000       1.603115        43.6230 
  35   0.0000       1.613812        43.9140 
  36   0.0000       1.624143        44.1952 
  37   0.0000       1.660159        45.1752 
  38   0.0000       1.687597        45.9218 
  39   0.0000       1.776796        48.3491 
  40   0.0000       1.952625        53.1336 
  41   0.0000       2.031537        55.2809 
  42   0.0000       2.055174        55.9241 
  43   0.0000       2.093987        56.9803 
  44   0.0000       2.113875        57.5215 
  45   0.0000       2.267346        61.6976 
  46   0.0000       2.332805        63.4788 
  47   0.0000       2.346805        63.8598 
  48   0.0000       2.380600        64.7794 
  49   0.0000       2.429478        66.1095 
  50   0.0000       2.497966        67.9731 
  51   0.0000       2.595807        70.6355 
  52   0.0000       2.639783        71.8321 
  53   0.0000       2.708178        73.6933 
  54   0.0000       2.841227        77.3137 
  55   0.0000       2.870590        78.1127 
  56   0.0000       2.887729        78.5791 
  57   0.0000       2.991813        81.4114 
  58   0.0000       3.096159        84.2508 
  59   0.0000       3.172778        86.3357 
  60   0.0000       3.299419        89.7818 
  61   0.0000       3.408209        92.7421 
  62   0.0000       3.438257        93.5597 
  63   0.0000       3.487355        94.8957 
  64   0.0000       3.612364        98.2974 
  65   0.0000       3.645229        99.1917 
  66   0.0000       3.666098        99.7596 
  67   0.0000       4.006590       109.0248 
  68   0.0000       4.223588       114.9297 
  69   0.0000       4.273795       116.2959 
  70   0.0000       4.455954       121.2527 
  71   0.0000       4.563042       124.1667 
  72   0.0000       5.347344       145.5086 
  73   0.0000       5.428770       147.7243 
  74   0.0000       5.552520       151.0918 
  75   0.0000       5.825018       158.5068 
  76   0.0000       5.828554       158.6030 
  77   0.0000       5.987577       162.9302 
  78   0.0000       6.377464       173.5396 
  79   0.0000       6.531224       177.7236 
  80   0.0000       6.747104       183.5980 
  81   0.0000       6.803408       185.1302 
  82   0.0000       7.038837       191.5365 
  83   0.0000       7.214881       196.3269 
  84   0.0000      22.404853       609.6670 
  85   0.0000      43.662893      1188.1277 

                    ********************************
                    * MULLIKEN POPULATION ANALYSIS *
                    ********************************

-----------------------
MULLIKEN ATOMIC CHARGES
-----------------------
   0 C :   -0.152039
   1 O :   -0.476656
   2 H :    0.312880
   3 H :    0.098813
   4 H :    0.118185
   5 H :    0.098816
Sum of atomic charges:   -0.0000000

--------------------------------
MULLIKEN REDUCED ORBITAL CHARGES
--------------------------------
  0 C s       :     3.223444  s :     3.223444
      pz      :     1.047293  p :     2.827002
      px      :     0.702746
      py      :     1.076963
      dz2     :     0.011133  d :     0.094187
      dxz     :     0.032470
      dyz     :     0.002628
      dx2y2   :     0.012716
      dxy     :     0.035241
      f0      :     0.001355  f :     0.007406
      f+1     :     0.000955
      f-1     :     0.000174
      f+2     :     0.001459
      f-2     :     0.000123
      f+3     :     0.001359
      f-3     :     0.001982
  1 O s       :     3.793877  s :     3.793877
      pz      :     1.758183  p :     4.650436
      px      :     1.314254
      py      :     1.578000
      dz2     :     0.003144  d :     0.030665
      dxz     :     0.006462
      dyz     :     0.005901
      dx2y2   :     0.009030
      dxy     :     0.006128
      f0      :     0.000269  f :     0.001678
      f+1     :     0.000232
      f-1     :     0.000088
      f+2     :     0.000293
      f-2     :     0.000230
      f+3     :     0.000361
      f-3     :     0.000204
  2 H s       :     0.639466  s :     0.639466
      pz      :     0.017022  p :     0.047654
      px      :     0.012650
      py      :     0.017981
  3 H s       :     0.881827  s :     0.881827
      pz      :     0.012072  p :     0.019361
      px      :     0.003003
      py      :     0.004286
  4 H s       :     0.861589  s :     0.861589
      pz      :     0.006293  p :     0.020226
      px      :     0.004210
      py      :     0.009723
  5 H s       :     0.881824  s :     0.881824
      pz      :     0.004930  p :     0.019360
      px      :     0.004969
      py      :     0.009461


                     *******************************
                     * LOEWDIN POPULATION ANALYSIS *
                     *******************************

----------------------
LOEWDIN ATOMIC CHARGES
----------------------
   0 C :   -0.385131
   1 O :   -0.076391
   2 H :    0.166061
   3 H :    0.093437
   4 H :    0.108589
   5 H :    0.093435

-------------------------------
LOEWDIN REDUCED ORBITAL CHARGES
-------------------------------
  0 C s       :     2.863070  s :     2.863070
      pz      :     1.096626  p :     3.052431
      px      :     0.846079
      py      :     1.109726
      dz2     :     0.072493  d :     0.412704
      dxz     :     0.113884
      dyz     :     0.020640
      dx2y2   :     0.082027
      dxy     :     0.123660
      f0      :     0.007812  f :     0.056926
      f+1     :     0.007151
      f-1     :     0.000853
      f+2     :     0.012500
      f-2     :     0.004831
      f+3     :     0.011714
      f-3     :     0.012064
  1 O s       :     3.367484  s :     3.367484
      pz      :     1.698317  p :     4.632726
      px      :     1.382257
      py      :     1.552153
      dz2     :     0.006124  d :     0.071526
      dxz     :     0.017786
      dyz     :     0.008206
      dx2y2   :     0.019475
      dxy     :     0.019935
      f0      :     0.000483  f :     0.004654
      f+1     :     0.000622
      f-1     :     0.000074
      f+2     :     0.001067
      f-2     :     0.000550
      f+3     :     0.000886
      f-3     :     0.000971
  2 H s       :     0.674983  s :     0.674983
      pz      :     0.055831  p :     0.158956
      px      :     0.033695
      py      :     0.069430
  3 H s       :     0.846727  s :     0.846727
      pz      :     0.036189  p :     0.059836
      px      :     0.009716
      py      :     0.013931
  4 H s       :     0.831793  s :     0.831793
      pz      :     0.019195  p :     0.059618
      px      :     0.011659
      py      :     0.028764
  5 H s       :     0.846729  s :     0.846729
      pz      :     0.015605  p :     0.059836
      px      :     0.015199
      py      :     0.029032


                      *****************************
                      * MAYER POPULATION ANALYSIS *
                      *****************************

  NA   - Mulliken gross atomic population
  ZA   - Total nuclear charge
  QA   - Mulliken gross atomic charge
  VA   - Mayer's total valence
  BVA  - Mayer's bonded valence
  FA   - Mayer's free valence

  ATOM       NA         ZA         QA         VA         BVA        FA
  0 C      6.1520     6.0000    -0.1520     3.9350     3.9350    -0.0000
  1 O      8.4767     8.0000    -0.4767     1.8887     1.8887     0.0000
  2 H      0.6871     1.0000     0.3129     0.9136     0.9136    -0.0000
  3 H      0.9012     1.0000     0.0988     0.9596     0.9596     0.0000
  4 H      0.8818     1.0000     0.1182     0.9599     0.9599    -0.0000
  5 H      0.9012     1.0000     0.0988     0.9596     0.9596     0.0000

  Mayer bond orders larger than 0.1
B(  0-C ,  1-O ) :   0.9988 B(  0-C ,  3-H ) :   0.9755 B(  0-C ,  4-H ) :   0.9750 
B(  0-C ,  5-H ) :   0.9755 B(  1-O ,  2-H ) :   0.9006 

-------
TIMINGS
-------

Total SCF time: 0 days 0 hours 0 min 4 sec 

Total time                  ....       4.919 sec
Sum of individual times     ....       4.571 sec  ( 92.9%)

Fock matrix formation       ....       3.263 sec  ( 66.3%)
  XC integration            ....       1.007 sec  ( 30.9% of F)
    Basis function eval.    ....       0.199 sec  ( 19.8% of XC)
    Density eval.           ....       0.119 sec  ( 11.8% of XC)
    XC-Functional eval.     ....       0.313 sec  ( 31.1% of XC)
    XC-Potential eval.      ....       0.113 sec  ( 11.3% of XC)
Diagonalization             ....       0.003 sec  (  0.1%)
Density matrix formation    ....       0.002 sec  (  0.0%)
Population analysis         ....       0.011 sec  (  0.2%)
Initial guess               ....       0.005 sec  (  0.1%)
Orbital Transformation      ....       0.000 sec  (  0.0%)
Orbital Orthonormalization  ....       0.002 sec  (  0.0%)
DIIS solution               ....       0.000 sec  (  0.0%)
SOSCF solution              ....       0.008 sec  (  0.2%)
Grid generation             ....       1.280 sec  ( 26.0%)


-------------------------------------------------------------------------------
                          DFT DISPERSION CORRECTION                            
                                                                               
                              DFTD3 V3.1  Rev 1                                
                              USING zero damping                               
-------------------------------------------------------------------------------
The omegaB97X-D3 functional is recognized. Fit by Chai et al.
Active option DFTDOPT                   ...         3   

molecular C6(AA) [au] = 208.713115 


            DFT-D V3
 parameters
 s6 scaling factor         :     1.0000 
 rs6 scaling factor        :     1.2810 
 s8 scaling factor         :     1.0000 
 rs8 scaling factor        :     1.0940 
 Damping factor alpha6     :    14.0000 
 Damping factor alpha8     :    16.0000 
 ad hoc parameters k1-k3   :    16.0000     1.3333    -4.0000 

 Edisp/kcal,au: -0.149424272463  -0.000238122710 
 E6   /kcal   :  -0.029381374 
 E8   /kcal   :  -0.120042898 
 % E8         :  80.336946688 

-------------------------   ----------------
Dispersion correction           -0.000238123
-------------------------   ----------------


-------------------------   --------------------
FINAL SINGLE POINT ENERGY      -115.738045062218
-------------------------   --------------------

                                *** OPTIMIZATION RUN DONE ***

                            ***************************************
                            *     ORCA property calculations      *
                            ***************************************

                                    ---------------------
                                    Active property flags
                                    ---------------------
   (+) Dipole Moment


------------------------------------------------------------------------------
                       ORCA ELECTRIC PROPERTIES CALCULATION
------------------------------------------------------------------------------

Dipole Moment Calculation                       ... on
Quadrupole Moment Calculation                   ... off
Polarizability Calculation                      ... off
GBWName                                         ... 10_geo_opt.gbw
Electron density file                           ... 10_geo_opt.scfp.tmp
The origin for moment calculation is the CENTER OF MASS  = ( 7.034311, -2.139182  1.368871)

-------------
DIPOLE MOMENT
-------------
                                X             Y             Z
Electronic contribution:      1.75801      -0.03108       0.42234
Nuclear contribution   :     -2.07217       0.47896      -0.82117
                        -----------------------------------------
Total Dipole Moment    :     -0.31416       0.44788      -0.39884
                        -----------------------------------------
Magnitude (a.u.)       :      0.67702
Magnitude (Debye)      :      1.72086



--------------------
Rotational spectrum 
--------------------
 
Rotational constants in cm-1:     4.287301     0.833866     0.804828 
Rotational constants in MHz : 128530.047784 24998.682627 24128.127593 

 Dipole components along the rotational axes: 
x,y,z [a.u.] :    -0.337796     0.586732    -0.000005 
x,y,z [Debye]:    -0.858610     1.491355    -0.000014 

 
------------------------------------------------------------------------------
                      ORCA CHELPG CHARGES GENERATION
------------------------------------------------------------------------------

GBW file                           ... 10_geo_opt.gbw

Reading the GBW file               ... done

Grid spacing                       ...     0.300000
Point Cut-Off                      ...     2.800000
Van-der-Waals Radii                ...        COSMO
Total charge                       ...            0


Number of points X direction       ...           26
Number of points Y direction       ...           24
Number of points Z direction       ...           24
Maximum number of possible points  ...        14976
Final number of points             ...         5937


CHELPG Charges            
--------------------------------
  0   C   :       0.093152
  1   O   :      -0.605172
  2   H   :       0.402927
  3   H   :       0.014272
  4   H   :       0.080998
  5   H   :       0.013823
--------------------------------
Total charge:     0.000000
--------------------------------

CHELPG charges calculated...

Timings for individual parts in CHELPG calculation:
Grid generation                 ...        0.001 sec (=   0.000 min)
Potential calculation           ...        0.577 sec (=   0.010 min)
Fit to the potential            ...        0.001 sec (=   0.000 min)
------------------------------------------------------------------------------


Timings for individual modules:

Sum of individual times         ...       48.316 sec (=   0.805 min)
GTO integral calculation        ...        8.610 sec (=   0.144 min)  17.8 %
SCF iterations                  ...       29.465 sec (=   0.491 min)  61.0 %
SCF Gradient evaluation         ...        6.440 sec (=   0.107 min)  13.3 %
Geometry relaxation             ...        3.185 sec (=   0.053 min)   6.6 %
CHELPG charge generation        ...        0.616 sec (=   0.010 min)   1.3 %
                             ****ORCA TERMINATED NORMALLY****
TOTAL RUN TIME: 0 days 0 hours 0 minutes 49 seconds 963 msec
