
                                 *****************
                                 * O   R   C   A *
                                 *****************

           --- An Ab Initio, DFT and Semiempirical electronic structure package ---

                  #######################################################
                  #                        -***-                        #
                  #          Department of theory and spectroscopy      #
                  #               Directorship: Frank Neese             #
                  #        Max Planck Institute fuer Kohlenforschung    #
                  #                Kaiser Wilhelm Platz 1               #
                  #                 D-45470 Muelheim/Ruhr               #
                  #                      Germany                        #
                  #                                                     #
                  #                  All rights reserved                #
                  #                        -***-                        #
                  #######################################################


                         Program Version 4.1.2  - RELEASE  -


 With contributions from (in alphabetic order):
   Daniel Aravena         : Magnetic Properties
   Michael Atanasov       : Ab Initio Ligand Field Theory
   Alexander A. Auer      : GIAO ZORA
   Ute Becker             : Parallelization
   Giovanni Bistoni       : ED, Open-shell LED
   Martin Brehm           : Molecular dynamics
   Dmytro Bykov           : SCF Hessian
   Vijay G. Chilkuri      : MRCI spin determinant printing
   Dipayan Datta          : RHF DLPNO-CCSD density
   Achintya Kumar Dutta   : EOM-CC, STEOM-CC
   Dmitry Ganyushin       : Spin-Orbit,Spin-Spin,Magnetic field MRCI
   Miquel Garcia          : C-PCM Hessian
   Yang Guo               : DLPNO-NEVPT2, CIM, IAO-localization
   Andreas Hansen         : Spin unrestricted coupled pair/coupled cluster methods
   Benjamin Helmich-Paris : CASSCF linear response (MC-RPA)
   Lee Huntington         : MR-EOM, pCC
   Robert Izsak           : Overlap fitted RIJCOSX, COSX-SCS-MP3, EOM
   Christian Kollmar      : KDIIS, OOCD, Brueckner-CCSD(T), CCSD density
   Simone Kossmann        : Meta GGA functionals, TD-DFT gradient, OOMP2, MP2 Hessian
   Martin Krupicka        : AUTO-CI
   Lucas Lang             : DCDCAS
   Dagmar Lenk            : GEPOL surface, SMD
   Dimitrios Liakos       : Extrapolation schemes; parallel MDCI
   Dimitrios Manganas     : ROCIS; embedding schemes
   Dimitrios Pantazis     : SARC Basis sets
   Taras Petrenko         : DFT Hessian,TD-DFT gradient, ASA, ECA, R-Raman, ABS, FL, XAS/XES, NRVS
   Peter Pinski           : DLPNO-MP2, DLPNO-MP2 Gradient
   Christoph Reimann      : Effective Core Potentials
   Marius Retegan         : Local ZFS, SOC
   Christoph Riplinger    : Optimizer, TS searches, QM/MM, DLPNO-CCSD(T), (RO)-DLPNO pert. Triples
   Tobias Risthaus        : Range-separated hybrids, TD-DFT gradient, RPA, STAB
   Michael Roemelt        : Restricted open shell CIS
   Masaaki Saitow         : Open-shell DLPNO
   Barbara Sandhoefer     : DKH picture change effects
   Avijit Sen             : IP-ROCIS
   Kantharuban Sivalingam : CASSCF convergence, NEVPT2, FIC-MRCI
   Bernardo de Souza      : ESD, SOC TD-DFT
   Georgi Stoychev        : AutoAux, RI-MP2 NMR
   Willem Van den Heuvel  : Paramagnetic NMR
   Boris Wezisla          : Elementary symmetry handling
   Frank Wennmohs         : Technical directorship


 We gratefully acknowledge several colleagues who have allowed us to
 interface, adapt or use parts of their codes:
   Stefan Grimme, W. Hujo, H. Kruse,             : VdW corrections, initial TS optimization,
                  C. Bannwarth                     DFT functionals, gCP, sTDA/sTD-DF
   Ed Valeev                                     : LibInt (2-el integral package), F12 methods
   Garnet Chan, S. Sharma, J. Yang, R. Olivares  : DMRG
   Ulf Ekstrom                                   : XCFun DFT Library
   Mihaly Kallay                                 : mrcc  (arbitrary order and MRCC methods)
   Andreas Klamt, Michael Diedenhofen            : otool_cosmo (COSMO solvation model)
   Jiri Pittner, Ondrej Demel                    : Mk-CCSD
   Frank Weinhold                                : gennbo (NPA and NBO analysis)
   Christopher J. Cramer and Donald G. Truhlar   : smd solvation model
   Lars Goerigk                                  : TD-DFT with DH, B97 family of functionals
   V. Asgeirsson, H. Jonsson                     : NEB implementation
   FAccTs GmbH                                   : IRC, NEB, NEB-TS, Multilevel


 Your calculation uses the libint2 library for the computation of 2-el integrals
 For citations please refer to: http://libint.valeyev.net

 This ORCA versions uses:
   CBLAS   interface :  Fast vector & matrix operations
   LAPACKE interface :  Fast linear algebra routines
   SCALAPACK package :  Parallel linear algebra routines


Your calculation utilizes the atom-pairwise dispersion correction
with the zero-damping scheme (D30)
Cite in your paper:
S.Grimme, J.Antony, S.Ehrlich and H.Krieg, J.Chem.Phys., 132, (2010), 154104 
   

XCFun DFT library Copyright 2009-2010 Ulf Ekstrom and contributors.
See http://admol.org/xcfun for more information. This is free soft-
ware; see the source code for copying conditions. There is ABSOLUTELY
NO WARRANTY; not even for MERCHANTABILITY or FITNESS FOR A PARTICULAR
PURPOSE. For details see the documentation. Scientific users of this 
library should cite U. Ekstrom, L. Visscher, R. Bast, A. J. Thorvald-
sen and K. Ruud; J.Chem.Theor.Comp. 2010, DOI: 10.1021/ct100117s
XCFun Version 0.99 
----- Orbital basis set information -----
Your calculation utilizes the basis: def2-TZVP
   F. Weigend and R. Ahlrichs, Phys. Chem. Chem. Phys. 7, 3297 (2005).

================================================================================
                                        WARNINGS
                       Please study these warnings very carefully!
================================================================================


INFO   : the flag for use of LIBINT has been found!

================================================================================
                                       INPUT FILE
================================================================================
NAME = 54.in
|  1> #Run DFT-D3 single point of the dimer
|  2> ! wB97X-D3 def2-TZVP TIGHTSCF  CHELPG PAL8
|  3> 
|  4> %base "54_charges"
|  5> 
|  6> %scf
|  7> MaxIter 1000
|  8> end
|  9> %output
| 10>   Print[ P_Mayer ] 1
| 11>   Print[ P_NatPop ] 1
| 12>   Print[ P_Hirshfeld ] 1
| 13>   Print[ P_Mulliken ] 1
| 14>   Print [ P_Loewdin ] 1
| 15> end
| 16> 
| 17> * xyz 0 1
| 18>   C                      1.217627             4.527298             5.335568            
| 19>   O                      1.813239             3.554406             6.163367            
| 20>   H                      1.508848             3.716373             7.056617            
| 21>   H                      0.242277             4.765575             5.619763            
| 22>   H                      1.884101             5.391251             5.213598            
| 23>   H                      1.047946             4.133085             4.308583            
| 24> *
| 25> 
| 26>                          ****END OF INPUT****
================================================================================

                       ****************************
                       * Single Point Calculation *
                       ****************************

---------------------------------
CARTESIAN COORDINATES (ANGSTROEM)
---------------------------------
  C      1.217627    4.527298    5.335568
  O      1.813239    3.554406    6.163367
  H      1.508848    3.716373    7.056617
  H      0.242277    4.765575    5.619763
  H      1.884101    5.391251    5.213598
  H      1.047946    4.133085    4.308583

----------------------------
CARTESIAN COORDINATES (A.U.)
----------------------------
  NO LB      ZA    FRAG     MASS         X           Y           Z
   0 C     6.0000    0    12.011    2.300982    8.555353   10.082762
   1 O     8.0000    0    15.999    3.426525    6.716854   11.647076
   2 H     1.0000    0     1.008    2.851309    7.022927   13.335074
   3 H     1.0000    0     1.008    0.457837    9.005632   10.619813
   4 H     1.0000    0     1.008    3.560435   10.187988    9.852272
   5 H     1.0000    0     1.008    1.980331    7.810399    8.142042

--------------------------------
INTERNAL COORDINATES (ANGSTROEM)
--------------------------------
 C      0   0   0     0.000000000000     0.00000000     0.00000000
 O      1   0   0     1.409440911358     0.00000000     0.00000000
 H      2   1   0     0.957487729671   107.26629981     0.00000000
 H      1   2   3     1.043479922784   113.12000407   323.54662870
 H      1   2   3     1.097943104075   110.60275671    93.78843010
 H      1   2   3     1.113056027950   111.21420909   210.78148414

---------------------------
INTERNAL COORDINATES (A.U.)
---------------------------
 C      0   0   0     0.000000000000     0.00000000     0.00000000
 O      1   0   0     2.663457324411     0.00000000     0.00000000
 H      2   1   0     1.809389585668   107.26629981     0.00000000
 H      1   2   3     1.971891280308   113.12000407   323.54662870
 H      1   2   3     2.074811777328   110.60275671    93.78843010
 H      1   2   3     2.103371064535   111.21420909   210.78148414

---------------------
BASIS SET INFORMATION
---------------------
There are 3 groups of distinct atoms

 Group   1 Type C   : 11s6p2d1f contracted to 5s3p2d1f pattern {62111/411/11/1}
 Group   2 Type O   : 11s6p2d1f contracted to 5s3p2d1f pattern {62111/411/11/1}
 Group   3 Type H   : 5s1p contracted to 3s1p pattern {311/1}

Atom   0C    basis set group =>   1
Atom   1O    basis set group =>   2
Atom   2H    basis set group =>   3
Atom   3H    basis set group =>   3
Atom   4H    basis set group =>   3
Atom   5H    basis set group =>   3


           ************************************************************
           *        Program running with 8 parallel MPI-processes     *
           *              working on a common directory               *
           ************************************************************
------------------------------------------------------------------------------
                           ORCA GTO INTEGRAL CALCULATION
------------------------------------------------------------------------------

                         BASIS SET STATISTICS AND STARTUP INFO

 # of primitive gaussian shells          ...   64
 # of primitive gaussian functions       ...  124
 # of contracted shells                  ...   38
 # of contracted basis functions         ...   86
 Highest angular momentum                ...    3
 Maximum contraction depth               ...    6
 Integral package used                   ... LIBINT
 Integral threshhold            Thresh   ...  2.500e-11
 Primitive cut-off              TCut     ...  2.500e-12


------------------------------ INTEGRAL EVALUATION ----------------------------


 * One electron integrals 
 Pre-screening matrix                    ... done
 Shell pair data                         ... done (   0.000 sec)



           ************************************************************
           *        Program running with 8 parallel MPI-processes     *
           *              working on a common directory               *
           ************************************************************
-------------------------------------------------------------------------------
                                 ORCA SCF
-------------------------------------------------------------------------------

------------
SCF SETTINGS
------------
Hamiltonian:
 Density Functional     Method          .... DFT(GTOs)
 Exchange Functional    Exchange        .... WB97X-D3
 Correlation Functional Correlation     .... WB97X-D3
 Gradients option       PostSCFGGA      .... off
 Hybrid DFT is turned on
   Fraction HF Exchange ScalHFX         ....  0.195728
   Scaling of DF-GGA-X  ScalDFX         ....  0.000000
   Scaling of DF-GGA-C  ScalDFC         ....  1.000000
   Scaling of DF-LDA-C  ScalLDAC        ....  1.000000
   Perturbative correction              ....  0.000000
   Density functional embedding theory  .... OFF
 Long-range corrected/Screened/Range-Separated Hybrid DFT is turned on
   Amount of maximum screened exact exchange              ....  0.804272
   Range separation parameter mu (erf(mu*r12)/r12)        ....  0.250000


General Settings:
 Integral files         IntName         .... 54_charges
 Hartree-Fock type      HFTyp           .... RHF
 Total Charge           Charge          ....    0
 Multiplicity           Mult            ....    1
 Number of Electrons    NEL             ....   18
 Basis Dimension        Dim             ....   86
 Nuclear Repulsion      ENuc            ....     40.5636830434 Eh

Convergence Acceleration:
 DIIS                   CNVDIIS         .... on
   Start iteration      DIISMaxIt       ....    12
   Startup error        DIISStart       ....  0.200000
   # of expansion vecs  DIISMaxEq       ....     5
   Bias factor          DIISBfac        ....   1.050
   Max. coefficient     DIISMaxC        ....  10.000
 Newton-Raphson         CNVNR           .... off
 SOSCF                  CNVSOSCF        .... on
   Start iteration      SOSCFMaxIt      ....   150
   Startup grad/error   SOSCFStart      ....  0.003300
 Level Shifting         CNVShift        .... on
   Level shift para.    LevelShift      ....    0.2500
   Turn off err/grad.   ShiftErr        ....    0.0010
 Zerner damping         CNVZerner       .... off
 Static damping         CNVDamp         .... on
   Fraction old density DampFac         ....    0.7000
   Max. Damping (<1)    DampMax         ....    0.9800
   Min. Damping (>=0)   DampMin         ....    0.0000
   Turn off err/grad.   DampErr         ....    0.1000
 Fernandez-Rico         CNVRico         .... off

SCF Procedure:
 Maximum # iterations   MaxIter         ....  1000
 SCF integral mode      SCFMode         .... Direct
   Integral package                     .... LIBINT
 Reset frequency        DirectResetFreq ....    20
 Integral Threshold     Thresh          ....  2.500e-11 Eh
 Primitive CutOff       TCut            ....  2.500e-12 Eh

Convergence Tolerance:
 Convergence Check Mode ConvCheckMode   .... Total+1el-Energy
 Convergence forced     ConvForced      .... 0
 Energy Change          TolE            ....  1.000e-08 Eh
 1-El. energy change                    ....  1.000e-05 Eh
 Orbital Gradient       TolG            ....  1.000e-05
 Orbital Rotation angle TolX            ....  1.000e-05
 DIIS Error             TolErr          ....  5.000e-07


Diagonalization of the overlap matrix:
Smallest eigenvalue                        ... 1.615e-03
Time for diagonalization                   ...    0.032 sec
Threshold for overlap eigenvalues          ... 1.000e-08
Number of eigenvalues below threshold      ... 0
Time for construction of square roots      ...    0.008 sec
Total time needed                          ...    0.040 sec

-------------------
DFT GRID GENERATION
-------------------

General Integration Accuracy     IntAcc      ...  4.340
Radial Grid Type                 RadialGrid  ... Gauss-Chebyshev
Angular Grid (max. acc.)         AngularGrid ... Lebedev-110
Angular grid pruning method      GridPruning ... 3 (G Style)
Weight generation scheme         WeightScheme... Becke
Basis function cutoff            BFCut       ...    1.0000e-11
Integration weight cutoff        WCut        ...    1.0000e-14
Grids for H and He will be reduced by one unit

# of grid points (after initial pruning)     ...   6548 (   0.0 sec)
# of grid points (after weights+screening)   ...   6379 (   0.0 sec)
nearest neighbour list constructed           ...    0.0 sec
Grid point re-assignment to atoms done       ...    0.0 sec
Grid point division into batches done        ...    0.0 sec
Reduced shell lists constructed in    0.0 sec

Total number of grid points                  ...     6379
Total number of batches                      ...      103
Average number of points per batch           ...       61
Average number of grid points per atom       ...     1063
Average number of shells per batch           ...    31.29 (82.33%)
Average number of basis functions per batch  ...    71.29 (82.89%)
Average number of large shells per batch     ...    30.00 (95.89%)
Average number of large basis fcns per batch ...    68.43 (95.99%)
Maximum spatial batch extension              ...  15.26, 15.27, 13.72 au
Average spatial batch extension              ...   0.43,  0.43,  0.41 au

Time for grid setup =    0.032 sec

------------------------------
INITIAL GUESS: MODEL POTENTIAL
------------------------------
Loading Hartree-Fock densities                     ... done
Calculating cut-offs                               ... done
Setting up the integral package                    ... done
Initializing the effective Hamiltonian             ... done
Starting the Coulomb interaction                   ... done (   0.0 sec)
Reading the grid                                   ... done
Mapping shells                                     ... done
Starting the XC term evaluation                    ... done (   0.0 sec)
  promolecular density results
     # of electrons  =     17.999045584
     EX              =    -14.436256623
     EC              =     -0.575892698
     EX+EC           =    -15.012149321
Transforming the Hamiltonian                       ... done (   0.0 sec)
Diagonalizing the Hamiltonian                      ... done (   0.0 sec)
Back transforming the eigenvectors                 ... done (   0.0 sec)
Now organizing SCF variables                       ... done
                      ------------------
                      INITIAL GUESS DONE (   0.2 sec)
                      ------------------
--------------
SCF ITERATIONS
--------------
ITER       Energy         Delta-E        Max-DP      RMS-DP      [F,P]     Damp
               ***  Starting incremental Fock matrix formation  ***
  0   -115.6452583522   0.000000000000 0.03519649  0.00148752  0.2327847 0.7000
  1   -115.6824665060  -0.037208153787 0.02026271  0.00105760  0.1168694 0.7000
                               ***Turning on DIIS***
  2   -115.6997243905  -0.017257884494 0.02943378  0.00192082  0.0499665 0.0000
  3   -115.7278176924  -0.028093301837 0.01723543  0.00069510  0.0587632 0.0000
  4   -115.7323379538  -0.004520261441 0.00406134  0.00013380  0.0061291 0.0000
                      *** Initiating the SOSCF procedure ***
                           *** Shutting down DIIS ***
                      *** Re-Reading the Fockian *** 
                      *** Removing any level shift *** 
ITER      Energy       Delta-E        Grad      Rot      Max-DP    RMS-DP
  5   -115.73243087  -0.0000929123  0.000459  0.000459  0.000734  0.000045
               *** Restarting incremental Fock matrix formation ***
  6   -115.73243919  -0.0000083253  0.000145  0.000170  0.000411  0.000027
  7   -115.73243994  -0.0000007469  0.000047  0.000094  0.000186  0.000012
  8   -115.73244000  -0.0000000571  0.000023  0.000018  0.000034  0.000001
  9   -115.73244001  -0.0000000100  0.000011  0.000008  0.000017  0.000001
 10   -115.73244001  -0.0000000016  0.000003  0.000003  0.000003  0.000000
                  ***Gradient check signals convergence***
              ***Rediagonalizing the Fockian in SOSCF/NRSCF***

               *****************************************************
               *                     SUCCESS                       *
               *           SCF CONVERGED AFTER  11 CYCLES          *
               *****************************************************

Setting up the final grid:

General Integration Accuracy     IntAcc      ...  4.670
Radial Grid Type                 RadialGrid  ... Gauss-Chebyshev
Angular Grid (max. acc.)         AngularGrid ... Lebedev-302
Angular grid pruning method      GridPruning ... 3 (G Style)
Weight generation scheme         WeightScheme... Becke
Basis function cutoff            BFCut       ...    1.0000e-11
Integration weight cutoff        WCut        ...    1.0000e-14
Grids for H and He will be reduced by one unit

# of grid points (after initial pruning)     ...  26000 (   0.0 sec)
# of grid points (after weights+screening)   ...  25205 (   0.3 sec)
nearest neighbour list constructed           ...    0.0 sec
Grid point re-assignment to atoms done       ...    0.0 sec
Grid point division into batches done        ...    0.2 sec
Reduced shell lists constructed in    0.2 sec

Total number of grid points                  ...    25205
Total number of batches                      ...      396
Average number of points per batch           ...       63
Average number of grid points per atom       ...     4201
Average number of shells per batch           ...    31.20 (82.09%)
Average number of basis functions per batch  ...    71.31 (82.92%)
Average number of large shells per batch     ...    29.76 (95.41%)
Average number of large basis fcns per batch ...    68.59 (96.18%)
Maximum spatial batch extension              ...  16.87, 13.32, 14.82 au
Average spatial batch extension              ...   0.34,  0.29,  0.28 au

Final grid set up in    1.3 sec
Final integration                            ... done (   0.4 sec)
Change in XC energy                          ...     0.000016481
Integrated number of electrons               ...    18.000005591
Previous integrated no of electrons          ...    17.999669956

----------------
TOTAL SCF ENERGY
----------------

Total Energy       :         -115.73242353 Eh           -3149.23935 eV

Components:
Nuclear Repulsion  :           40.56368304 Eh            1103.79393 eV
Electronic Energy  :         -156.29610657 Eh           -4253.03328 eV
One Electron Energy:         -237.52171841 Eh           -6463.29455 eV
Two Electron Energy:           81.22561184 Eh            2210.26127 eV

Virial components:
Potential Energy   :         -231.03237280 Eh           -6286.71047 eV
Kinetic Energy     :          115.29994927 Eh            3137.47113 eV
Virial Ratio       :            2.00375086


DFT components:
N(Alpha)           :        9.000002795362 electrons
N(Beta)            :        9.000002795362 electrons
N(Total)           :       18.000005590724 electrons
E(XC)              :      -10.664379259021 Eh       
DFET-embed. en.    :        0.000000000000 Eh       

---------------
SCF CONVERGENCE
---------------

  Last Energy change         ...   -2.6429e-10  Tolerance :   1.0000e-08
  Last MAX-Density change    ...    1.9820e-06  Tolerance :   1.0000e-07
  Last RMS-Density change    ...    8.5700e-08  Tolerance :   5.0000e-09
  Last Orbital Gradient      ...    1.1071e-06  Tolerance :   1.0000e-05
  Last Orbital Rotation      ...    7.4481e-07  Tolerance :   1.0000e-05

             **** THE GBW FILE WAS UPDATED (54_charges.gbw) ****
             **** DENSITY FILE WAS UPDATED (54_charges.scfp.tmp) ****
             **** ENERGY FILE WAS UPDATED (54_charges.en.tmp) ****
----------------
ORBITAL ENERGIES
----------------

  NO   OCC          E(Eh)            E(eV) 
   0   2.0000     -19.229738      -523.2678 
   1   2.0000     -10.309012      -280.5225 
   2   2.0000      -1.138203       -30.9721 
   3   2.0000      -0.798212       -21.7204 
   4   2.0000      -0.613767       -16.7015 
   5   2.0000      -0.548190       -14.9170 
   6   2.0000      -0.524467       -14.2715 
   7   2.0000      -0.430549       -11.7158 
   8   2.0000      -0.374933       -10.2024 
   9   0.0000       0.117253         3.1906 
  10   0.0000       0.154940         4.2161 
  11   0.0000       0.201842         5.4924 
  12   0.0000       0.206077         5.6076 
  13   0.0000       0.230518         6.2727 
  14   0.0000       0.306340         8.3359 
  15   0.0000       0.316514         8.6128 
  16   0.0000       0.404698        11.0124 
  17   0.0000       0.447835        12.1862 
  18   0.0000       0.483113        13.1462 
  19   0.0000       0.535550        14.5731 
  20   0.0000       0.551060        14.9951 
  21   0.0000       0.573618        15.6089 
  22   0.0000       0.602816        16.4035 
  23   0.0000       0.617529        16.8038 
  24   0.0000       0.686021        18.6676 
  25   0.0000       0.757218        20.6050 
  26   0.0000       0.802969        21.8499 
  27   0.0000       0.870846        23.6969 
  28   0.0000       0.980006        26.6673 
  29   0.0000       1.041054        28.3285 
  30   0.0000       1.111903        30.2564 
  31   0.0000       1.370642        37.2971 
  32   0.0000       1.489037        40.5188 
  33   0.0000       1.546923        42.0939 
  34   0.0000       1.611348        43.8470 
  35   0.0000       1.620782        44.1037 
  36   0.0000       1.647650        44.8348 
  37   0.0000       1.691741        46.0346 
  38   0.0000       1.698265        46.2121 
  39   0.0000       1.780980        48.4629 
  40   0.0000       1.945295        52.9342 
  41   0.0000       2.021493        55.0076 
  42   0.0000       2.046502        55.6881 
  43   0.0000       2.099933        57.1421 
  44   0.0000       2.127032        57.8795 
  45   0.0000       2.265004        61.6339 
  46   0.0000       2.299978        62.5856 
  47   0.0000       2.381943        64.8160 
  48   0.0000       2.417489        65.7832 
  49   0.0000       2.425686        66.0063 
  50   0.0000       2.530183        68.8498 
  51   0.0000       2.600322        70.7584 
  52   0.0000       2.644526        71.9612 
  53   0.0000       2.692860        73.2764 
  54   0.0000       2.821772        76.7843 
  55   0.0000       2.894432        78.7615 
  56   0.0000       2.927485        79.6609 
  57   0.0000       2.960184        80.5507 
  58   0.0000       3.097953        84.2996 
  59   0.0000       3.178370        86.4878 
  60   0.0000       3.279972        89.2526 
  61   0.0000       3.390393        92.2573 
  62   0.0000       3.453912        93.9857 
  63   0.0000       3.562199        96.9324 
  64   0.0000       3.610023        98.2337 
  65   0.0000       3.639362        99.0321 
  66   0.0000       3.684171       100.2514 
  67   0.0000       4.001450       108.8850 
  68   0.0000       4.209860       114.5561 
  69   0.0000       4.284994       116.6006 
  70   0.0000       4.498269       122.4041 
  71   0.0000       4.558180       124.0344 
  72   0.0000       5.360570       145.8685 
  73   0.0000       5.426990       147.6759 
  74   0.0000       5.563643       151.3944 
  75   0.0000       5.812962       158.1787 
  76   0.0000       5.838296       158.8681 
  77   0.0000       5.993431       163.0895 
  78   0.0000       6.351431       172.8312 
  79   0.0000       6.534700       177.8182 
  80   0.0000       6.758879       183.9184 
  81   0.0000       6.814673       185.4367 
  82   0.0000       7.033016       191.3781 
  83   0.0000       7.203212       196.0094 
  84   0.0000      22.452314       610.9585 
  85   0.0000      43.655206      1187.9185 

                    ********************************
                    * MULLIKEN POPULATION ANALYSIS *
                    ********************************

-----------------------
MULLIKEN ATOMIC CHARGES
-----------------------
   0 C :   -0.157016
   1 O :   -0.473098
   2 H :    0.315561
   3 H :    0.105035
   4 H :    0.102199
   5 H :    0.107319
Sum of atomic charges:    0.0000000

--------------------------------
MULLIKEN REDUCED ORBITAL CHARGES
--------------------------------
  0 C s       :     3.212671  s :     3.212671
      pz      :     0.970842  p :     2.838672
      px      :     0.978469
      py      :     0.889362
      dz2     :     0.031151  d :     0.098004
      dxz     :     0.015667
      dyz     :     0.012744
      dx2y2   :     0.020923
      dxy     :     0.017518
      f0      :     0.000693  f :     0.007668
      f+1     :     0.000374
      f-1     :     0.001689
      f+2     :     0.001254
      f-2     :     0.001270
      f+3     :     0.001082
      f-3     :     0.001306
  1 O s       :     3.795118  s :     3.795118
      pz      :     1.256877  p :     4.645696
      px      :     1.759156
      py      :     1.629663
      dz2     :     0.007809  d :     0.030614
      dxz     :     0.006151
      dyz     :     0.006223
      dx2y2   :     0.004378
      dxy     :     0.006053
      f0      :     0.000334  f :     0.001671
      f+1     :     0.000375
      f-1     :     0.000245
      f+2     :     0.000146
      f-2     :     0.000258
      f+3     :     0.000173
      f-3     :     0.000139
  2 H s       :     0.636604  s :     0.636604
      pz      :     0.018037  p :     0.047835
      px      :     0.015789
      py      :     0.014009
  3 H s       :     0.873701  s :     0.873701
      pz      :     0.004900  p :     0.021265
      px      :     0.011997
      py      :     0.004368
  4 H s       :     0.877735  s :     0.877735
      pz      :     0.004074  p :     0.020066
      px      :     0.006848
      py      :     0.009144
  5 H s       :     0.872876  s :     0.872876
      pz      :     0.011410  p :     0.019806
      px      :     0.004411
      py      :     0.003985


                     *******************************
                     * LOEWDIN POPULATION ANALYSIS *
                     *******************************

----------------------
LOEWDIN ATOMIC CHARGES
----------------------
   0 C :   -0.387874
   1 O :   -0.073010
   2 H :    0.168263
   3 H :    0.084661
   4 H :    0.097648
   5 H :    0.110311

-------------------------------
LOEWDIN REDUCED ORBITAL CHARGES
-------------------------------
  0 C s       :     2.853359  s :     2.853359
      pz      :     1.019626  p :     3.061868
      px      :     1.054298
      py      :     0.987945
      dz2     :     0.108090  d :     0.415227
      dxz     :     0.054797
      dyz     :     0.070227
      dx2y2   :     0.087514
      dxy     :     0.094598
      f0      :     0.005845  f :     0.057419
      f+1     :     0.004804
      f-1     :     0.010484
      f+2     :     0.011887
      f-2     :     0.009724
      f+3     :     0.007461
      f-3     :     0.007215
  1 O s       :     3.366157  s :     3.366157
      pz      :     1.289396  p :     4.630688
      px      :     1.708534
      py      :     1.632758
      dz2     :     0.023449  d :     0.071448
      dxz     :     0.013081
      dyz     :     0.014227
      dx2y2   :     0.009619
      dxy     :     0.011072
      f0      :     0.000623  f :     0.004717
      f+1     :     0.000988
      f-1     :     0.000896
      f+2     :     0.000594
      f-2     :     0.000788
      f+3     :     0.000373
      f-3     :     0.000454
  2 H s       :     0.672544  s :     0.672544
      pz      :     0.069042  p :     0.159192
      px      :     0.048722
      py      :     0.041428
  3 H s       :     0.845728  s :     0.845728
      pz      :     0.016858  p :     0.069611
      px      :     0.037227
      py      :     0.015526
  4 H s       :     0.842851  s :     0.842851
      pz      :     0.012293  p :     0.059501
      px      :     0.020476
      py      :     0.026732
  5 H s       :     0.833194  s :     0.833194
      pz      :     0.031193  p :     0.056495
      px      :     0.012545
      py      :     0.012757


                      *****************************
                      * MAYER POPULATION ANALYSIS *
                      *****************************

  NA   - Mulliken gross atomic population
  ZA   - Total nuclear charge
  QA   - Mulliken gross atomic charge
  VA   - Mayer's total valence
  BVA  - Mayer's bonded valence
  FA   - Mayer's free valence

  ATOM       NA         ZA         QA         VA         BVA        FA
  0 C      6.1570     6.0000    -0.1570     3.9520     3.9520     0.0000
  1 O      8.4731     8.0000    -0.4731     1.8919     1.8919     0.0000
  2 H      0.6844     1.0000     0.3156     0.9118     0.9118    -0.0000
  3 H      0.8950     1.0000     0.1050     0.9599     0.9599    -0.0000
  4 H      0.8978     1.0000     0.1022     0.9585     0.9585     0.0000
  5 H      0.8927     1.0000     0.1073     0.9553     0.9553     0.0000

  Mayer bond orders larger than 0.1
B(  0-C ,  1-O ) :   1.0085 B(  0-C ,  3-H ) :   0.9811 B(  0-C ,  4-H ) :   0.9780 
B(  0-C ,  5-H ) :   0.9746 B(  1-O ,  2-H ) :   0.9000 


------------------
HIRSHFELD ANALYSIS
------------------

Total integrated alpha density =      8.999834978
Total integrated beta density  =      8.999834978

  ATOM     CHARGE      SPIN    
   0 C    0.004035    0.000000
   1 O   -0.251767    0.000000
   2 H    0.159805    0.000000
   3 H    0.029152    0.000000
   4 H    0.026241    0.000000
   5 H    0.032865    0.000000

  TOTAL   0.000330    0.000000

-------
TIMINGS
-------

Total SCF time: 0 days 0 hours 0 min 27 sec 

Total time                  ....      27.289 sec
Sum of individual times     ....      24.129 sec  ( 88.4%)

Fock matrix formation       ....      17.956 sec  ( 65.8%)
  XC integration            ....       4.446 sec  ( 24.8% of F)
    Basis function eval.    ....       0.040 sec  (  0.9% of XC)
    Density eval.           ....       0.053 sec  (  1.2% of XC)
    XC-Functional eval.     ....       0.110 sec  (  2.5% of XC)
    XC-Potential eval.      ....       0.048 sec  (  1.1% of XC)
Diagonalization             ....       1.536 sec  (  5.6%)
Density matrix formation    ....       1.538 sec  (  5.6%)
Population analysis         ....       0.623 sec  (  2.3%)
Initial guess               ....       0.129 sec  (  0.5%)
Orbital Transformation      ....       0.000 sec  (  0.0%)
Orbital Orthonormalization  ....       0.000 sec  (  0.0%)
DIIS solution               ....       0.289 sec  (  1.1%)
SOSCF solution              ....       0.679 sec  (  2.5%)
Grid generation             ....       1.381 sec  (  5.1%)


-------------------------------------------------------------------------------
                          DFT DISPERSION CORRECTION                            
                                                                               
                              DFTD3 V3.1  Rev 1                                
                              USING zero damping                               
-------------------------------------------------------------------------------
The omegaB97X-D3 functional is recognized. Fit by Chai et al.
Active option DFTDOPT                   ...         3   

molecular C6(AA) [au] = 208.695898 


            DFT-D V3
 parameters
 s6 scaling factor         :     1.0000 
 rs6 scaling factor        :     1.2810 
 s8 scaling factor         :     1.0000 
 rs8 scaling factor        :     1.0940 
 Damping factor alpha6     :    14.0000 
 Damping factor alpha8     :    16.0000 
 ad hoc parameters k1-k3   :    16.0000     1.3333    -4.0000 

 Edisp/kcal,au: -0.151133493447  -0.000240846527 
 E6   /kcal   :  -0.030435734 
 E8   /kcal   :  -0.120697760 
 % E8         :  79.861688555 

-------------------------   ----------------
Dispersion correction           -0.000240847
-------------------------   ----------------


-------------------------   --------------------
FINAL SINGLE POINT ENERGY      -115.732664372455
-------------------------   --------------------


                            ***************************************
                            *     ORCA property calculations      *
                            ***************************************

                                    ---------------------
                                    Active property flags
                                    ---------------------
   (+) Dipole Moment


------------------------------------------------------------------------------
                       ORCA ELECTRIC PROPERTIES CALCULATION
------------------------------------------------------------------------------

Dipole Moment Calculation                       ... on
Quadrupole Moment Calculation                   ... off
Polarizability Calculation                      ... off
GBWName                                         ... 54_charges.gbw
Electron density file                           ... 54_charges.scfp.tmp
The origin for moment calculation is the CENTER OF MASS  = ( 2.851844,  7.631248 10.914750)

-------------
DIPOLE MOMENT
-------------
                                X             Y             Z
Electronic contribution:      0.79761      -1.25621       1.08516
Nuclear contribution   :     -1.26518       1.73143      -0.84312
                        -----------------------------------------
Total Dipole Moment    :     -0.46758       0.47522       0.24204
                        -----------------------------------------
Magnitude (a.u.)       :      0.70926
Magnitude (Debye)      :      1.80279



--------------------
Rotational spectrum 
--------------------
 
Rotational constants in cm-1:     4.402324     0.829601     0.809907 
Rotational constants in MHz : 131978.367248 24870.809511 24280.396577 

 Dipole components along the rotational axes: 
x,y,z [a.u.] :     0.342908     0.620602    -0.017780 
x,y,z [Debye]:     0.871604     1.577444    -0.045194 

 
------------------------------------------------------------------------------
                      ORCA CHELPG CHARGES GENERATION
------------------------------------------------------------------------------

GBW file                           ... 54_charges.gbw

Reading the GBW file               ... done

Grid spacing                       ...     0.300000
Point Cut-Off                      ...     2.800000
Van-der-Waals Radii                ...        COSMO
Total charge                       ...            0


Number of points X direction       ...           24
Number of points Y direction       ...           24
Number of points Z direction       ...           27
Maximum number of possible points  ...        15552
Final number of points             ...         5879


CHELPG Charges            
--------------------------------
  0   C   :       0.121023
  1   O   :      -0.599356
  2   H   :       0.394709
  3   H   :       0.009837
  4   H   :       0.015184
  5   H   :       0.058603
--------------------------------
Total charge:    -0.000000
--------------------------------

CHELPG charges calculated...

Timings for individual parts in CHELPG calculation:
Grid generation                 ...        0.001 sec (=   0.000 min)
Potential calculation           ...        0.809 sec (=   0.013 min)
Fit to the potential            ...        0.001 sec (=   0.000 min)
------------------------------------------------------------------------------


Timings for individual modules:

Sum of individual times         ...       37.145 sec (=   0.619 min)
GTO integral calculation        ...        5.264 sec (=   0.088 min)  14.2 %
SCF iterations                  ...       30.651 sec (=   0.511 min)  82.5 %
CHELPG charge generation        ...        1.230 sec (=   0.021 min)   3.3 %
                             ****ORCA TERMINATED NORMALLY****
TOTAL RUN TIME: 0 days 0 hours 0 minutes 40 seconds 476 msec
