
                                 *****************
                                 * O   R   C   A *
                                 *****************

           --- An Ab Initio, DFT and Semiempirical electronic structure package ---

                  #######################################################
                  #                        -***-                        #
                  #          Department of theory and spectroscopy      #
                  #               Directorship: Frank Neese             #
                  #        Max Planck Institute fuer Kohlenforschung    #
                  #                Kaiser Wilhelm Platz 1               #
                  #                 D-45470 Muelheim/Ruhr               #
                  #                      Germany                        #
                  #                                                     #
                  #                  All rights reserved                #
                  #                        -***-                        #
                  #######################################################


                         Program Version 4.1.2  - RELEASE  -


 With contributions from (in alphabetic order):
   Daniel Aravena         : Magnetic Properties
   Michael Atanasov       : Ab Initio Ligand Field Theory
   Alexander A. Auer      : GIAO ZORA
   Ute Becker             : Parallelization
   Giovanni Bistoni       : ED, Open-shell LED
   Martin Brehm           : Molecular dynamics
   Dmytro Bykov           : SCF Hessian
   Vijay G. Chilkuri      : MRCI spin determinant printing
   Dipayan Datta          : RHF DLPNO-CCSD density
   Achintya Kumar Dutta   : EOM-CC, STEOM-CC
   Dmitry Ganyushin       : Spin-Orbit,Spin-Spin,Magnetic field MRCI
   Miquel Garcia          : C-PCM Hessian
   Yang Guo               : DLPNO-NEVPT2, CIM, IAO-localization
   Andreas Hansen         : Spin unrestricted coupled pair/coupled cluster methods
   Benjamin Helmich-Paris : CASSCF linear response (MC-RPA)
   Lee Huntington         : MR-EOM, pCC
   Robert Izsak           : Overlap fitted RIJCOSX, COSX-SCS-MP3, EOM
   Christian Kollmar      : KDIIS, OOCD, Brueckner-CCSD(T), CCSD density
   Simone Kossmann        : Meta GGA functionals, TD-DFT gradient, OOMP2, MP2 Hessian
   Martin Krupicka        : AUTO-CI
   Lucas Lang             : DCDCAS
   Dagmar Lenk            : GEPOL surface, SMD
   Dimitrios Liakos       : Extrapolation schemes; parallel MDCI
   Dimitrios Manganas     : ROCIS; embedding schemes
   Dimitrios Pantazis     : SARC Basis sets
   Taras Petrenko         : DFT Hessian,TD-DFT gradient, ASA, ECA, R-Raman, ABS, FL, XAS/XES, NRVS
   Peter Pinski           : DLPNO-MP2, DLPNO-MP2 Gradient
   Christoph Reimann      : Effective Core Potentials
   Marius Retegan         : Local ZFS, SOC
   Christoph Riplinger    : Optimizer, TS searches, QM/MM, DLPNO-CCSD(T), (RO)-DLPNO pert. Triples
   Tobias Risthaus        : Range-separated hybrids, TD-DFT gradient, RPA, STAB
   Michael Roemelt        : Restricted open shell CIS
   Masaaki Saitow         : Open-shell DLPNO
   Barbara Sandhoefer     : DKH picture change effects
   Avijit Sen             : IP-ROCIS
   Kantharuban Sivalingam : CASSCF convergence, NEVPT2, FIC-MRCI
   Bernardo de Souza      : ESD, SOC TD-DFT
   Georgi Stoychev        : AutoAux, RI-MP2 NMR
   Willem Van den Heuvel  : Paramagnetic NMR
   Boris Wezisla          : Elementary symmetry handling
   Frank Wennmohs         : Technical directorship


 We gratefully acknowledge several colleagues who have allowed us to
 interface, adapt or use parts of their codes:
   Stefan Grimme, W. Hujo, H. Kruse,             : VdW corrections, initial TS optimization,
                  C. Bannwarth                     DFT functionals, gCP, sTDA/sTD-DF
   Ed Valeev                                     : LibInt (2-el integral package), F12 methods
   Garnet Chan, S. Sharma, J. Yang, R. Olivares  : DMRG
   Ulf Ekstrom                                   : XCFun DFT Library
   Mihaly Kallay                                 : mrcc  (arbitrary order and MRCC methods)
   Andreas Klamt, Michael Diedenhofen            : otool_cosmo (COSMO solvation model)
   Jiri Pittner, Ondrej Demel                    : Mk-CCSD
   Frank Weinhold                                : gennbo (NPA and NBO analysis)
   Christopher J. Cramer and Donald G. Truhlar   : smd solvation model
   Lars Goerigk                                  : TD-DFT with DH, B97 family of functionals
   V. Asgeirsson, H. Jonsson                     : NEB implementation
   FAccTs GmbH                                   : IRC, NEB, NEB-TS, Multilevel


 Your calculation uses the libint2 library for the computation of 2-el integrals
 For citations please refer to: http://libint.valeyev.net

 This ORCA versions uses:
   CBLAS   interface :  Fast vector & matrix operations
   LAPACKE interface :  Fast linear algebra routines
   SCALAPACK package :  Parallel linear algebra routines


Your calculation utilizes the atom-pairwise dispersion correction
with the zero-damping scheme (D30)
Cite in your paper:
S.Grimme, J.Antony, S.Ehrlich and H.Krieg, J.Chem.Phys., 132, (2010), 154104 
   

XCFun DFT library Copyright 2009-2010 Ulf Ekstrom and contributors.
See http://admol.org/xcfun for more information. This is free soft-
ware; see the source code for copying conditions. There is ABSOLUTELY
NO WARRANTY; not even for MERCHANTABILITY or FITNESS FOR A PARTICULAR
PURPOSE. For details see the documentation. Scientific users of this 
library should cite U. Ekstrom, L. Visscher, R. Bast, A. J. Thorvald-
sen and K. Ruud; J.Chem.Theor.Comp. 2010, DOI: 10.1021/ct100117s
XCFun Version 0.99 
----- Orbital basis set information -----
Your calculation utilizes the basis: def2-TZVP
   F. Weigend and R. Ahlrichs, Phys. Chem. Chem. Phys. 7, 3297 (2005).

================================================================================
                                        WARNINGS
                       Please study these warnings very carefully!
================================================================================


INFO   : the flag for use of LIBINT has been found!

================================================================================
                                       INPUT FILE
================================================================================
NAME = 111.in
|  1> #Run DFT-D3 single point of the dimer
|  2> ! wB97X-D3 def2-TZVP TIGHTSCF  CHELPG PAL8
|  3> 
|  4> %base "111_charges"
|  5> 
|  6> %scf
|  7> MaxIter 1000
|  8> end
|  9> %output
| 10>   Print[ P_Mayer ] 1
| 11>   Print[ P_NatPop ] 1
| 12>   Print[ P_Hirshfeld ] 1
| 13>   Print[ P_Mulliken ] 1
| 14>   Print [ P_Loewdin ] 1
| 15> end
| 16> 
| 17> * xyz 0 1
| 18>   C                      -3.147951            -8.611223            -3.303645           
| 19>   O                      -3.540132            -9.693111            -2.461106           
| 20>   H                      -4.061371            -9.261799            -1.729854           
| 21>   H                      -2.515672            -7.948690            -2.731341           
| 22>   H                      -2.549695            -8.968175            -4.120108           
| 23>   H                      -4.049267            -8.092638            -3.703248           
| 24> *
| 25> 
| 26>                          ****END OF INPUT****
================================================================================

                       ****************************
                       * Single Point Calculation *
                       ****************************

---------------------------------
CARTESIAN COORDINATES (ANGSTROEM)
---------------------------------
  C     -3.147951   -8.611223   -3.303645
  O     -3.540132   -9.693111   -2.461106
  H     -4.061371   -9.261799   -1.729854
  H     -2.515672   -7.948690   -2.731341
  H     -2.549695   -8.968175   -4.120108
  H     -4.049267   -8.092638   -3.703248

----------------------------
CARTESIAN COORDINATES (A.U.)
----------------------------
  NO LB      ZA    FRAG     MASS         X           Y           Z
   0 C     6.0000    0    12.011   -5.948765  -16.272853   -6.242984
   1 O     8.0000    0    15.999   -6.689880  -18.317325   -4.650816
   2 H     1.0000    0     1.008   -7.674879  -17.502264   -3.268950
   3 H     1.0000    0     1.008   -4.753931  -15.020847   -5.161486
   4 H     1.0000    0     1.008   -4.818225  -16.947395   -7.785876
   5 H     1.0000    0     1.008   -7.652006  -15.292870   -6.998125

--------------------------------
INTERNAL COORDINATES (ANGSTROEM)
--------------------------------
 C      0   0   0     0.000000000000     0.00000000     0.00000000
 O      1   0   0     1.426239653013     0.00000000     0.00000000
 H      2   1   0     0.996217658933   104.42278570     0.00000000
 H      1   2   3     1.079934525027   108.25849007    62.38565459
 H      1   2   3     1.073283188263   110.51044417   178.43481077
 H      1   2   3     1.113994385843   110.03237482   299.41601537

---------------------------
INTERNAL COORDINATES (A.U.)
---------------------------
 C      0   0   0     0.000000000000     0.00000000     0.00000000
 O      1   0   0     2.695202345533     0.00000000     0.00000000
 H      2   1   0     1.882578545159   104.42278570     0.00000000
 H      1   2   3     2.040780494868   108.25849007    62.38565459
 H      1   2   3     2.028211289960   110.51044417   178.43481077
 H      1   2   3     2.105144303969   110.03237482   299.41601537

---------------------
BASIS SET INFORMATION
---------------------
There are 3 groups of distinct atoms

 Group   1 Type C   : 11s6p2d1f contracted to 5s3p2d1f pattern {62111/411/11/1}
 Group   2 Type O   : 11s6p2d1f contracted to 5s3p2d1f pattern {62111/411/11/1}
 Group   3 Type H   : 5s1p contracted to 3s1p pattern {311/1}

Atom   0C    basis set group =>   1
Atom   1O    basis set group =>   2
Atom   2H    basis set group =>   3
Atom   3H    basis set group =>   3
Atom   4H    basis set group =>   3
Atom   5H    basis set group =>   3


           ************************************************************
           *        Program running with 8 parallel MPI-processes     *
           *              working on a common directory               *
           ************************************************************
------------------------------------------------------------------------------
                           ORCA GTO INTEGRAL CALCULATION
------------------------------------------------------------------------------

                         BASIS SET STATISTICS AND STARTUP INFO

 # of primitive gaussian shells          ...   64
 # of primitive gaussian functions       ...  124
 # of contracted shells                  ...   38
 # of contracted basis functions         ...   86
 Highest angular momentum                ...    3
 Maximum contraction depth               ...    6
 Integral package used                   ... LIBINT
 Integral threshhold            Thresh   ...  2.500e-11
 Primitive cut-off              TCut     ...  2.500e-12


------------------------------ INTEGRAL EVALUATION ----------------------------


 * One electron integrals 
 Pre-screening matrix                    ... done
 Shell pair data                         ... done (   0.000 sec)



           ************************************************************
           *        Program running with 8 parallel MPI-processes     *
           *              working on a common directory               *
           ************************************************************
-------------------------------------------------------------------------------
                                 ORCA SCF
-------------------------------------------------------------------------------

------------
SCF SETTINGS
------------
Hamiltonian:
 Density Functional     Method          .... DFT(GTOs)
 Exchange Functional    Exchange        .... WB97X-D3
 Correlation Functional Correlation     .... WB97X-D3
 Gradients option       PostSCFGGA      .... off
 Hybrid DFT is turned on
   Fraction HF Exchange ScalHFX         ....  0.195728
   Scaling of DF-GGA-X  ScalDFX         ....  0.000000
   Scaling of DF-GGA-C  ScalDFC         ....  1.000000
   Scaling of DF-LDA-C  ScalLDAC        ....  1.000000
   Perturbative correction              ....  0.000000
   Density functional embedding theory  .... OFF
 Long-range corrected/Screened/Range-Separated Hybrid DFT is turned on
   Amount of maximum screened exact exchange              ....  0.804272
   Range separation parameter mu (erf(mu*r12)/r12)        ....  0.250000


General Settings:
 Integral files         IntName         .... 111_charges
 Hartree-Fock type      HFTyp           .... RHF
 Total Charge           Charge          ....    0
 Multiplicity           Mult            ....    1
 Number of Electrons    NEL             ....   18
 Basis Dimension        Dim             ....   86
 Nuclear Repulsion      ENuc            ....     40.1473489470 Eh

Convergence Acceleration:
 DIIS                   CNVDIIS         .... on
   Start iteration      DIISMaxIt       ....    12
   Startup error        DIISStart       ....  0.200000
   # of expansion vecs  DIISMaxEq       ....     5
   Bias factor          DIISBfac        ....   1.050
   Max. coefficient     DIISMaxC        ....  10.000
 Newton-Raphson         CNVNR           .... off
 SOSCF                  CNVSOSCF        .... on
   Start iteration      SOSCFMaxIt      ....   150
   Startup grad/error   SOSCFStart      ....  0.003300
 Level Shifting         CNVShift        .... on
   Level shift para.    LevelShift      ....    0.2500
   Turn off err/grad.   ShiftErr        ....    0.0010
 Zerner damping         CNVZerner       .... off
 Static damping         CNVDamp         .... on
   Fraction old density DampFac         ....    0.7000
   Max. Damping (<1)    DampMax         ....    0.9800
   Min. Damping (>=0)   DampMin         ....    0.0000
   Turn off err/grad.   DampErr         ....    0.1000
 Fernandez-Rico         CNVRico         .... off

SCF Procedure:
 Maximum # iterations   MaxIter         ....  1000
 SCF integral mode      SCFMode         .... Direct
   Integral package                     .... LIBINT
 Reset frequency        DirectResetFreq ....    20
 Integral Threshold     Thresh          ....  2.500e-11 Eh
 Primitive CutOff       TCut            ....  2.500e-12 Eh

Convergence Tolerance:
 Convergence Check Mode ConvCheckMode   .... Total+1el-Energy
 Convergence forced     ConvForced      .... 0
 Energy Change          TolE            ....  1.000e-08 Eh
 1-El. energy change                    ....  1.000e-05 Eh
 Orbital Gradient       TolG            ....  1.000e-05
 Orbital Rotation angle TolX            ....  1.000e-05
 DIIS Error             TolErr          ....  5.000e-07


Diagonalization of the overlap matrix:
Smallest eigenvalue                        ... 1.636e-03
Time for diagonalization                   ...    0.425 sec
Threshold for overlap eigenvalues          ... 1.000e-08
Number of eigenvalues below threshold      ... 0
Time for construction of square roots      ...    0.113 sec
Total time needed                          ...    0.538 sec

-------------------
DFT GRID GENERATION
-------------------

General Integration Accuracy     IntAcc      ...  4.340
Radial Grid Type                 RadialGrid  ... Gauss-Chebyshev
Angular Grid (max. acc.)         AngularGrid ... Lebedev-110
Angular grid pruning method      GridPruning ... 3 (G Style)
Weight generation scheme         WeightScheme... Becke
Basis function cutoff            BFCut       ...    1.0000e-11
Integration weight cutoff        WCut        ...    1.0000e-14
Grids for H and He will be reduced by one unit

# of grid points (after initial pruning)     ...   6548 (   0.0 sec)
# of grid points (after weights+screening)   ...   6373 (   1.0 sec)
nearest neighbour list constructed           ...    0.0 sec
Grid point re-assignment to atoms done       ...    0.0 sec
Grid point division into batches done        ...    0.0 sec
Reduced shell lists constructed in    0.0 sec

Total number of grid points                  ...     6373
Total number of batches                      ...      103
Average number of points per batch           ...       61
Average number of grid points per atom       ...     1062
Average number of shells per batch           ...    31.79 (83.65%)
Average number of basis functions per batch  ...    72.93 (84.80%)
Average number of large shells per batch     ...    30.21 (95.06%)
Average number of large basis fcns per batch ...    69.50 (95.30%)
Maximum spatial batch extension              ...  15.75, 14.09, 15.93 au
Average spatial batch extension              ...   0.44,  0.41,  0.42 au

Time for grid setup =    2.297 sec

------------------------------
INITIAL GUESS: MODEL POTENTIAL
------------------------------
Loading Hartree-Fock densities                     ... done
Calculating cut-offs                               ... done
Setting up the integral package                    ... done
Initializing the effective Hamiltonian             ... done
Starting the Coulomb interaction                   ... done (   0.0 sec)
Reading the grid                                   ... done
Mapping shells                                     ... done
Starting the XC term evaluation                    ... done (   0.1 sec)
  promolecular density results
     # of electrons  =     17.999543261
     EX              =    -14.420959091
     EC              =     -0.574432357
     EX+EC           =    -14.995391448
Transforming the Hamiltonian                       ... done (   0.0 sec)
Diagonalizing the Hamiltonian                      ... done (   0.4 sec)
Back transforming the eigenvectors                 ... done (   0.0 sec)
Now organizing SCF variables                       ... done
                      ------------------
                      INITIAL GUESS DONE (   3.2 sec)
                      ------------------
--------------
SCF ITERATIONS
--------------
ITER       Energy         Delta-E        Max-DP      RMS-DP      [F,P]     Damp
               ***  Starting incremental Fock matrix formation  ***
  0   -115.6483009101   0.000000000000 0.03557504  0.00147422  0.2363989 0.7000
  1   -115.6850501774  -0.036749267315 0.02062274  0.00103930  0.1158221 0.7000
                               ***Turning on DIIS***
  2   -115.7019244870  -0.016874309617 0.02859102  0.00187100  0.0431734 0.0000
  3   -115.7293601853  -0.027435698325 0.01721772  0.00068736  0.0593891 0.0000
  4   -115.7338601449  -0.004499959557 0.00412717  0.00013648  0.0063173 0.0000
                      *** Initiating the SOSCF procedure ***
                           *** Shutting down DIIS ***
                      *** Re-Reading the Fockian *** 
                      *** Removing any level shift *** 
ITER      Energy       Delta-E        Grad      Rot      Max-DP    RMS-DP
  5   -115.73395899  -0.0000988472  0.000540  0.000540  0.000697  0.000047
               *** Restarting incremental Fock matrix formation ***
  6   -115.73396780  -0.0000088053  0.000148  0.000195  0.000434  0.000028
  7   -115.73396860  -0.0000008015  0.000050  0.000098  0.000197  0.000012
  8   -115.73396867  -0.0000000666  0.000021  0.000019  0.000028  0.000001
  9   -115.73396867  -0.0000000058  0.000012  0.000008  0.000016  0.000001
 10   -115.73396867  -0.0000000020  0.000003  0.000003  0.000003  0.000000
                  ***Gradient check signals convergence***
              ***Rediagonalizing the Fockian in SOSCF/NRSCF***

               *****************************************************
               *                     SUCCESS                       *
               *           SCF CONVERGED AFTER  11 CYCLES          *
               *****************************************************

Setting up the final grid:

General Integration Accuracy     IntAcc      ...  4.670
Radial Grid Type                 RadialGrid  ... Gauss-Chebyshev
Angular Grid (max. acc.)         AngularGrid ... Lebedev-302
Angular grid pruning method      GridPruning ... 3 (G Style)
Weight generation scheme         WeightScheme... Becke
Basis function cutoff            BFCut       ...    1.0000e-11
Integration weight cutoff        WCut        ...    1.0000e-14
Grids for H and He will be reduced by one unit

# of grid points (after initial pruning)     ...  26000 (   0.0 sec)
# of grid points (after weights+screening)   ...  25217 (   0.1 sec)
nearest neighbour list constructed           ...    0.0 sec
Grid point re-assignment to atoms done       ...    0.0 sec
Grid point division into batches done        ...    0.1 sec
Reduced shell lists constructed in    0.2 sec

Total number of grid points                  ...    25217
Total number of batches                      ...      398
Average number of points per batch           ...       63
Average number of grid points per atom       ...     4203
Average number of shells per batch           ...    31.02 (81.63%)
Average number of basis functions per batch  ...    70.86 (82.40%)
Average number of large shells per batch     ...    29.69 (95.70%)
Average number of large basis fcns per batch ...    68.55 (96.73%)
Maximum spatial batch extension              ...  16.05, 13.94, 16.18 au
Average spatial batch extension              ...   0.31,  0.30,  0.32 au

Final grid set up in    3.0 sec
Final integration                            ... done (   0.4 sec)
Change in XC energy                          ...    -0.000040047
Integrated number of electrons               ...    17.999984727
Previous integrated no of electrons          ...    18.000079019

----------------
TOTAL SCF ENERGY
----------------

Total Energy       :         -115.73400872 Eh           -3149.28248 eV

Components:
Nuclear Repulsion  :           40.14734895 Eh            1092.46490 eV
Electronic Energy  :         -155.88135767 Eh           -4241.74739 eV
One Electron Energy:         -236.75915757 Eh           -6442.54421 eV
Two Electron Energy:           80.87779991 Eh            2200.79682 eV

Virial components:
Potential Energy   :         -230.93296325 Eh           -6284.00540 eV
Kinetic Energy     :          115.19895453 Eh            3134.72292 eV
Virial Ratio       :            2.00464461


DFT components:
N(Alpha)           :        8.999992363597 electrons
N(Beta)            :        8.999992363597 electrons
N(Total)           :       17.999984727194 electrons
E(XC)              :      -10.642192971945 Eh       
DFET-embed. en.    :        0.000000000000 Eh       

---------------
SCF CONVERGENCE
---------------

  Last Energy change         ...   -2.8119e-10  Tolerance :   1.0000e-08
  Last MAX-Density change    ...    2.0078e-06  Tolerance :   1.0000e-07
  Last RMS-Density change    ...    8.2844e-08  Tolerance :   5.0000e-09
  Last Orbital Gradient      ...    1.1876e-06  Tolerance :   1.0000e-05
  Last Orbital Rotation      ...    7.8736e-07  Tolerance :   1.0000e-05

             **** THE GBW FILE WAS UPDATED (111_charges.gbw) ****
             **** DENSITY FILE WAS UPDATED (111_charges.scfp.tmp) ****
             **** ENERGY FILE WAS UPDATED (111_charges.en.tmp) ****
----------------
ORBITAL ENERGIES
----------------

  NO   OCC          E(Eh)            E(eV) 
   0   2.0000     -19.231370      -523.3122 
   1   2.0000     -10.311998      -280.6037 
   2   2.0000      -1.126856       -30.6633 
   3   2.0000      -0.791773       -21.5452 
   4   2.0000      -0.599716       -16.3191 
   5   2.0000      -0.545404       -14.8412 
   6   2.0000      -0.527145       -14.3444 
   7   2.0000      -0.434357       -11.8194 
   8   2.0000      -0.372155       -10.1269 
   9   0.0000       0.111043         3.0216 
  10   0.0000       0.156235         4.2514 
  11   0.0000       0.201757         5.4901 
  12   0.0000       0.206695         5.6245 
  13   0.0000       0.217978         5.9315 
  14   0.0000       0.307139         8.3577 
  15   0.0000       0.313625         8.5342 
  16   0.0000       0.395233        10.7548 
  17   0.0000       0.442551        12.0424 
  18   0.0000       0.475542        12.9402 
  19   0.0000       0.535640        14.5755 
  20   0.0000       0.544322        14.8118 
  21   0.0000       0.566199        15.4071 
  22   0.0000       0.594411        16.1748 
  23   0.0000       0.616412        16.7734 
  24   0.0000       0.665099        18.0983 
  25   0.0000       0.783471        21.3193 
  26   0.0000       0.809294        22.0220 
  27   0.0000       0.866222        23.5711 
  28   0.0000       0.985351        26.8128 
  29   0.0000       1.012541        27.5526 
  30   0.0000       1.106159        30.1001 
  31   0.0000       1.367577        37.2137 
  32   0.0000       1.495211        40.6867 
  33   0.0000       1.541470        41.9455 
  34   0.0000       1.604120        43.6503 
  35   0.0000       1.614619        43.9360 
  36   0.0000       1.633453        44.4485 
  37   0.0000       1.669146        45.4198 
  38   0.0000       1.700434        46.2712 
  39   0.0000       1.795423        48.8559 
  40   0.0000       1.963286        53.4237 
  41   0.0000       2.016154        54.8623 
  42   0.0000       2.044032        55.6209 
  43   0.0000       2.096834        57.0577 
  44   0.0000       2.103222        57.2316 
  45   0.0000       2.248328        61.1801 
  46   0.0000       2.330372        63.4126 
  47   0.0000       2.364530        64.3421 
  48   0.0000       2.380920        64.7881 
  49   0.0000       2.397838        65.2485 
  50   0.0000       2.520981        68.5994 
  51   0.0000       2.578749        70.1713 
  52   0.0000       2.653253        72.1987 
  53   0.0000       2.688572        73.1598 
  54   0.0000       2.816433        76.6390 
  55   0.0000       2.846234        77.4500 
  56   0.0000       2.891488        78.6814 
  57   0.0000       2.975061        80.9555 
  58   0.0000       3.100073        84.3573 
  59   0.0000       3.164872        86.1205 
  60   0.0000       3.294717        89.6538 
  61   0.0000       3.417683        92.9999 
  62   0.0000       3.424803        93.1936 
  63   0.0000       3.459820        94.1465 
  64   0.0000       3.613144        98.3187 
  65   0.0000       3.636326        98.9495 
  66   0.0000       3.665453        99.7421 
  67   0.0000       3.980908       108.3260 
  68   0.0000       4.186902       113.9314 
  69   0.0000       4.316597       117.4606 
  70   0.0000       4.467772       121.5743 
  71   0.0000       4.553280       123.9010 
  72   0.0000       5.352561       145.6506 
  73   0.0000       5.447080       148.2226 
  74   0.0000       5.511765       149.9828 
  75   0.0000       5.755428       156.6132 
  76   0.0000       5.805197       157.9674 
  77   0.0000       5.976618       162.6320 
  78   0.0000       6.251865       170.1219 
  79   0.0000       6.526560       177.5967 
  80   0.0000       6.752018       183.7317 
  81   0.0000       6.808550       185.2701 
  82   0.0000       7.017004       190.9424 
  83   0.0000       7.179655       195.3684 
  84   0.0000      22.395806       609.4209 
  85   0.0000      43.659902      1188.0463 

                    ********************************
                    * MULLIKEN POPULATION ANALYSIS *
                    ********************************

-----------------------
MULLIKEN ATOMIC CHARGES
-----------------------
   0 C :   -0.163724
   1 O :   -0.477445
   2 H :    0.315533
   3 H :    0.103573
   4 H :    0.121646
   5 H :    0.100418
Sum of atomic charges:    0.0000000

--------------------------------
MULLIKEN REDUCED ORBITAL CHARGES
--------------------------------
  0 C s       :     3.230960  s :     3.230960
      pz      :     0.956600  p :     2.831861
      px      :     1.029088
      py      :     0.846173
      dz2     :     0.023228  d :     0.093682
      dxz     :     0.018247
      dyz     :     0.015885
      dx2y2   :     0.014155
      dxy     :     0.022167
      f0      :     0.000424  f :     0.007222
      f+1     :     0.000348
      f-1     :     0.001644
      f+2     :     0.001286
      f-2     :     0.001968
      f+3     :     0.000615
      f-3     :     0.000938
  1 O s       :     3.810753  s :     3.810753
      pz      :     1.417594  p :     4.634558
      px      :     1.720790
      py      :     1.496173
      dz2     :     0.003221  d :     0.030586
      dxz     :     0.004681
      dyz     :     0.010787
      dx2y2   :     0.005620
      dxy     :     0.006277
      f0      :     0.000110  f :     0.001549
      f+1     :     0.000346
      f-1     :     0.000228
      f+2     :     0.000198
      f-2     :     0.000445
      f+3     :     0.000118
      f-3     :     0.000104
  2 H s       :     0.641402  s :     0.641402
      pz      :     0.015675  p :     0.043066
      px      :     0.016131
      py      :     0.011259
  3 H s       :     0.876214  s :     0.876214
      pz      :     0.005962  p :     0.020213
      px      :     0.007401
      py      :     0.006850
  4 H s       :     0.857926  s :     0.857926
      pz      :     0.009103  p :     0.020427
      px      :     0.007201
      py      :     0.004123
  5 H s       :     0.880925  s :     0.880925
      pz      :     0.004624  p :     0.018657
      px      :     0.009040
      py      :     0.004993


                     *******************************
                     * LOEWDIN POPULATION ANALYSIS *
                     *******************************

----------------------
LOEWDIN ATOMIC CHARGES
----------------------
   0 C :   -0.378328
   1 O :   -0.105663
   2 H :    0.189569
   3 H :    0.091938
   4 H :    0.103508
   5 H :    0.098976

-------------------------------
LOEWDIN REDUCED ORBITAL CHARGES
-------------------------------
  0 C s       :     2.866683  s :     2.866683
      pz      :     1.020486  p :     3.052974
      px      :     1.076604
      py      :     0.955884
      dz2     :     0.065020  d :     0.403469
      dxz     :     0.079351
      dyz     :     0.098942
      dx2y2   :     0.052463
      dxy     :     0.107693
      f0      :     0.007637  f :     0.055202
      f+1     :     0.003085
      f-1     :     0.012020
      f+2     :     0.009767
      f-2     :     0.008889
      f+3     :     0.005507
      f-3     :     0.008297
  1 O s       :     3.400723  s :     3.400723
      pz      :     1.418106  p :     4.631747
      px      :     1.657010
      py      :     1.556630
      dz2     :     0.011256  d :     0.068784
      dxz     :     0.013181
      dyz     :     0.021133
      dx2y2   :     0.011002
      dxy     :     0.012213
      f0      :     0.000317  f :     0.004408
      f+1     :     0.000477
      f-1     :     0.001036
      f+2     :     0.000574
      f-2     :     0.001127
      f+3     :     0.000421
      f-3     :     0.000457
  2 H s       :     0.668746  s :     0.668746
      pz      :     0.051942  p :     0.141685
      px      :     0.048508
      py      :     0.041235
  3 H s       :     0.845387  s :     0.845387
      pz      :     0.019088  p :     0.062676
      px      :     0.022649
      py      :     0.020938
  4 H s       :     0.833771  s :     0.833771
      pz      :     0.027255  p :     0.062721
      px      :     0.021781
      py      :     0.013685
  5 H s       :     0.844082  s :     0.844082
      pz      :     0.014579  p :     0.056943
      px      :     0.027191
      py      :     0.015172


                      *****************************
                      * MAYER POPULATION ANALYSIS *
                      *****************************

  NA   - Mulliken gross atomic population
  ZA   - Total nuclear charge
  QA   - Mulliken gross atomic charge
  VA   - Mayer's total valence
  BVA  - Mayer's bonded valence
  FA   - Mayer's free valence

  ATOM       NA         ZA         QA         VA         BVA        FA
  0 C      6.1637     6.0000    -0.1637     3.9354     3.9354    -0.0000
  1 O      8.4774     8.0000    -0.4774     1.8775     1.8775     0.0000
  2 H      0.6845     1.0000     0.3155     0.9079     0.9079    -0.0000
  3 H      0.8964     1.0000     0.1036     0.9610     0.9610     0.0000
  4 H      0.8784     1.0000     0.1216     0.9587     0.9587    -0.0000
  5 H      0.8996     1.0000     0.1004     0.9630     0.9630     0.0000

  Mayer bond orders larger than 0.1
B(  0-C ,  1-O ) :   0.9952 B(  0-C ,  3-H ) :   0.9809 B(  0-C ,  4-H ) :   0.9723 
B(  0-C ,  5-H ) :   0.9773 B(  1-O ,  2-H ) :   0.8966 


------------------
HIRSHFELD ANALYSIS
------------------

Total integrated alpha density =      9.000039510
Total integrated beta density  =      9.000039510

  ATOM     CHARGE      SPIN    
   0 C    0.004733    0.000000
   1 O   -0.256830    0.000000
   2 H    0.161567    0.000000
   3 H    0.023565    0.000000
   4 H    0.040127    0.000000
   5 H    0.026758    0.000000

  TOTAL  -0.000079    0.000000

-------
TIMINGS
-------

Total SCF time: 0 days 0 hours 0 min 32 sec 

Total time                  ....      32.828 sec
Sum of individual times     ....      28.589 sec  ( 87.1%)

Fock matrix formation       ....      17.324 sec  ( 52.8%)
  XC integration            ....       4.311 sec  ( 24.9% of F)
    Basis function eval.    ....       0.038 sec  (  0.9% of XC)
    Density eval.           ....       0.039 sec  (  0.9% of XC)
    XC-Functional eval.     ....       0.068 sec  (  1.6% of XC)
    XC-Potential eval.      ....       0.035 sec  (  0.8% of XC)
Diagonalization             ....       1.601 sec  (  4.9%)
Density matrix formation    ....       2.038 sec  (  6.2%)
Population analysis         ....       0.578 sec  (  1.8%)
Initial guess               ....       0.887 sec  (  2.7%)
Orbital Transformation      ....       0.000 sec  (  0.0%)
Orbital Orthonormalization  ....       0.000 sec  (  0.0%)
DIIS solution               ....       0.349 sec  (  1.1%)
SOSCF solution              ....       0.517 sec  (  1.6%)
Grid generation             ....       5.295 sec  ( 16.1%)


-------------------------------------------------------------------------------
                          DFT DISPERSION CORRECTION                            
                                                                               
                              DFTD3 V3.1  Rev 1                                
                              USING zero damping                               
-------------------------------------------------------------------------------
The omegaB97X-D3 functional is recognized. Fit by Chai et al.
Active option DFTDOPT                   ...         3   

molecular C6(AA) [au] = 208.748515 


            DFT-D V3
 parameters
 s6 scaling factor         :     1.0000 
 rs6 scaling factor        :     1.2810 
 s8 scaling factor         :     1.0000 
 rs8 scaling factor        :     1.0940 
 Damping factor alpha6     :    14.0000 
 Damping factor alpha8     :    16.0000 
 ad hoc parameters k1-k3   :    16.0000     1.3333    -4.0000 

 Edisp/kcal,au: -0.141473855502  -0.000225452915 
 E6   /kcal   :  -0.028616339 
 E8   /kcal   :  -0.112857517 
 % E8         :  79.772701670 

-------------------------   ----------------
Dispersion correction           -0.000225453
-------------------------   ----------------


-------------------------   --------------------
FINAL SINGLE POINT ENERGY      -115.734234173455
-------------------------   --------------------


                            ***************************************
                            *     ORCA property calculations      *
                            ***************************************

                                    ---------------------
                                    Active property flags
                                    ---------------------
   (+) Dipole Moment


------------------------------------------------------------------------------
                       ORCA ELECTRIC PROPERTIES CALCULATION
------------------------------------------------------------------------------

Dipole Moment Calculation                       ... on
Quadrupole Moment Calculation                   ... off
Polarizability Calculation                      ... off
GBWName                                         ... 111_charges.gbw
Electron density file                           ... 111_charges.scfp.tmp
The origin for moment calculation is the CENTER OF MASS  = (-6.353544, -17.283366 -5.392705)

-------------
DIPOLE MOMENT
-------------
                                X             Y             Z
Electronic contribution:     -0.39415      -1.47412       0.91303
Nuclear contribution   :      0.25311       2.16149      -0.81019
                        -----------------------------------------
Total Dipole Moment    :     -0.14104       0.68737       0.10284
                        -----------------------------------------
Magnitude (a.u.)       :      0.70919
Magnitude (Debye)      :      1.80261



--------------------
Rotational spectrum 
--------------------
 
Rotational constants in cm-1:     4.175500     0.826177     0.798476 
Rotational constants in MHz : 125178.330403 24768.149862 23937.712580 

 Dipole components along the rotational axes: 
x,y,z [a.u.] :    -0.388013     0.589676    -0.068365 
x,y,z [Debye]:    -0.986250     1.498838    -0.173769 

 
------------------------------------------------------------------------------
                      ORCA CHELPG CHARGES GENERATION
------------------------------------------------------------------------------

GBW file                           ... 111_charges.gbw

Reading the GBW file               ... done

Grid spacing                       ...     0.300000
Point Cut-Off                      ...     2.800000
Van-der-Waals Radii                ...        COSMO
Total charge                       ...            0


Number of points X direction       ...           23
Number of points Y direction       ...           24
Number of points Z direction       ...           26
Maximum number of possible points  ...        14352
Final number of points             ...         5858


CHELPG Charges            
--------------------------------
  0   C   :       0.089708
  1   O   :      -0.586641
  2   H   :       0.386624
  3   H   :       0.013873
  4   H   :       0.085291
  5   H   :       0.011144
--------------------------------
Total charge:    -0.000000
--------------------------------

CHELPG charges calculated...

Timings for individual parts in CHELPG calculation:
Grid generation                 ...        0.001 sec (=   0.000 min)
Potential calculation           ...        0.634 sec (=   0.011 min)
Fit to the potential            ...        0.002 sec (=   0.000 min)
------------------------------------------------------------------------------


Timings for individual modules:

Sum of individual times         ...       40.500 sec (=   0.675 min)
GTO integral calculation        ...        3.579 sec (=   0.060 min)   8.8 %
SCF iterations                  ...       36.210 sec (=   0.604 min)  89.4 %
CHELPG charge generation        ...        0.711 sec (=   0.012 min)   1.8 %
                             ****ORCA TERMINATED NORMALLY****
TOTAL RUN TIME: 0 days 0 hours 0 minutes 42 seconds 381 msec
