LAMMPS data file via write_data, version 11 Aug 2017, timestep = 210000

1002 atoms
4 atom types
835 bonds
3 bond types
1169 angles
3 angle types
501 dihedrals
1 dihedral types

-1.1228132791449527e+01 1.1228132791449527e+01 xlo xhi
-1.1228132791449527e+01 1.1228132791449527e+01 ylo yhi
-1.1228132791449527e+01 1.1228132791449527e+01 zlo zhi

Masses

1 1.00794
2 1.00794
3 12.011
4 15.9994

Bond Coeffs # harmonic

1 366.904 1.0961
2 612.22 0.957501
3 368.71 1.41153

Angle Coeffs # harmonic

1 40.9267 108.205
2 61.3287 112.232
3 49.873 108.742

Atoms # full

835 139 3 9.9454000000000001e-02 -7.4322687779561605e+00 -1.1135768608153549e+01 -5.9688293343932184e+00 -1 1 0
769 128 3 9.9454000000000001e-02 -8.5445365821840777e+00 -7.8858467959600098e+00 -8.7199501441333886e+00 3 2 -2
774 128 1 3.1932000000000002e-02 -9.3540076323518164e+00 -8.6017024338438812e+00 -8.8606156459575800e+00 3 2 -2
773 128 1 3.1932000000000002e-02 -8.9019546714150390e+00 -6.8652660042341553e+00 -9.0494357096971392e+00 3 2 -2
770 128 4 -5.9782299999999999e-01 -7.3980825893509419e+00 -8.2404957499581784e+00 -9.5196484827291670e+00 3 2 -2
771 128 2 4.0257300000000001e-01 -6.8091899555958681e+00 -7.4793837017842844e+00 -9.5946113747238968e+00 3 2 -2
173 28 1 3.1932000000000002e-02 -9.6364096852105625e+00 -1.0730080886238417e+01 -8.9109114495575454e+00 -1 4 1
772 128 1 3.1932000000000002e-02 -8.3372324697924611e+00 -7.8386336967016401e+00 -7.6297598494616281e+00 3 2 -2
838 139 1 3.1932000000000002e-02 -6.3685260414616307e+00 -1.0946052213330972e+01 -5.9848928544855093e+00 -1 1 0
174 28 1 3.1932000000000002e-02 -1.0019663714133861e+01 -1.0606602811146976e+01 -1.0669673175650310e+01 -1 4 1
699 116 2 4.0257300000000001e-01 -5.6501190047831384e+00 -6.6156239176668894e+00 -7.5134097926459082e+00 -2 1 -1
866 144 4 -5.9782299999999999e-01 -6.0900576965601472e+00 -5.7473315568318721e+00 -9.2224258189492314e+00 2 -1 0
171 28 2 4.0257300000000001e-01 -7.7523288262324925e+00 -1.0173740252394733e+01 -9.8801552547453895e+00 -1 4 1
176 29 4 -5.9782299999999999e-01 -1.0733558633958609e+01 -5.8835667504685407e+00 -6.5214858814223282e+00 -1 0 0
840 139 1 3.1932000000000002e-02 -7.9859778090197029e+00 -1.0205902299427333e+01 -5.8648650938303835e+00 -1 1 0
867 144 2 4.0257300000000001e-01 -5.8169299152981058e+00 -5.7756992198784713e+00 -1.0146305596060134e+01 2 -1 0
384 63 1 3.1932000000000002e-02 -9.7870273480225745e+00 -5.8026887257892659e+00 -1.0634611039849583e+01 0 2 2
169 28 3 9.9454000000000001e-02 -9.4180657645711783e+00 -1.1158370994390008e+01 -9.9233487022283011e+00 -1 4 1
170 28 4 -5.9782299999999999e-01 -8.0696631284642173e+00 -1.1072357479571844e+01 -1.0132953720003938e+01 -1 4 1
212 35 4 -5.9782299999999999e-01 -6.2884554266433179e+00 -1.0551096222824953e+01 -4.9763229868722725e-01 2 2 -1
215 35 1 3.1932000000000002e-02 -5.8650425224920779e+00 -9.2333985533109040e+00 -2.0072990071365471e+00 2 2 -1
942 156 1 3.1932000000000002e-02 -8.3159144575458086e+00 -6.2597989875845688e+00 -2.1873538008796629e+00 -3 1 0
700 116 1 3.1932000000000002e-02 -6.4890880292354094e+00 -6.0283189234185111e+00 -5.3401419449303749e+00 -2 1 -1
705 117 2 4.0257300000000001e-01 -1.1202885671896302e+01 -1.0652457419254208e+01 -1.0263021396091894e+00 -2 1 -1
940 156 1 3.1932000000000002e-02 -9.4753505959297861e+00 -6.5915124335501654e+00 -3.5421206625974220e+00 -3 1 0
937 156 3 9.9454000000000001e-02 -9.0421674357954309e+00 -5.8291561218128978e+00 -2.8485192915001587e+00 -3 1 0
706 117 1 3.1932000000000002e-02 -9.1645575536593373e+00 -9.7494775435595091e+00 -2.7530851587911922e+00 -2 1 -1
704 117 4 -5.9782299999999999e-01 -1.0892979022980830e+01 -1.0121052561850892e+01 -1.7759194744166731e+00 -2 1 -1
697 116 3 9.9454000000000001e-02 -5.7006569287319708e+00 -6.7472241310601246e+00 -5.4861505970502549e+00 -2 1 -1
701 116 1 3.1932000000000002e-02 -5.9379050291207269e+00 -7.4693813112714622e+00 -4.7482740142600921e+00 -2 1 -1
703 117 3 9.9454000000000001e-02 -9.7344581230132903e+00 -1.0602987780982719e+01 -2.4677228556981170e+00 -2 1 -1
708 117 1 3.1932000000000002e-02 -9.9814442011402775e+00 -1.1104986945832314e+01 -3.4396106261256687e+00 -2 1 -1
128 21 4 -5.9782299999999999e-01 -8.4984400903619566e+00 -1.0305499743899608e+01 2.6037560211841839e+00 -1 1 1
132 21 1 3.1932000000000002e-02 -7.4919622000820212e+00 -8.4446439379770606e+00 2.4749389468962661e+00 -1 1 1
130 21 1 3.1932000000000002e-02 -7.9894250964066638e+00 -9.0005971895207928e+00 4.0775635245324864e+00 -1 1 1
127 21 3 9.9454000000000001e-02 -7.6108475341219375e+00 -9.3588431748631145e+00 3.0956983734648134e+00 -1 1 1
131 21 1 3.1932000000000002e-02 -6.5537588820345105e+00 -9.7121587172309347e+00 3.2418939813984906e+00 -1 1 1
129 21 2 4.0257300000000001e-01 -8.2545386928460225e+00 -1.0601353276808322e+01 1.7262001602758819e+00 -1 1 1
71 11 1 3.1932000000000002e-02 -1.0713915059790953e+01 -6.6747219104896844e+00 4.7595351246008892e+00 2 3 0
825 137 2 4.0257300000000001e-01 -1.0257115012131601e+01 -1.0855454272603632e+01 4.1999748390493483e+00 -1 -1 2
305 50 1 3.1932000000000002e-02 -1.0958591467464776e+01 -8.4855084509703591e+00 1.0504738566335874e+00 2 0 2
46 7 1 3.1932000000000002e-02 -8.3997802507666908e+00 -6.0062166491218960e+00 2.6220475088296666e+00 -2 1 1
213 35 2 4.0257300000000001e-01 -5.7133278351682160e+00 -1.0911642463141032e+01 2.7508761244142832e-01 2 2 -1
45 7 2 4.0257300000000001e-01 -9.9716966166566525e+00 -5.6291434520272876e+00 1.0060599298880728e+00 -2 1 1
614 102 4 -5.9782299999999999e-01 -5.7450270087693340e+00 -7.8075381231141971e+00 7.5335738796191070e+00 1 1 -2
910 151 1 3.1932000000000002e-02 -7.7431095525836238e+00 -9.3226331039783528e+00 1.0175937307078479e+01 -2 1 0
907 151 3 9.9454000000000001e-02 -7.4004377861410049e+00 -1.0031585345541151e+01 9.3539991412977859e+00 -2 1 0
686 114 4 -5.9782299999999999e-01 -7.5712014144907194e+00 -6.5233526027141595e+00 9.3515099338178285e+00 -1 2 -1
911 151 1 3.1932000000000002e-02 -7.8450186690620551e+00 -9.6743637994984155e+00 8.4219015693663390e+00 -2 1 0
968 161 4 -5.9782299999999999e-01 -1.1054056142197929e+01 -9.5374894298097121e+00 8.0447855434790885e+00 1 -2 -2
908 151 4 -5.9782299999999999e-01 -6.0189311869628694e+00 -1.0033098821322088e+01 9.2341868007106900e+00 -2 1 0
970 161 1 3.1932000000000002e-02 -1.0380828129406748e+01 -1.1164862479738668e+01 6.8972850940395514e+00 1 -2 -2
685 114 3 9.9454000000000001e-02 -8.9993429982209872e+00 -6.7377486542456655e+00 9.2571239356549402e+00 -1 2 -1
690 114 1 3.1932000000000002e-02 -9.2017317027003092e+00 -7.2334803918356165e+00 8.2963658758781218e+00 -1 2 -1
615 102 2 4.0257300000000001e-01 -6.2457000523242350e+00 -8.4548196039084065e+00 8.0733325018874620e+00 1 1 -2
688 114 1 3.1932000000000002e-02 -9.2936675353989529e+00 -7.3957073195082135e+00 1.0101247730688497e+01 -1 2 -1
912 151 1 3.1932000000000002e-02 -7.7865908091082083e+00 -1.1036365033624099e+01 9.5629969207640837e+00 -2 1 0
689 114 1 3.1932000000000002e-02 -9.5960050621791613e+00 -5.8551185217766513e+00 9.2776044837299256e+00 -1 2 -1
967 161 3 9.9454000000000001e-02 -1.0654847366034764e+01 -1.0912787376346213e+01 7.9146250187718170e+00 1 -2 -2
284 47 4 -5.9782299999999999e-01 -8.2462732802587499e+00 -6.6111011784220688e+00 5.7926659104281075e+00 1 2 0
285 47 2 4.0257300000000001e-01 -7.7333945243367364e+00 -7.4002984579009121e+00 5.6807616368660359e+00 1 2 0
687 114 2 4.0257300000000001e-01 -7.1327361568728529e+00 -6.7417582393840414e+00 8.5522822780022327e+00 -1 2 -1
909 151 2 4.0257300000000001e-01 -5.7627017844821822e+00 -1.0736187649447336e+01 9.8727475079749869e+00 -2 1 0
969 161 2 4.0257300000000001e-01 -1.1029468856568252e+01 -9.3390444557839167e+00 8.9362151992893555e+00 1 -2 -2
287 47 1 3.1932000000000002e-02 -6.5614572881019075e+00 -5.7206995846370496e+00 6.5585562771267636e+00 1 2 0
971 161 1 3.1932000000000002e-02 -9.8497373776249439e+00 -1.1168353592222568e+01 8.5562041331224226e+00 1 -2 -2
616 102 1 3.1932000000000002e-02 -5.9794828373567022e+00 -9.0513092536976245e+00 5.8742892313148243e+00 1 1 -2
379 63 3 9.9454000000000001e-02 -1.0758944814172755e+01 -5.2691480142274028e+00 -1.0439156146568026e+01 0 2 2
796 132 1 3.1932000000000002e-02 -8.6678103891412590e+00 -1.9228850204123145e+00 -7.2374060257995287e+00 0 -1 4
383 63 1 3.1932000000000002e-02 -1.0686635957846839e+01 -4.9499995786870015e+00 -9.4063552636335359e+00 0 2 2
868 144 1 3.1932000000000002e-02 -7.2993415123052872e+00 -4.5233090171867616e+00 -8.0762457770726837e+00 2 -1 0
382 63 1 3.1932000000000002e-02 -1.0894648289722639e+01 -4.3564621195753670e+00 -1.1072118463835723e+01 0 2 2
797 132 1 3.1932000000000002e-02 -8.9600390427319017e+00 -2.6363505049701921e+00 -8.9858747682280011e+00 0 -1 4
865 144 3 9.9454000000000001e-02 -6.8863053683799187e+00 -4.5912781041096924e+00 -9.1170207772014429e+00 2 -1 0
870 144 1 3.1932000000000002e-02 -7.6290471174402654e+00 -4.6606511764076597e+00 -9.8908529532373155e+00 2 -1 0
798 132 1 3.1932000000000002e-02 -7.7759084511493723e+00 -1.2088555837596289e+00 -8.6213160766257957e+00 0 -1 4
793 132 3 9.9454000000000001e-02 -8.7328230252099779e+00 -1.6988950511948389e+00 -8.3777535229158993e+00 0 -1 4
175 29 3 9.9454000000000001e-02 -1.0538554137629346e+01 -4.5554450254910002e+00 -6.0024290168532479e+00 -1 0 0
869 144 1 3.1932000000000002e-02 -6.2153623280031560e+00 -3.6978916756430396e+00 -9.3118721200414463e+00 2 -1 0
178 29 1 3.1932000000000002e-02 -9.6262019400000369e+00 -4.0159299062690614e+00 -6.3650692987099511e+00 -1 0 0
794 132 4 -5.9782299999999999e-01 -9.7432530966899265e+00 -8.0443673649979708e-01 -8.6348665022319508e+00 0 -1 4
938 156 4 -5.9782299999999999e-01 -1.0118575334565856e+01 -5.2815614073650803e+00 -2.0742516363734396e+00 -3 1 0
656 109 4 -5.9782299999999999e-01 -1.0083203351798913e+01 -1.0063585042597527e+00 -2.2839080638001814e+00 -2 -3 -1
271 45 3 9.9454000000000001e-02 -7.1745858761284289e+00 -6.1022682636186687e-01 -6.1301362378653934e-01 2 -4 1
272 45 4 -5.9782299999999999e-01 -7.2770999343078309e+00 -7.7904523557404559e-01 -2.0116245863090008e+00 2 -4 1
658 109 1 3.1932000000000002e-02 -9.8331462351867636e+00 -1.6401189038299027e+00 -4.2827304136096558e+00 -2 -3 -1
354 58 1 3.1932000000000002e-02 -6.0897172468594585e+00 -1.2217430021089761e+00 -4.7447696599807658e+00 3 2 1
939 156 2 4.0257300000000001e-01 -9.8573874985206924e+00 -5.3352933067318000e+00 -1.1548541807613866e+00 -3 1 0
273 45 2 4.0257300000000001e-01 -8.1945543673004551e+00 -1.1403679352174727e+00 -2.1850176563219357e+00 2 -4 1
180 29 1 3.1932000000000002e-02 -1.0368197947041260e+01 -4.6573930972652713e+00 -4.8714774933116658e+00 -1 0 0
275 45 1 3.1932000000000002e-02 -7.5738280917764778e+00 -1.4970082905094504e+00 -1.2110993475824650e-01 2 -4 1
659 109 1 3.1932000000000002e-02 -9.9643771251751883e+00 -2.9220057735252833e+00 -2.9493064419641293e+00 -2 -3 -1
276 45 1 3.1932000000000002e-02 -6.1726931882959866e+00 -3.6894608362670489e-01 -3.7346989281536302e-01 2 -4 1
655 109 3 9.9454000000000001e-02 -1.0328795594040789e+01 -1.9218143574773414e+00 -3.3028509513197370e+00 -2 -3 -1
657 109 2 4.0257300000000001e-01 -1.0235777923356983e+01 -9.7862531717016310e-02 -2.5350884816261363e+00 -2 -3 -1
941 156 1 3.1932000000000002e-02 -8.5001345883044781e+00 -5.1051690364139155e+00 -3.4413636099193683e+00 -3 1 0
288 47 1 3.1932000000000002e-02 -7.0014098399494706e+00 -5.0931004673067442e+00 4.9622965820146465e+00 1 2 0
44 7 4 -5.9782299999999999e-01 -9.1495589497866270e+00 -5.1529804122259275e+00 7.8137236017846057e-01 -2 1 1
463 77 3 9.9454000000000001e-02 -6.8936819536404927e+00 -5.9120075678889350e-01 3.2382898592078835e+00 1 -1 -2
592 98 1 3.1932000000000002e-02 -9.4517908882654460e+00 -8.1129998430807149e-02 1.2948497717679164e+00 0 -3 2
465 77 2 4.0257300000000001e-01 -8.2111592162983609e+00 -1.5581151868491432e+00 4.5467569026903831e+00 1 -1 -2
466 77 1 3.1932000000000002e-02 -5.7666859415826117e+00 -6.4607446010099068e-01 3.0922946894777628e+00 1 -1 -2
467 77 1 3.1932000000000002e-02 -7.4260509106847383e+00 -4.1484185324321921e-01 2.2659576322725794e+00 1 -1 -2
464 77 4 -5.9782299999999999e-01 -7.4858362458496739e+00 -1.7393018968338634e+00 3.9168081606640861e+00 1 -1 -2
48 7 1 3.1932000000000002e-02 -8.7134318947276626e+00 -4.1904711002337693e+00 2.5355114835066015e+00 -2 1 1
43 7 3 9.9454000000000001e-02 -8.3867536050486731e+00 -5.0805738685015589e+00 2.0087920476450005e+00 -2 1 1
47 7 1 3.1932000000000002e-02 -7.4102404595710230e+00 -4.8301224011096311e+00 1.6818567132302995e+00 -2 1 1
594 98 1 3.1932000000000002e-02 -1.1218379655817925e+01 -2.4435713366157152e-01 8.9744274429870430e-01 0 -3 2
753 125 2 4.0257300000000001e-01 -1.0419514702692231e+01 -2.3528084313406534e+00 5.5332696185497969e+00 0 1 0
754 125 1 3.1932000000000002e-02 -8.3520755055904683e+00 -2.5134488215102966e+00 7.6783382078395501e+00 0 1 0
286 47 1 3.1932000000000002e-02 -8.0065276136813388e+00 -4.5941930846857710e+00 6.3233624783010800e+00 1 2 0
756 125 1 3.1932000000000002e-02 -9.9417822363616999e+00 -3.4079916965129629e+00 7.5606023767685162e+00 0 1 0
551 91 1 3.1932000000000002e-02 -8.4195323720091313e+00 -1.0741421371711422e+00 1.0057252091072927e+01 -2 0 1
751 125 3 9.9454000000000001e-02 -9.4144792143308376e+00 -2.4854505207126216e+00 7.2633639237089529e+00 0 1 0
283 47 3 9.9454000000000001e-02 -7.4481573092250546e+00 -5.4353184200324414e+00 5.9160732942958720e+00 1 2 0
552 91 1 3.1932000000000002e-02 -6.7575012558559724e+00 -1.2987425207459395e+00 1.0259146339738004e+01 -2 0 1
245 40 1 3.1932000000000002e-02 -5.9715679239309400e+00 -4.7198130757818371e+00 1.0538753782066062e+01 2 -1 1
752 125 4 -5.9782299999999999e-01 -9.5176510532223162e+00 -2.1902860690491810e+00 5.8650109637249717e+00 0 1 0
246 40 1 3.1932000000000002e-02 -5.9843917826577675e+00 -3.2035979589049841e+00 9.6880196848369540e+00 2 -1 1
333 55 2 4.0257300000000001e-01 -5.8545189455708755e+00 -7.6110266793377157e-01 7.9856582196999870e+00 -1 2 1
755 125 1 3.1932000000000002e-02 -9.9240978133019446e+00 -1.7509674574174632e+00 7.8271233812796179e+00 0 1 0
547 91 3 9.9454000000000001e-02 -7.4907012625105445e+00 -4.8637251827555517e-01 1.0092828228563723e+01 -2 0 1
153 25 2 4.0257300000000001e-01 -9.7208013833234084e+00 -1.1298372499017617e-01 6.2123510139233584e+00 1 0 -1
429 71 2 4.0257300000000001e-01 -7.4260922829136096e+00 1.2808986128437958e+00 -8.4622030492730183e+00 -2 1 0
431 71 1 3.1932000000000002e-02 -8.4103718844145607e+00 3.1203645065673147e+00 -9.4383920424381103e+00 -2 1 0
795 132 2 4.0257300000000001e-01 -9.4465876949856096e+00 1.1610522474321172e-01 -8.4142750611085848e+00 0 -1 4
428 71 4 -5.9782299999999999e-01 -7.9802894672817297e+00 1.7216764012069046e+00 -7.8930085089450035e+00 -2 1 0
2 0 4 -5.9782299999999999e-01 -6.1136690350342429e+00 4.7824070864585533e+00 -5.9196019384853944e+00 0 0 -1
427 71 3 9.9454000000000001e-02 -8.2936156454704868e+00 3.0619396642047132e+00 -8.3517514979883796e+00 -2 1 0
430 71 1 3.1932000000000002e-02 -7.5287705400733671e+00 3.7879667825381702e+00 -8.1233636701971577e+00 -2 1 0
299 49 1 3.1932000000000002e-02 -9.9212415577399771e+00 3.6097928645921264e+00 -1.1148224017094883e+01 0 3 3
537 89 2 4.0257300000000001e-01 -6.2504942395805108e+00 4.4864864198876244e+00 -1.0553349604727023e+01 1 -2 -1
432 71 1 3.1932000000000002e-02 -9.2352244596646731e+00 3.4611692934078100e+00 -7.9125622930115256e+00 -2 1 0
848 141 4 -5.9782299999999999e-01 -5.6317989635481114e+00 1.0413809990885525e-01 -8.7313657755203380e+00 1 2 3
536 89 4 -5.9782299999999999e-01 -6.4365008075918348e+00 3.7870121071581693e+00 -1.1143560500264414e+01 1 -2 -1
662 110 4 -5.9782299999999999e-01 -6.8404986639055538e+00 2.4439277662470236e+00 -2.3249984403710773e+00 2 -1 -2
525 87 2 4.0257300000000001e-01 -8.7758039764712485e+00 2.2508993672083992e+00 -2.2639078708117530e+00 3 -3 -2
523 87 3 9.9454000000000001e-02 -1.0606822867927523e+01 2.4998901563660887e+00 -2.7516158542785583e+00 3 -3 -2
6 0 1 3.1932000000000002e-02 -8.1771563971561037e+00 5.2263241380456318e+00 -5.5264840180906019e+00 0 0 -1
4 0 1 3.1932000000000002e-02 -7.5308041150014553e+00 3.6548572790695317e+00 -4.7838956530095187e+00 0 0 -1
1 0 3 9.9454000000000001e-02 -7.2206067552348960e+00 4.7340801853094749e+00 -5.0783870517996359e+00 0 0 -1
524 87 4 -5.9782299999999999e-01 -9.5997070864105112e+00 1.7285635282618443e+00 -2.2712250868266590e+00 3 -3 -2
527 87 1 3.1932000000000002e-02 -1.0228633475443088e+01 3.3563145362254652e+00 -3.2388063476443545e+00 3 -3 -2
274 45 1 3.1932000000000002e-02 -7.8766518830971588e+00 2.2666178861933872e-01 -3.2953912123142715e-01 2 -4 1
663 110 2 4.0257300000000001e-01 -6.4732868951076599e+00 1.5655273103196432e+00 -2.3938854192195542e+00 2 -1 -2
665 110 1 3.1932000000000002e-02 -6.1212187384958296e+00 3.5545423811162848e+00 -8.4287872382364348e-01 2 -1 -2
591 98 2 4.0257300000000001e-01 -1.0227249348007877e+01 1.5219402491544560e+00 -1.1400644369884461e-01 0 -3 2
661 110 3 9.9454000000000001e-02 -5.8657840252067590e+00 3.2804436093182527e+00 -1.8766424967923037e+00 2 -1 -2
664 110 1 3.1932000000000002e-02 -5.7267753352746196e+00 4.1720443220805183e+00 -2.5138130461824542e+00 2 -1 -2
5 0 1 3.1932000000000002e-02 -6.9884873023434828e+00 5.2731026503975382e+00 -4.1346521642291432e+00 0 0 -1
528 87 1 3.1932000000000002e-02 -1.1202908864578580e+01 1.9238431921506045e+00 -3.4579717973339159e+00 3 -3 -2
493 82 3 9.9454000000000001e-02 -6.3766716087429947e+00 3.4582870619082335e+00 4.8125813513564690e+00 -1 1 1
498 82 1 3.1932000000000002e-02 -7.4301116764116566e+00 3.7526277314982011e+00 4.8968251212317444e+00 -1 1 1
496 82 1 3.1932000000000002e-02 -6.3891861829807972e+00 2.6904632540090283e+00 4.0974287785514427e+00 -1 1 1
480 79 1 3.1932000000000002e-02 -8.6939786267381720e+00 3.7670392238322439e+00 1.9402661183879228e+00 1 1 0
477 79 2 4.0257300000000001e-01 -6.5413662929130139e+00 4.2639484545829198e+00 2.3718762181119661e+00 1 1 0
479 79 1 3.1932000000000002e-02 -7.9473699881287541e+00 2.1812342854617963e+00 1.8803211161233477e+00 1 1 0
593 98 1 3.1932000000000002e-02 -1.0801475727498344e+01 4.1351099758302468e-01 2.4875331474248377e+00 0 -3 2
589 98 3 9.9454000000000001e-02 -1.0479786817206465e+01 3.8894743877450466e-01 1.4239283006828654e+00 0 -3 2
478 79 1 3.1932000000000002e-02 -8.1478343613263888e+00 3.0512983838874987e+00 4.2833441951367668e-01 1 1 0
590 98 4 -5.9782299999999999e-01 -1.0539613073356705e+01 1.6125699074651365e+00 8.1967227853177604e-01 0 -3 2
475 79 3 9.9454000000000001e-02 -7.9007691058378864e+00 3.2145351991235636e+00 1.5046596399167598e+00 1 1 0
476 79 4 -5.9782299999999999e-01 -6.6081453178505027e+00 3.8474398478546892e+00 1.5193782739483499e+00 1 1 0
468 77 1 3.1932000000000002e-02 -7.0653597724448423e+00 3.1214388161599516e-01 3.8741191762406864e+00 1 -1 -2
150 24 1 3.1932000000000002e-02 -1.1213862658516247e+01 4.5365716451849156e+00 4.3444313009339535e+00 1 1 0
154 25 1 3.1932000000000002e-02 -9.8904860909146439e+00 2.3434926999320229e+00 5.4794778549005674e+00 1 0 -1
298 49 1 3.1932000000000002e-02 -1.0603402736426107e+01 2.7939524766064725e+00 9.9132197244478117e+00 0 3 2
566 94 4 -5.9782299999999999e-01 -6.9973796536100430e+00 5.5271562422872496e+00 7.1752578449812834e+00 0 -2 0
549 91 2 4.0257300000000001e-01 -8.1044912055921898e+00 7.1764121276225445e-01 8.6843119889340361e+00 -2 0 1
156 25 1 3.1932000000000002e-02 -8.4746236429731923e+00 2.4984217579190524e+00 6.6944211414595589e+00 1 0 -1
570 94 1 3.1932000000000002e-02 -6.7227617259824939e+00 3.7050625027142061e+00 8.0582625437265403e+00 0 -2 0
296 49 4 -5.9782299999999999e-01 -8.6624131980969103e+00 2.2641619807330873e+00 1.0227296337007393e+01 0 3 2
151 25 3 9.9454000000000001e-02 -9.4672882495101938e+00 1.9436282311347792e+00 6.4198898135249625e+00 1 0 -1
297 49 2 4.0257300000000001e-01 -7.8778104875915611e+00 2.6930698760179652e+00 1.0529724194294642e+01 0 3 2
295 49 3 9.9454000000000001e-02 -9.6910482949519139e+00 3.2679235182182413e+00 1.0238759116245403e+01 0 3 2
300 49 1 3.1932000000000002e-02 -9.3818266998155853e+00 4.1115654160633390e+00 9.5744355145356064e+00 0 3 2
155 25 1 3.1932000000000002e-02 -1.0175986128692761e+01 2.0736487503113654e+00 7.2986452748937030e+00 1 0 -1
152 25 4 -5.9782299999999999e-01 -9.0927078657839999e+00 5.5999621002453637e-01 6.4215932335963704e+00 1 0 -1
569 94 1 3.1932000000000002e-02 -7.0004200773634420e+00 5.1061004409277846e+00 9.2258518476165552e+00 0 -2 0
548 91 4 -5.9782299999999999e-01 -7.2995734345530305e+00 2.2800731573921773e-01 8.8507852844409971e+00 -2 0 1
540 89 1 3.1932000000000002e-02 -5.8137901752798058e+00 1.8262462906524615e+00 1.1025614011736574e+01 1 -2 -2
565 94 3 9.9454000000000001e-02 -6.5491902715613834e+00 4.8054494982411615e+00 8.2711666165827165e+00 0 -2 0
550 91 1 3.1932000000000002e-02 -7.6222753140758481e+00 1.8540381491318669e-01 1.0954254688908494e+01 -2 0 1
497 82 1 3.1932000000000002e-02 -6.1040349263824476e+00 2.9532409912752033e+00 5.7352697217476827e+00 -1 1 1
420 69 1 3.1932000000000002e-02 -8.8041488849577032e+00 8.2634233618844011e+00 -7.8239505919934507e+00 2 -3 2
418 69 1 3.1932000000000002e-02 -7.4995087539180290e+00 9.1743459314298068e+00 -8.4698282058842480e+00 2 -3 2
839 139 1 3.1932000000000002e-02 -7.5934316397018478e+00 1.1084473068673629e+01 -7.0509330621357940e+00 -1 0 0
419 69 1 3.1932000000000002e-02 -7.6390116716103940e+00 7.4714167555843023e+00 -8.9312910193484214e+00 2 -3 2
416 69 4 -5.9782299999999999e-01 -6.7925987184966612e+00 7.8495655141562555e+00 -7.1176517226881328e+00 2 -3 2
3 0 2 4.0257300000000001e-01 -5.9514056839830207e+00 5.6826302951664172e+00 -6.2656203758017686e+00 0 0 -1
417 69 2 4.0257300000000001e-01 -7.0936928984900636e+00 8.2260481504812244e+00 -6.3281614140620874e+00 2 -3 2
415 69 3 9.9454000000000001e-02 -7.7418611968681113e+00 8.1663929920916463e+00 -8.1041183088583431e+00 2 -3 2
875 145 1 3.1932000000000002e-02 -6.1752153572044035e+00 9.7924518348106222e+00 -1.0815701783821051e+01 3 1 1
738 122 1 3.1932000000000002e-02 -1.1082631967379985e+01 8.7422279794721245e+00 -7.9003524544557724e+00 1 -1 0
172 28 1 3.1932000000000002e-02 -9.8522827386824776e+00 1.0284399361564946e+01 -1.0006257212430931e+01 -1 3 1
678 112 1 3.1932000000000002e-02 -9.1062375439329770e+00 5.8870713250232551e+00 -1.4163379431673562e-02 1 3 1
117 19 2 4.0257300000000001e-01 -1.0670545527848892e+01 9.1957465442084558e+00 -2.9957325264268455e+00 5 1 3
676 112 1 3.1932000000000002e-02 -7.7760162743585752e+00 6.0538263676538957e+00 -1.2217100663444942e+00 1 3 1
116 19 4 -5.9782299999999999e-01 -9.9699925957889128e+00 8.6716732029417241e+00 -2.6978467410537501e+00 5 1 3
837 139 2 4.0257300000000001e-01 -7.2995274723855896e+00 1.0322732991073954e+01 -4.2593780134625066e+00 -1 0 0
115 19 3 9.9454000000000001e-02 -9.7938660654876983e+00 7.6240103196652615e+00 -3.6454892795912297e+00 5 1 3
119 19 1 3.1932000000000002e-02 -1.0538410778905877e+01 6.8446961258159202e+00 -3.4521615977159303e+00 5 1 3
120 19 1 3.1932000000000002e-02 -9.7332540298286023e+00 7.9621728742108235e+00 -4.6972886081471357e+00 5 1 3
675 112 2 4.0257300000000001e-01 -9.0547771635285503e+00 8.0730846533518399e+00 -1.0879339870202092e+00 1 3 1
899 149 1 3.1932000000000002e-02 -5.7673419959737187e+00 8.2877156470869888e+00 -3.2660867508960187e+00 -2 0 0
674 112 4 -5.9782299999999999e-01 -8.5358269353692275e+00 7.8755054397476325e+00 -3.0602139962911501e-01 1 3 1
836 139 4 -5.9782299999999999e-01 -7.6688637162801374e+00 1.0253775820107608e+01 -5.1235789831017335e+00 -1 0 0
673 112 3 9.9454000000000001e-02 -8.2453273521826489e+00 6.4977898326957249e+00 -2.9339120983523159e-01 1 3 1
118 19 1 3.1932000000000002e-02 -8.8011392171213139e+00 7.1081499690766297e+00 -3.4872745619190519e+00 5 1 3
897 149 2 4.0257300000000001e-01 -6.3415078957413522e+00 1.0448208235632878e+01 -1.6237350443593588e+00 -2 0 0
896 149 4 -5.9782299999999999e-01 -6.3225788194387338e+00 1.0095835719698583e+01 -2.5037758506937973e+00 -2 0 0
898 149 1 3.1932000000000002e-02 -6.3256588192538343e+00 8.2343837584563051e+00 -1.6694507922568658e+00 -2 0 0
24 3 1 3.1932000000000002e-02 -1.0238231604382499e+01 1.0141305460858339e+01 -1.2472983094321322e-02 1 1 1
895 149 3 9.9454000000000001e-02 -5.7308034471956777e+00 8.8079339345828256e+00 -2.3737620707118889e+00 -2 0 0
707 117 1 3.1932000000000002e-02 -9.0944804167508906e+00 1.1169421771035347e+01 -1.8021019942783809e+00 -2 0 -1
393 65 2 4.0257300000000001e-01 -7.6606055964871214e+00 8.4856453384379318e+00 1.5734301534022883e+00 2 0 0
396 65 1 3.1932000000000002e-02 -9.2280472814802543e+00 7.5543597784401531e+00 2.9874103495946365e+00 2 0 0
824 137 4 -5.9782299999999999e-01 -1.1058908360951577e+01 1.1060339864477028e+01 4.1704244429455510e+00 -1 -2 2
392 65 4 -5.9782299999999999e-01 -7.7421504056653276e+00 8.9825258935070256e+00 2.4102747914696021e+00 2 0 0
395 65 1 3.1932000000000002e-02 -9.7125651592866618e+00 9.0270965739115052e+00 2.5636301989787800e+00 2 0 0
513 85 2 4.0257300000000001e-01 -6.9577682437886379e+00 1.0147149664965296e+01 3.9824225978609675e+00 -3 0 0
512 85 4 -5.9782299999999999e-01 -6.3580520860477998e+00 1.0699867550757881e+01 4.4803649485420589e+00 -3 0 0
394 65 1 3.1932000000000002e-02 -9.0449811309587478e+00 8.9626309303443303e+00 4.0476992423948879e+00 2 0 0
391 65 3 9.9454000000000001e-02 -8.9196527402045760e+00 8.6178874712363491e+00 3.0310480838454357e+00 2 0 0
677 112 1 3.1932000000000002e-02 -7.4940375275412929e+00 6.2969665290002919e+00 4.8917718634119467e-01 1 3 1
514 85 1 3.1932000000000002e-02 -5.9473625383883304e+00 1.1089277833720741e+01 6.4411257644559132e+00 -3 0 0
293 48 1 3.1932000000000002e-02 -1.0347364596614245e+01 6.2528806024497623e+00 7.0992514790415395e+00 0 -1 -2
443 73 1 3.1932000000000002e-02 -8.3558169823616399e+00 9.1876762541332990e+00 1.0327707318031427e+01 -2 0 -3
439 73 3 9.9454000000000001e-02 -8.4487448046023168e+00 8.1739024395732915e+00 9.9377168691322293e+00 -2 0 -3
440 73 4 -5.9782299999999999e-01 -7.8863401999904497e+00 8.0175499626132858e+00 8.6544685987112384e+00 -2 0 -3
442 73 1 3.1932000000000002e-02 -8.0130541743590893e+00 7.5268824067411568e+00 1.0648679154607008e+01 -2 0 -3
294 48 1 3.1932000000000002e-02 -1.0948789047253582e+01 7.7370383832976319e+00 6.4364074235297490e+00 0 -1 -2
444 73 1 3.1932000000000002e-02 -9.5468883516151628e+00 7.9933333916942555e+00 9.9172607467208262e+00 -2 0 -3
515 85 1 3.1932000000000002e-02 -7.6963193501996630e+00 1.1109253366688636e+01 6.1242857533591231e+00 -3 0 0
441 73 2 4.0257300000000001e-01 -7.0461631273037604e+00 8.4878956099706304e+00 8.5961151626991583e+00 -2 0 -3
567 94 2 4.0257300000000001e-01 -7.3872329456671242e+00 6.3920039682254650e+00 7.4211694868221425e+00 0 -2 0
511 85 3 9.9454000000000001e-02 -6.7522104965934444e+00 1.0619206007579296e+01 5.9069479010006152e+00 -3 0 0
516 85 1 3.1932000000000002e-02 -6.9057468850006485e+00 9.6598902297253826e+00 6.3234536536992305e+00 -3 0 0
534 88 1 3.1932000000000002e-02 -2.4950677134680195e+00 -6.3604836058592884e+00 -6.8791744475404819e+00 -1 -2 0
8 1 4 -5.9782299999999999e-01 -4.6535591335072803e+00 -9.7668073601430567e+00 -7.6995790011668941e+00 -3 -1 0
10 1 1 3.1932000000000002e-02 -3.1250897634675514e+00 -8.4788992847028783e+00 -8.0206206277081602e+00 -3 -1 0
12 1 1 3.1932000000000002e-02 -3.0511459156836676e+00 -9.8816953067321425e+00 -8.9708616926339921e+00 -3 -1 0
11 1 1 3.1932000000000002e-02 -2.6050161291927552e+00 -9.9455357986897770e+00 -7.2780365301515078e+00 -3 -1 0
857 142 1 3.1932000000000002e-02 -7.7071186826225357e-01 -1.0943316296875148e+01 -9.3668171380779537e+00 3 1 -1
533 88 1 3.1932000000000002e-02 -1.1568832994441554e+00 -7.2744365053268893e+00 -7.3871132887396396e+00 -1 -2 0
7 1 3 9.9454000000000001e-02 -3.3461932822470732e+00 -9.5346935346961068e+00 -7.9978222438825579e+00 -3 -1 0
529 88 3 9.9454000000000001e-02 -1.4952304494939046e+00 -6.7608897963167189e+00 -6.5340030164623188e+00 -1 -2 0
873 145 2 4.0257300000000001e-01 -5.0620295095490961e+00 -1.0670743218681688e+01 -9.7969029769479370e+00 3 2 1
532 88 1 3.1932000000000002e-02 -1.0119178056103841e+00 -5.8004540378456531e+00 -6.3541875693487366e+00 -1 -2 0
9 1 2 4.0257300000000001e-01 -4.8427062933175122e+00 -8.9758555551979189e+00 -7.3034153086830020e+00 -3 -1 0
872 145 4 -5.9782299999999999e-01 -4.7265799250807001e+00 -1.1189390443457119e+01 -1.0517127337434818e+01 3 2 1
312 51 1 3.1932000000000002e-02 -2.8127974514060252e+00 -7.6346033345987827e+00 -1.0884889003963369e+01 -2 1 4
629 104 1 3.1932000000000002e-02 -2.5796018521410424e-01 -1.1177475417402290e+01 -6.7703646079224464e+00 0 -2 1
698 116 4 -5.9782299999999999e-01 -5.6113417021030063e+00 -7.3012618749867375e+00 -6.7688429105175896e+00 -2 1 -1
607 101 3 9.9454000000000001e-02 -4.0305883747218179e+00 -9.9453811096055134e+00 -4.2984804500960534e+00 -1 -1 1
719 119 1 3.1932000000000002e-02 -2.9772984203991530e+00 -6.4005880105459543e+00 -1.0498240591586789e+00 -1 0 0
530 88 4 -5.9782299999999999e-01 -1.6547988805319616e+00 -7.5665788931575158e+00 -5.3713393051697453e+00 -1 -2 0
611 101 1 3.1932000000000002e-02 -4.3709221048142970e+00 -9.0612854749087255e+00 -3.7761491822528805e+00 -1 -1 1
214 35 1 3.1932000000000002e-02 -4.4325970448264611e+00 -9.8230389439823202e+00 -1.1338310784233823e+00 2 2 -1
609 101 2 4.0257300000000001e-01 -2.4981856122221462e+00 -8.9817719578907642e+00 -4.4083047616503599e+00 -1 -1 1
612 101 1 3.1932000000000002e-02 -4.3689022220700453e+00 -9.8732860725311316e+00 -5.3522854918217524e+00 -1 -1 1
610 101 1 3.1932000000000002e-02 -4.3792624337720074e+00 -1.0876764954763228e+01 -3.7981361481908094e+00 -1 -1 1
608 101 4 -5.9782299999999999e-01 -2.7007678793638981e+00 -9.8716717555558837e+00 -4.1223709025210287e+00 -1 -1 1
720 119 1 3.1932000000000002e-02 -1.4570333998887186e+00 -5.7438935627764520e+00 -1.4230023191556107e+00 -1 0 0
531 88 2 4.0257300000000001e-01 -8.8335965569859276e-01 -7.5549830538640830e+00 -4.8452632591990970e+00 -1 -2 0
718 119 1 3.1932000000000002e-02 -1.5963166674077147e+00 -7.4201617764883636e+00 -7.9715213487925674e-01 -1 0 0