LAMMPS data file via vdw_self_gen.py, on 2021-08-05 13:25:06.590129

7500 atoms
9 atom types
7000 bonds
9 bond types
12500 angles
15 angle types
15000 dihedrals
12 dihedral types

-43.8163847229662338  43.8163847229662338 xlo xhi
-43.8163847229662338  43.8163847229662338 ylo yhi
-43.8163847229662338  43.8163847229662338 zlo zhi

Masses

1  1.007940
2  1.007940
3  1.007940
4  1.007940
5  12.011000
6  12.011000
7  12.011000
8  12.011000
9  15.999400

Atoms

1         0    5   -0.1079060000000000  -32.7295543286708011  25.6029606133858287 -5.9447833446717251  0 0 0
2         0    6   -0.0058890000000000  -33.3323662710002253  24.2739790183167088 -5.5173321132399087  0 0 0
3         0    8   -0.0368270000000000  -34.5244818736366597  24.4713766985397285 -4.5848982526935718  0 0 0
4         0    7    0.2691680000000000  -35.1305122145255311  23.1409111732615891 -4.1567922221725349  0 0 0
5         0    9   -0.6441380000000000  -36.2373764367024194  23.3704337531688715 -3.2945842852585541  0 0 0
6         0    1    0.0285690000000000  -31.8779886775100465  25.4353184932234875 -6.6117875427924186  0 0 0
7         0    1    0.0285690000000000  -32.3750723164511101  26.1703515490504337 -5.0783187197514001  0 0 0
8         0    1    0.0285690000000000  -33.4639135862824304  26.2140903645159753 -6.4791950187991763  0 0 0
9         0    2    0.0140440000000000  -32.5628187579991391  23.6762471961963179 -5.0152061864461617  0 0 0
10        0    2    0.0140440000000000  -33.6446846976838927  23.7180281566886535 -6.4089418641449001  0 0 0
11        0    2    0.0140440000000000  -35.2951816448212909  25.0788546035053876 -5.0755909310315364  0 0 0
12        0    2    0.0140440000000000  -34.2194489323959274  25.0360105897719514 -3.6951290448480849  0 0 0
13        0    3   -0.0094320000000000  -34.4004218875866954  22.5216240912822556 -3.6257819425132203  0 0 0
14        0    3   -0.0094320000000000  -35.4902914480022815  22.5791708786619552 -5.0243480402511169  0 0 0
15        0    4    0.4025730000000000  -35.9070420280042839  23.8471821784827895 -2.5146183629960799  0 0 0
16        1    5   -0.1079060000000000   24.1991161871437264 -5.4011724867541702   26.4076606155690001 0 0 0
17        1    6   -0.0058890000000000   24.6458676601367799 -5.5784875845250053   24.9650028770249364 0 0 0
18        1    8   -0.0368270000000000   24.2076483924708832 -4.4053167834469056   24.0925508706405509 0 0 0
19        1    7    0.2691680000000000   24.6556459592133521 -4.5806779064996546   22.6471330355096505 0 0 0
20        1    9   -0.6441380000000000   24.2312368696784723 -3.4668126264377301   21.8722700733719897 0 0 0
21        1    1    0.0285690000000000   24.5247047644448379 -6.2535774294399786   27.0122765523551855 0 0 0
22        1    1    0.0285690000000000   23.1086160984453635 -5.3339317780069990   26.4757720003444597 0 0 0
23        1    1    0.0285690000000000   24.6276865920272421 -4.4928858433097369   26.8432082143437221 0 0 0
24        1    2    0.0140440000000000   24.2256592898837440 -6.5114090948403556   24.5716842613197919 0 0 0
25        1    2    0.0140440000000000   25.7372536387532058 -5.6767801311712507   24.9365893405808770 0 0 0
26        1    2    0.0140440000000000   24.6145150373611230 -3.4653940102294083   24.4859864569350343 0 0 0
27        1    2    0.0140440000000000   23.1164988179314790 -4.2963644035019843   24.1252273834106958 0 0 0
28        1    3   -0.0094320000000000   24.2349897461692620 -5.4899950593700604   22.2058723886997846 0 0 0
29        1    3   -0.0094320000000000   25.7464071926613904 -4.6405066764456562   22.5815067999505210 0 0 0
30        1    4    0.4025730000000000   23.2606931117310936 -3.4339960576314961   21.9137984879957379 0 0 0
31        2    5   -0.1079060000000000  -3.7168934495366956   12.8358283774004285  14.9396430696425782 0 0 0
32        2    6   -0.0058890000000000  -4.0864175177484494   14.2982111192946579  15.1324578831869871 0 0 0
33        2    8   -0.0368270000000000  -5.3449526514139700   14.6676634418837377  14.3519883724672876 0 0 0
34        2    7    0.2691680000000000  -5.7173965536201772   16.1321262076425604  14.5451732808204586 0 0 0
35        2    9   -0.6441380000000000  -6.8942881999602363   16.4318937309221944  13.8060541887508617 0 0 0
36        2    1    0.0285690000000000  -2.8129008135441262   12.5956488437121337  15.5082146523553224 0 0 0
37        2    1    0.0285690000000000  -3.5227888634438096   12.6154309495597641  13.8850818810153278 0 0 0
38        2    1    0.0285690000000000  -4.5204477486956485   12.1781960914714293  15.2863117792299388 0 0 0
39        2    2    0.0140440000000000  -3.2490043030476992   14.9256396722395213  14.8058240345214376 0 0 0
40        2    2    0.0140440000000000  -4.2398585004910663   14.4919929466420854  16.2003982262328279 0 0 0
41        2    2    0.0140440000000000  -6.1859423555420392   14.0361439953745517  14.6645685271977300 0 0 0
42        2    2    0.0140440000000000  -5.2001629780134229   14.4663663300702154  13.2833157411848628 0 0 0
43        2    3   -0.0094320000000000  -4.9163299453718530   16.7964160445372244  14.2052738924009017 0 0 0
44        2    3   -0.0094320000000000  -5.9176826870752626   16.3477576451639095  15.5992296838644737 0 0 0
45        2    4    0.4025730000000000  -6.7022413041059377   16.2626082189167676  12.8683884019601802 0 0 0
46        3    5   -0.1079060000000000  -34.7588779388673430 -14.0538445340145053  26.2926896568285393 0 0 0
47        3    6   -0.0058890000000000  -34.1016865045344488 -14.9639430061743202  25.2669659792662777 0 0 0
48        3    8   -0.0368270000000000  -34.0357570582965749 -14.3055164772105439  23.8915874231678167 0 0 0
49        3    7    0.2691680000000000  -33.3763338827925367 -15.2154272076718016  22.8630400982480424 0 0 0
50        3    9   -0.6441380000000000  -33.3320705193005509 -14.5634019546152693  21.6004493603092023 0 0 0
51        3    1    0.0285690000000000  -34.7942681912646705 -14.5473406555131497  27.2690971778468096 0 0 0
52        3    1    0.0285690000000000  -35.7845440060077777 -13.8078716901003400  25.9996753297497456 0 0 0
53        3    1    0.0285690000000000  -34.1996593962998645 -13.1194752074077083  26.4048837410980219 0 0 0
54        3    2    0.0140440000000000  -34.6677555069500585 -15.9005319548131467  25.2038456331660399 0 0 0
55        3    2    0.0140440000000000  -33.0911303237688728 -15.2178418982022947  25.6074122543868334 0 0 0
56        3    2    0.0140440000000000  -33.4804672872013356 -13.3609152501135426  23.9478780865484389 0 0 0
57        3    2    0.0140440000000000  -35.0441121002197988 -14.0403778283224980  23.5503142541465138 0 0 0
58        3    3   -0.0094320000000000  -33.9272318892318268 -16.1545584976496279  22.7487418078592469 0 0 0
59        3    3   -0.0094320000000000  -32.3489523166426665 -15.4538287592028851  23.1550986037961763 0 0 0
60        3    4    0.4025730000000000  -34.2483081798943942 -14.3770486938195425  21.3348599516342325 0 0 0
61        4    5   -0.1079060000000000   15.9508742734075923  14.0022610498864406  13.0577339282828149 0 0 0
62        4    6   -0.0058890000000000   14.9190835898089826  13.7806806099004966  14.1525393753622293 0 0 0
63        4    8   -0.0368270000000000   14.4305794340522997  15.1018026325234196  14.7403647317812716 0 0 0
64        4    7    0.2691680000000000   13.3957412387219037  14.8816825679502873  15.8364227266235353 0 0 0
65        4    9   -0.6441380000000000   12.9658551600841907  16.1347710184799595  16.3523673380331758 0 0 0
66        4    1    0.0285690000000000   16.2851588583865947  13.0419032890654751  12.6526051506375445 0 0 0
67        4    1    0.0285690000000000   16.8278151865555756  14.5304560329994299  13.4454652937427674 0 0 0
68        4    1    0.0285690000000000   15.5312068351217878  14.5899314952763515  12.2350057725364252 0 0 0
69        4    2    0.0140440000000000   15.3618826179576651  13.1634539635023522  14.9428414947739672 0 0 0
70        4    2    0.0140440000000000   14.0720445658504545  13.2206619993098400  13.7396275739039808 0 0 0
71        4    2    0.0140440000000000   13.9960872536344976  15.7310921633474177  13.9536004224413706 0 0 0
72        4    2    0.0140440000000000   15.2760599774642074  15.6708798657304023  15.1463936999071862 0 0 0
73        4    3   -0.0094320000000000   13.8065602364718156  14.2901685622812842  16.6609584897564460 0 0 0
74        4    3   -0.0094320000000000   12.5173954151928886  14.3597877689695235  15.4442737931990468 0 0 0
75        4    4    0.4025730000000000   13.7455789721207040  16.5823905956084872  16.7217238238494161 0 0 0
76        5    5   -0.1079060000000000  -34.1265048668504818  32.0768439206926672  15.3517570327872548 0 0 0
77        5    6   -0.0058890000000000  -34.6950699013436648  33.3033893894357860  14.6556184777872449 0 0 0
78        5    8   -0.0368270000000000  -33.6597602257587525  34.4197725139508677  14.5490307043880058 0 0 0
79        5    7    0.2691680000000000  -34.2273191857479375  35.6488845690843306  13.8505706523724434 0 0 0
80        5    9   -0.6441380000000000  -33.2313864017179270  36.6601911651984267  13.7692785503552511 0 0 0
81        5    1    0.0285690000000000  -34.8864330518512133  31.2916282462456152  15.4158510047669939 0 0 0
82        5    1    0.0285690000000000  -33.8012802780002772  32.3178380861487256  16.3688615977771796 0 0 0
83        5    1    0.0285690000000000  -33.2690368188213696  31.6750847135092251  14.8024875038194796 0 0 0
84        5    2    0.0140440000000000  -35.5691395934154215  33.6591776487454482  15.2133227365471910 0 0 0
85        5    2    0.0140440000000000  -35.0418329890823443  33.0199514858175291  13.6551133934051467 0 0 0
86        5    2    0.0140440000000000  -32.7759793841699008  34.0684936139140433  14.0019279669342271 0 0 0
87        5    2    0.0140440000000000  -33.3020230690383485  34.7006053142699997  15.5473807605138727 0 0 0
88        5    3   -0.0094320000000000  -35.0887438873441511  36.0537848675732491  14.3914250914440487 0 0 0
89        5    3   -0.0094320000000000  -34.5450343957937918  35.4065086296869183  12.8317687569056460 0 0 0
90        5    4    0.4025730000000000  -32.9716110523371455  36.8890009369998921  14.6775293850271780 0 0 0
91        6    5   -0.1079060000000000  -32.2113867084608003 -25.3311280939438639 -4.5484518179332349  0 0 0
92        6    6   -0.0058890000000000  -33.6957373138573999 -25.0825879597874710 -4.3311502876296437  0 0 0
93        6    8   -0.0368270000000000  -34.2228035807207505 -23.9855894401085337 -5.2522006427443646  0 0 0
94        6    7    0.2691680000000000  -35.7101249789721322 -23.7362744834350323 -5.0367866875732901  0 0 0
95        6    9   -0.6441380000000000  -36.1596130132206142 -22.7126606471685832 -5.9150843414306449  0 0 0
96        6    1    0.0285690000000000  -31.8575776796992756 -26.1205694281927840 -3.8778072847071021  0 0 0
97        6    1    0.0285690000000000  -31.6279438253847935 -24.4273108136788757 -4.3458200258019275  0 0 0
98        6    1    0.0285690000000000  -32.0119410183422275 -25.6457960243648913 -5.5778032834967126  0 0 0
99        6    2    0.0140440000000000  -33.8627300447245787 -24.8014002938808105 -3.2848883334902976  0 0 0
100       6    2    0.0140440000000000  -34.2455277664038675 -26.0141758131624776 -4.5085386689653548  0 0 0
101       6    2    0.0140440000000000  -34.0491494060753794 -24.2536919521766308 -6.3018444478282643  0 0 0
102       6    2    0.0140440000000000  -33.6691226988626013 -23.0532673089275839 -5.0855912361221618  0 0 0
103       6    3   -0.0094320000000000  -35.9183984600864008 -23.4258805168620370 -4.0078075648114995  0 0 0
104       6    3   -0.0094320000000000  -36.2913294668450845 -24.6394392041255763 -5.2468847205871780  0 0 0
105       6    4    0.4025730000000000  -35.6577691396168035 -21.9067673782368004 -5.7066485284887154  0 0 0
106       7    5   -0.1079060000000000  -24.0690970365530568  3.8905590024944798  -35.9604710412788080 0 0 0
107       7    6   -0.0058890000000000  -24.1789098543413132  3.9612824297005744  -34.4454699802251696 0 0 0
108       7    8   -0.0368270000000000  -24.5108871233051353  5.3735135918315393  -33.9711993864735149 0 0 0
109       7    7    0.2691680000000000  -24.6226630391596046  5.4458612155947481  -32.4536493782791524 0 0 0
110       7    9   -0.6441380000000000  -24.9359504219750647  6.7743878659160366  -32.0560320966442234 0 0 0
111       7    1    0.0285690000000000  -23.8309471626033549  2.8696814901819474  -36.2755206903697101 0 0 0
112       7    1    0.0285690000000000  -23.2783279328778328  4.5521542465423179  -36.3283390540577784 0 0 0
113       7    1    0.0285690000000000  -25.0106451375959509  4.1817278957796056  -36.4369862859516687 0 0 0
114       7    2    0.0140440000000000  -23.2317609925656683  3.6332766736506676  -34.0016925473432963 0 0 0
115       7    2    0.0140440000000000  -24.9540495204751949  3.2632007190638639  -34.1086725168137264 0 0 0
116       7    2    0.0140440000000000  -25.4522126625407061  5.7144671445663500  -34.4200242420245033 0 0 0
117       7    2    0.0140440000000000  -23.7430378037717880  6.0780677300653627  -34.3140647512885906 0 0 0
118       7    3   -0.0094320000000000  -23.6860702199793351  5.1511590002078496  -31.9694337364355547 0 0 0
119       7    3   -0.0094320000000000  -25.4185352898789994  4.7888638093827627  -32.0895228595173805 0 0 0
120       7    4    0.4025730000000000  -24.2134451604289431  7.3491050566322844  -32.3600765345696573 0 0 0
121       8    5   -0.1079060000000000  -22.3711557505718979  24.4660723637045017  34.8968548065682782 0 0 0
122       8    6   -0.0058890000000000  -23.4104147049605693  24.0904148398020119  33.8522921595439641 0 0 0
123       8    8   -0.0368270000000000  -24.8014309716931507  24.5845571616586618  34.2401522759976586 0 0 0
124       8    7    0.2691680000000000  -25.8436323900152978  24.2102599248993968  33.1940146925022219 0 0 0
125       8    9   -0.6441380000000000  -27.1207499581928566  24.6918195473590529  33.5918872783494535 0 0 0
126       8    1    0.0285690000000000  -21.3836870647603945  24.1014889811883890  34.5966097554270604 0 0 0
127       8    1    0.0285690000000000  -22.6141749785728479  24.0253807077058745  35.8690088253610782 0 0 0
128       8    1    0.0285690000000000  -22.3095253123171986  25.5523757055133061  35.0172942853763587 0 0 0
129       8    2    0.0140440000000000  -23.4226383169269923  23.0006467370888998  33.7345075344032068 0 0 0
130       8    2    0.0140440000000000  -23.1190608028252456  24.5180249451418533  32.8859306280135684 0 0 0
131       8    2    0.0140440000000000  -24.7956241255936014  25.6738161026793641  34.3715603687653086 0 0 0
132       8    2    0.0140440000000000  -25.0939741701587486  24.1671639859434109  35.2116187877714140 0 0 0
133       8    3   -0.0094320000000000  -25.9077045661230194  23.1251113696804715  33.0641391295386740 0 0 0
134       8    3   -0.0094320000000000  -25.6018248937407051  24.6579550083480115  32.2251263604941656 0 0 0
135       8    4    0.4025730000000000  -27.3409413515994224  24.2714519773387423  34.4401582131603163 0 0 0
136       9    5   -0.1079060000000000   26.0068783441207820 -13.2787767095283229 -14.8029099980038321 0 0 0
137       9    6   -0.0058890000000000   24.6456112248472614 -13.7168176304545071 -14.2858405107209911 0 0 0
138       9    8   -0.0368270000000000   24.2914230301905079 -15.1244991177738406 -14.7575627929212523 0 0 0
139       9    7    0.2691680000000000   22.9284963176664967 -15.5654891555720649 -14.2392534024494992 0 0 0
140       9    9   -0.6441380000000000   22.6405616757013526 -16.8800806890583246 -14.6977010979859291 0 0 0
141       9    1    0.0285690000000000   26.2379112541490578 -12.2680920133935984 -14.4517650443409451 0 0 0
142       9    1    0.0285690000000000   26.0273042630865810 -13.2704565236872565 -15.8973799489124694 0 0 0
143       9    1    0.0285690000000000   26.7963478545984692 -13.9495693504526290 -14.4491670767913778 0 0 0
144       9    2    0.0140440000000000   23.8853740940510804 -13.0067748485884245 -14.6315223083017258 0 0 0
145       9    2    0.0140440000000000   24.6490584416244403 -13.6807556383829088 -13.1902677118964107 0 0 0
146       9    2    0.0140440000000000   25.0537344871972252 -15.8403764358522690 -14.4256173834378085 0 0 0
147       9    2    0.0140440000000000   24.2961632555590832 -15.1685907528654642 -15.8537284864085155 0 0 0
148       9    3   -0.0094320000000000   22.1338919930554603 -14.8963692579548805 -14.5848005373272240 0 0 0
149       9    3   -0.0094320000000000   22.9133316757644714 -15.5795897045539764 -13.1450790282959122 0 0 0
150       9    4    0.4025730000000000   22.6304514464396824 -16.8556857867127050 -15.6693282870372776 0 0 0
151       10   5   -0.1079060000000000   14.7606295630001387  6.7471977860203456   35.0872875483587663 0 0 0
152       10   6   -0.0058890000000000   14.3586600184272637  5.2877082351193643   34.9437619090229461 0 0 0
153       10   8   -0.0368270000000000   14.8457683817153718  4.6977026296174964   33.6230964758449744 0 0 0
154       10   7    0.2691680000000000   14.4451061626927810  3.2351061375732693   33.4782954084877176 0 0 0
155       10   9   -0.6441380000000000   14.9208661768553981  2.7252174244876786   32.2393856229537050 0 0 0
156       10   1    0.0285690000000000   14.4006464510299974  7.1470201053176519   36.0405539387701808 0 0 0
157       10   1    0.0285690000000000   14.3331568039760171  7.3534000459823146   34.2822181243900701 0 0 0
158       10   1    0.0285690000000000   15.8492405732324961  6.8595796929207768   35.0616886264613328 0 0 0
159       10   2    0.0140440000000000   13.2670925386073311  5.2087367998064877   35.0058996729364367 0 0 0
160       10   2    0.0140440000000000   14.7736008668176986  4.7168402532337597   35.7825264455258250 0 0 0
161       10   2    0.0140440000000000   15.9369826058696624  4.7831585451558123   33.5473623989518330 0 0 0
162       10   2    0.0140440000000000   14.4411125607662303  5.2715801781262597   32.7802062128275651 0 0 0
163       10   3   -0.0094320000000000   13.3574769287389348  3.1138566155219527   33.5079853958789897 0 0 0
164       10   3   -0.0094320000000000   14.8796215830010077  2.6305349686965869   34.2803779504853878 0 0 0
165       10   4    0.4025730000000000   14.5119624001008471  3.2496684540306355   31.5305093703769970 0 0 0
166       11   5   -0.1079060000000000  -34.5584608455552598 -33.8020732667967110 -22.2777224587144431 0 0 0
167       11   6   -0.0058890000000000  -33.8850726995261979 -34.4843505489636470 -23.4581185736379361 0 0 0
168       11   8   -0.0368270000000000  -34.1691658531984785 -33.7528434053309780 -24.7672124348071492 0 0 0
169       11   7    0.2691680000000000  -33.4940893844874807 -34.4342836430297154 -25.9506806537457706 0 0 0
170       11   9   -0.6441380000000000  -33.7807142230598174 -33.7200770403038490 -27.1460829617727342 0 0 0
171       11   1    0.0285690000000000  -34.3402092861215493 -34.3442033618176197 -21.3521827481253403 0 0 0
172       11   1    0.0285690000000000  -35.6451735632397089 -33.7755012335814016 -22.4069521510210947 0 0 0
173       11   1    0.0285690000000000  -34.2006165225059675 -32.7740997959156388 -22.1612024474454827 0 0 0
174       11   2    0.0140440000000000  -34.2416518292445460 -35.5187258187047021 -23.5254704696573640 0 0 0
175       11   2    0.0140440000000000  -32.8041008793594031 -34.5246311518968696 -23.2807221105034579 0 0 0
176       11   2    0.0140440000000000  -33.8257289368915721 -32.7126998926217141 -24.7044477601370716 0 0 0
177       11   2    0.0140440000000000  -35.2505305472260204 -33.7010872506249441 -24.9447440335741497 0 0 0
178       11   3   -0.0094320000000000  -33.8432052027750601 -35.4649173846405077 -26.0708161130187257 0 0 0
179       11   3   -0.0094320000000000  -32.4074767895722715 -34.4530515355776785 -25.8219670659589760 0 0 0
180       11   4    0.4025730000000000  -34.7449585385093869 -33.7286097714667648 -27.2682173759322524 0 0 0
181       12   5   -0.1079060000000000   14.0822940844351283  36.0451731260322958  34.7363117914181316 0 0 0
182       12   6   -0.0058890000000000   15.0260092910452183  34.9645748260702760  34.2323298512336578 0 0 0
183       12   8   -0.0368270000000000   14.2859820668480797  33.6607936664021494  33.9458813329245075 0 0 0
184       12   7    0.2691680000000000   15.2297707397812125  32.5774902620225575  33.4395190749483788 0 0 0
185       12   9   -0.6441380000000000   14.5005944863638465  31.3844730342899467  33.1821410780538528 0 0 0
186       12   1    0.0285690000000000   14.6355002688404525  36.9687420151416148  34.9341651805856444 0 0 0
187       12   1    0.0285690000000000   13.5930575122679755  35.7371693390066980  35.6658988829442620 0 0 0
188       12   1    0.0285690000000000   13.3066082597643103  36.2662710955152505  33.9961860462266330 0 0 0
189       12   2    0.0140440000000000   15.8064337634263694  34.7918227681498067  34.9824708524413168 0 0 0
190       12   2    0.0140440000000000   15.5235758748594712  35.3184353703574274  33.3219440440243062 0 0 0
191       12   2    0.0140440000000000   13.4948286873644854  33.8270883470678996  33.2041204171207909 0 0 0
192       12   2    0.0140440000000000   13.7779070343167938  33.3072526226584245  34.8516485553977731 0 0 0
193       12   3   -0.0094320000000000   16.0117408379837478  32.3541727304018423  34.1724394922434200 0 0 0
194       12   3   -0.0094320000000000   15.7119466444519507  32.8853215216129726  32.5065707025965409 0 0 0
195       12   4    0.4025730000000000   14.0956740630821393  31.1023743765435654  34.0195277991135114 0 0 0
196       13   5   -0.1079060000000000  -25.7813960529264108 -14.8603531276432754  13.0453746508409623 0 0 0
197       13   6   -0.0058890000000000  -24.3887473392299938 -14.6413793671367607  13.6153473918991619 0 0 0
198       13   8   -0.0368270000000000  -24.3932283050483640 -14.6804547753531125  15.1411230608354757 0 0 0
199       13   7    0.2691680000000000  -22.9984918258315538 -14.4626405064758963  15.7137950081276063 0 0 0
200       13   9   -0.6441380000000000  -23.0474358159167352 -14.5104882588460562  17.1338466360368500 0 0 0
201       13   1    0.0285690000000000  -25.7521836060724993 -14.8280798503817905  11.9516344588741497 0 0 0
202       13   1    0.0285690000000000  -26.4730221132032071 -14.0845891920380240  13.3891691040542646 0 0 0
203       13   1    0.0285690000000000  -26.1803977629330618 -15.8345624597624184  13.3454958630598650 0 0 0
204       13   2    0.0140440000000000  -24.0079928595028029 -13.6733664296363191  13.2695235475803770 0 0 0
205       13   2    0.0140440000000000  -23.7154757449506057 -15.4132254806450977  13.2247695565083525 0 0 0
206       13   2    0.0140440000000000  -24.7840598024465528 -15.6421924077445311  15.4962263049542024 0 0 0
207       13   2    0.0140440000000000  -25.0732619773599232 -13.9160995972668466  15.5371800464514056 0 0 0
208       13   3   -0.0094320000000000  -22.5903821710526849 -13.4920866567504429  15.4138082968229870 0 0 0
209       13   3   -0.0094320000000000  -22.3111548533234334 -15.2435336495010603  15.3740596135928893 0 0 0
210       13   4    0.4025730000000000  -23.6393091282541121 -13.7988718556495336  17.4305700751926089 0 0 0
211       14   5   -0.1079060000000000   13.6437996765088130  26.1696393439128911 -15.1586172917706570 0 0 0
212       14   6   -0.0058890000000000   14.7564517658029981  25.1334793593532027 -15.1844375877913826 0 0 0
213       14   8   -0.0368270000000000   14.4097901507972690  23.9149924760771064 -14.3331715903113199 0 0 0
214       14   7    0.2691680000000000   15.5228772537927515  22.8752553823566238 -14.3590547602638292 0 0 0
215       14   9   -0.6441380000000000   15.1580890282755654  21.7583420605008513 -13.5586387874814527 0 0 0
216       14   1    0.0285690000000000   13.9154111757746612  27.0322329351702209 -15.7753198365913576 0 0 0
217       14   1    0.0285690000000000   13.4617672387597374  26.5252914138515621 -14.1394378601417365 0 0 0
218       14   1    0.0285690000000000   12.7098577000823951  25.7535661219723551 -15.5497622624052543 0 0 0
219       14   2    0.0140440000000000   15.6819668776490317  25.5920788961174424 -14.8173880067751007 0 0 0
220       14   2    0.0140440000000000   14.9359439397653571  24.8251065017758030 -16.2209127916895852 0 0 0
221       14   2    0.0140440000000000   13.4778691311070027  23.4562876833333753 -14.6865834931575439 0 0 0
222       14   2    0.0140440000000000   14.2195102154606534  24.2194343507587426 -13.2965161698611904 0 0 0
223       14   3   -0.0094320000000000   16.4619620850616606  23.2854564095601262 -13.9738598882031777 0 0 0
224       14   3   -0.0094320000000000   15.6977298141874648  22.5165049399924300 -15.3780596940727445 0 0 0
225       14   4    0.4025730000000000   15.0288975618058167  22.0788714833192188 -12.6501635943148401 0 0 0
226       15   5   -0.1079060000000000  -15.4198591591847816  35.7825208052373469  3.8656819326231595  0 0 0
227       15   6   -0.0058890000000000  -14.7395848076161649  35.0515387038921631  5.0124952771613751  0 0 0
228       15   8   -0.0368270000000000  -14.4982576321682597  33.5820248550389522  4.6780874409509448  0 0 0
229       15   7    0.2691680000000000  -13.8154921283238394  32.8484983408818394  5.8254566845637310  0 0 0
230       15   9   -0.6441380000000000  -13.6065862841091363  31.4875630934086423  5.4712743191952180  0 0 0
231       15   1    0.0285690000000000  -15.5817724231886849  36.8325570930299619  4.1290645976910980  0 0 0
232       15   1    0.0285690000000000  -16.3930445442025068  35.3361746334733127  3.6375674472447246  0 0 0
233       15   1    0.0285690000000000  -14.8059648925440968  35.7507309566526530  2.9598772272298497  0 0 0
234       15   2    0.0140440000000000  -15.3649854754267903  35.1307238075552348  5.9092789056693178  0 0 0
235       15   2    0.0140440000000000  -13.7863766110182429  35.5440300466132513  5.2370804934676345  0 0 0
236       15   2    0.0140440000000000  -13.8823369756973332  33.4933445393824911  3.7744479146753953  0 0 0
237       15   2    0.0140440000000000  -15.4483737983390270  33.0865562579494608  4.4428515812714595  0 0 0
238       15   3   -0.0094320000000000  -14.4212812653024329  32.8801508552611779  6.7367952233911979  0 0 0
239       15   3   -0.0094320000000000  -12.8399558635492195  33.2924765215245344  6.0464967807517143  0 0 0
240       15   4    0.4025730000000000  -14.4780517541606546  31.0922645913717162  5.3008520457235786  0 0 0
241       16   5   -0.1079060000000000  -33.8432097432179191 -36.1175355139659402 -15.2052132925239789 0 0 0
242       16   6   -0.0058890000000000  -34.5563756534574011 -34.9470566220855119 -14.5466827911539198 0 0 0
243       16   8   -0.0368270000000000  -33.7978303840019265 -33.6387114212168967 -14.7525474749896013 0 0 0
244       16   7    0.2691680000000000  -34.5116931805211138 -32.4647455435813086 -14.0946036420577165 0 0 0
245       16   9   -0.6441380000000000  -33.7752028261035804 -31.2685414312110943 -14.3134854067128430 0 0 0
246       16   1    0.0285690000000000  -34.4055843990362504 -37.0426904563274064 -15.0440127400517731 0 0 0
247       16   1    0.0285690000000000  -32.8408139236312593 -36.2526939418823133 -14.7865418971094442 0 0 0
248       16   1    0.0285690000000000  -33.7471944652402627 -35.9625852573862161 -16.2846253610968432 0 0 0
249       16   2    0.0140440000000000  -34.6635841179795463 -35.1497443805291994 -13.4747494116886415 0 0 0
250       16   2    0.0140440000000000  -35.5666303702620183 -34.8616523972060364 -14.9634364757768257 0 0 0
251       16   2    0.0140440000000000  -33.6757496714396183 -33.4338205919872280 -15.8234829980804470 0 0 0
252       16   2    0.0140440000000000  -32.7823650262964037 -33.7220778966453381 -14.3458216365251108 0 0 0
253       16   3   -0.0094320000000000  -34.6160947426048082 -32.6145962632471793 -13.0151753822136023 0 0 0
254       16   3   -0.0094320000000000  -35.5106312972574685 -32.3277560002842961 -14.5200479472946160 0 0 0
255       16   4    0.4025730000000000  -32.8981953002231720 -31.3869473837167625 -13.9114971575557966 0 0 0
256       17   5   -0.1079060000000000  -6.5632492495832189  -13.3869179316327447  33.6185632645856387 0 0 0
257       17   6   -0.0058890000000000  -5.2530230395698467  -14.0980880380237394  33.3188413410133677 0 0 0
258       17   8   -0.0368270000000000  -4.7730203328522744  -14.9189472879370815  34.5127114561747703 0 0 0
259       17   7    0.2691680000000000  -3.4611456717626070  -15.6332534709659505  34.2136502385660819 0 0 0
260       17   9   -0.6441380000000000  -3.0532046835857969  -16.3872143412488427  35.3478277836389907 0 0 0
261       17   1    0.0285690000000000  -6.8863050588587402  -12.8061042966595586  32.7488201964772756 0 0 0
262       17   1    0.0285690000000000  -6.4528287747943249  -12.6995445622010870  34.4633567818687396 0 0 0
263       17   1    0.0285690000000000  -7.3538892412202737  -14.1045269902161827  33.8599852438318294 0 0 0
264       17   2    0.0140440000000000  -4.4943484510229323  -13.3537586759905782  33.0505060622883136 0 0 0
265       17   2    0.0140440000000000  -5.3895256037958408  -14.7505850609026385  32.4486650409488888 0 0 0
266       17   2    0.0140440000000000  -5.5318063593047144  -15.6592352612368284  34.7955618221782004 0 0 0
267       17   2    0.0140440000000000  -4.6441517586405539  -14.2720839700991835  35.3893564859424572 0 0 0
268       17   3   -0.0094320000000000  -2.6663104395274244  -14.9222241499546779  33.9662749148980225 0 0 0
269       17   3   -0.0094320000000000  -3.5764501225803480  -16.3247858142162876  33.3733322899535807 0 0 0
270       17   4    0.4025730000000000  -2.9280490845114819  -15.7646537635457928  36.0837021789065489 0 0 0
271       18   5   -0.1079060000000000  -15.6535050368289070 -13.9363350848525744  35.8181805122586070 0 0 0