LAMMPS data file via write_data, version 11 Aug 2017, timestep = 210000

1002 atoms
4 atom types
835 bonds
3 bond types
1169 angles
3 angle types
501 dihedrals
1 dihedral types

-1.1289808268115062e+01 1.1289808268115062e+01 xlo xhi
-1.1289808268115062e+01 1.1289808268115062e+01 ylo yhi
-1.1289808268115062e+01 1.1289808268115062e+01 zlo zhi

Masses

1 1.00794
2 1.00794
3 12.011
4 15.9994

Bond Coeffs # harmonic

1 366.904 1.0961
2 612.22 0.957501
3 368.71 1.41153

Angle Coeffs # harmonic

1 40.9267 108.205
2 61.3287 112.232
3 49.873 108.742

Atoms # full

64 10 1 3.1932000000000002e-02 -7.8901581939846643e+00 -6.4371263355264015e+00 -5.7038825931535433e+00 3 0 -1
382 63 1 3.1932000000000002e-02 -1.0263854247093084e+01 -9.4426601273138786e+00 -7.8705107353603907e+00 -2 2 1
383 63 1 3.1932000000000002e-02 -1.0542529463116340e+01 -1.0237591968552628e+01 -9.4962156993100351e+00 -2 2 1
631 105 3 9.9454000000000001e-02 -6.6341262156514986e+00 -6.6474246191881576e+00 -9.1313069179190069e+00 4 -3 -1
777 129 2 4.0257300000000001e-01 -8.6312077623222105e+00 -1.0701272390386114e+01 -1.0844744035533068e+01 0 3 1
381 63 2 4.0257300000000001e-01 -8.0658060279224095e+00 -1.0109976100419509e+01 -8.0946428522951575e+00 -2 2 1
384 63 1 3.1932000000000002e-02 -1.0101090997869171e+01 -1.1134311087220663e+01 -7.9881914806062753e+00 -2 2 1
141 23 2 4.0257300000000001e-01 -6.0261241179397107e+00 -9.0175270224671049e+00 -7.6904582774319019e+00 1 2 0
380 63 4 -5.9782299999999999e-01 -8.5801518793669889e+00 -1.0034599435150696e+01 -8.9048622331407685e+00 -2 2 1
379 63 3 9.9454000000000001e-02 -9.9227165618301481e+00 -1.0203920367170880e+01 -8.5659625508555504e+00 -2 2 1
634 105 1 3.1932000000000002e-02 -7.4784251598133205e+00 -6.7423239151030954e+00 -8.4361349095452578e+00 4 -3 -1
635 105 1 3.1932000000000002e-02 -5.7682171407532357e+00 -6.3909285260576532e+00 -8.5024521667592765e+00 4 -3 -1
632 105 4 -5.9782299999999999e-01 -6.3621232167953963e+00 -7.8221934208125274e+00 -9.9617906954316116e+00 4 -3 -1
809 134 1 3.1932000000000002e-02 -1.0238216738285038e+01 -7.3117668506697502e+00 -6.2945206439435895e+00 2 3 -3
140 23 4 -5.9782299999999999e-01 -6.4796793072410708e+00 -9.5146041826562548e+00 -6.9777429717304358e+00 1 2 0
805 134 3 9.9454000000000001e-02 -1.1163828414898848e+01 -6.8805916861813108e+00 -5.7304483010449001e+00 2 3 -3
139 23 3 9.9454000000000001e-02 -5.6466276916063052e+00 -9.7383926316272227e+00 -5.8556073150171031e+00 1 2 0
636 105 1 3.1932000000000002e-02 -6.7498340580794354e+00 -5.8817543040610101e+00 -9.9201543993643817e+00 4 -3 -1
237 39 2 4.0257300000000001e-01 -6.1581819438276728e+00 -9.5695221024422636e+00 -1.1277675268909496e+01 2 3 0
569 94 1 3.1932000000000002e-02 -1.0225771865812936e+01 -1.1160927441893989e+01 -3.5745623119251011e+00 2 -1 -1
119 19 1 3.1932000000000002e-02 -7.9981451916526840e+00 -1.1220280819292485e+01 -2.1970214261178960e+00 6 2 3
61 10 3 9.9454000000000001e-02 -7.8117100587084369e+00 -6.7437120245274578e+00 -4.6845933877815069e+00 3 0 -1
120 19 1 3.1932000000000002e-02 -8.5594077788614538e+00 -1.0848844834259051e+01 -5.6208816623315627e-01 6 2 3
118 19 1 3.1932000000000002e-02 -7.1892006492261071e+00 -9.9448748131918467e+00 -1.1491807747451972e+00 6 2 3
115 19 3 9.9454000000000001e-02 -7.6664690717194954e+00 -1.0902741220592004e+01 -1.1495085784518331e+00 6 2 3
65 10 1 3.1932000000000002e-02 -6.7226226603304040e+00 -7.0044511627094268e+00 -4.4800074881743432e+00 3 0 -1
66 10 1 3.1932000000000002e-02 -8.4217114839668543e+00 -7.6482727209251600e+00 -4.5840034060628945e+00 3 0 -1
806 134 4 -5.9782299999999999e-01 -1.0887509843957444e+01 -5.8520042938093315e+00 -4.8026972909378376e+00 2 3 -3
62 10 4 -5.9782299999999999e-01 -8.3303897848531108e+00 -5.7222583039263712e+00 -3.7780778989750150e+00 3 0 -1
142 23 1 3.1932000000000002e-02 -6.2682112825416700e+00 -9.7446508377237926e+00 -4.9709272948133396e+00 1 2 0
480 79 1 3.1932000000000002e-02 -6.7125406743410130e+00 -7.5348743954566526e+00 -3.1309750940618741e-01 2 1 1
63 10 2 4.0257300000000001e-01 -9.3076292515304750e+00 -5.7283488181103204e+00 -3.5200694228047462e+00 3 0 -1
969 161 2 4.0257300000000001e-01 -7.0652837756698155e+00 -5.8154127612334996e+00 -8.1735308361844616e-02 1 -4 -3
475 79 3 9.9454000000000001e-02 -6.2320393420761668e+00 -7.6486022990449118e+00 6.8665984914686717e-01 2 1 1
477 79 2 4.0257300000000001e-01 -6.5037146493857980e+00 -7.6326378995324013e+00 2.5654390630405306e+00 2 1 1
748 124 1 3.1932000000000002e-02 -7.1759481745509550e+00 -8.0706556393706883e+00 5.4313618493054943e+00 0 0 -6
302 50 4 -5.9782299999999999e-01 -6.5075909831768630e+00 -1.0828548546178240e+01 2.2902348777537540e+00 1 -2 2
396 65 1 3.1932000000000002e-02 -1.0143811369332951e+01 -7.4449686026427742e+00 2.0324288948154408e+00 2 1 1
304 50 1 3.1932000000000002e-02 -7.8060196705883058e+00 -1.0754831160876961e+01 4.0293087697007177e+00 1 -2 2
59 9 1 3.1932000000000002e-02 -1.0025332805850708e+01 -7.3151941354172738e+00 4.7061863330761717e+00 3 -1 1
476 79 4 -5.9782299999999999e-01 -6.9030101229393210e+00 -7.2002344997802199e+00 1.8439613177914627e+00 2 1 1
479 79 1 3.1932000000000002e-02 -6.0131643201521845e+00 -8.7526823530341602e+00 8.3758415166550826e-01 2 1 1
394 65 1 3.1932000000000002e-02 -1.0861770776768784e+01 -8.6983098382097346e+00 1.1225277703758163e+00 2 1 1
305 50 1 3.1932000000000002e-02 -8.1066556014170743e+00 -9.5657037933059357e+00 2.6540157383602274e+00 1 -2 2
391 65 3 9.9454000000000001e-02 -1.1129841076949656e+01 -7.9912196075780422e+00 1.8989976985683867e+00 2 1 1
88 14 1 3.1932000000000002e-02 -1.0264318709471407e+01 -1.1005718002559815e+01 4.9175687653807554e+00 4 -1 -1
301 50 3 9.9454000000000001e-02 -7.7433983934874657e+00 -1.0545070424660327e+01 2.9388553633936940e+00 1 -2 2
303 50 2 4.0257300000000001e-01 -5.8599636075255814e+00 -1.0383988426122949e+01 2.8736826544236145e+00 1 -2 2
306 50 1 3.1932000000000002e-02 -8.5261000960780038e+00 -1.1226466441792374e+01 2.5540688256614903e+00 1 -2 2
745 124 3 9.9454000000000001e-02 -6.9206984685037236e+00 -8.3067994613186045e+00 6.4063093469594623e+00 0 0 -6
323 53 1 3.1932000000000002e-02 -9.9554736095020662e+00 -6.3301272439363476e+00 1.0859820350293370e+01 1 2 -1
775 129 3 9.9454000000000001e-02 -8.4587196511583009e+00 -9.8094658062405991e+00 1.0036961717755448e+01 0 3 0
749 124 1 3.1932000000000002e-02 -7.3473278283892887e+00 -7.4309809573383330e+00 6.9721160646515354e+00 0 0 -6
58 9 1 3.1932000000000002e-02 -1.0021453931990184e+01 -8.4749247055532688e+00 6.0049096707441425e+00 3 -1 1
776 129 4 -5.9782299999999999e-01 -8.6982198429701238e+00 -1.0924923721774013e+01 1.0799082428518188e+01 0 3 0
778 129 1 3.1932000000000002e-02 -9.1604885263367208e+00 -9.6285478564312008e+00 9.2442654387387879e+00 0 3 0
747 124 2 4.0257300000000001e-01 -7.1463612775833747e+00 -1.0171437364958466e+01 6.1961267181806701e+00 0 0 -6
750 124 1 3.1932000000000002e-02 -5.8360112438878957e+00 -8.2367768471309066e+00 6.5574241299242519e+00 0 0 -6
746 124 4 -5.9782299999999999e-01 -7.5429616973264597e+00 -9.5248997819746499e+00 6.7166023243959874e+00 0 0 -6
780 129 1 3.1932000000000002e-02 -7.4958340797858263e+00 -9.9042380529199203e+00 9.5186049010870857e+00 0 3 0
604 100 1 3.1932000000000002e-02 -5.7738491482643530e+00 -7.3007057997648728e+00 8.6153414032847824e+00 4 0 -4
55 9 3 9.9454000000000001e-02 -1.0398064809855480e+01 -7.4723206317165820e+00 5.6832965964092512e+00 3 -1 1
779 129 1 3.1932000000000002e-02 -8.3238297677396336e+00 -8.9309728936574722e+00 1.0693717692756104e+01 0 3 0
60 9 1 3.1932000000000002e-02 -1.0050423431989802e+01 -6.7845643883192128e+00 6.3855626386766087e+00 3 -1 1
605 100 1 3.1932000000000002e-02 -6.2366028664718316e+00 -5.8830499683696340e+00 9.7042073721955244e+00 4 0 -4
415 69 3 9.9454000000000001e-02 -9.3384514085846355e+00 -2.8196742140740128e-01 -7.0388467465966187e+00 3 -3 2
416 69 4 -5.9782299999999999e-01 -8.3149135352544867e+00 -1.1061294004145310e+00 -7.5426760215512445e+00 3 -3 2
110 18 4 -5.9782299999999999e-01 -9.4324836307932216e+00 -4.2251106090266983e+00 -6.5927148593741780e+00 -1 4 -2
109 18 3 9.9454000000000001e-02 -9.3008866760635414e+00 -4.2049057233649823e+00 -8.0068130891859219e+00 -1 4 -2
111 18 2 4.0257300000000001e-01 -1.0232034689466737e+01 -4.7580493848027583e+00 -6.3387408263051315e+00 -1 4 -2
112 18 1 3.1932000000000002e-02 -9.2969942877677134e+00 -5.2148304322160888e+00 -8.3926840644689307e+00 -1 4 -2
417 69 2 4.0257300000000001e-01 -8.2714080556375968e+00 -1.7729089055300253e+00 -6.8628822018947115e+00 3 -3 2
114 18 1 3.1932000000000002e-02 -8.2847748570713442e+00 -3.8059766199830944e+00 -8.2430884043662473e+00 -1 4 -2
556 92 1 3.1932000000000002e-02 -5.7235955973205774e+00 -3.5385343578186195e+00 -9.9426672802355771e+00 2 -3 1
419 69 1 3.1932000000000002e-02 -1.0218011827345817e+01 -8.9601066134487084e-01 -6.9567257713910173e+00 3 -3 2
113 18 1 3.1932000000000002e-02 -1.0078558709426176e+01 -3.6235426228350605e+00 -8.4839923927387790e+00 -1 4 -2
555 92 2 4.0257300000000001e-01 -6.0629139743191320e+00 -3.4104026094569981e+00 -7.7080879436962997e+00 2 -3 1
21 3 2 4.0257300000000001e-01 -6.3608355258514644e+00 -3.7320055929820661e-01 -7.3578934432902443e+00 1 0 2
322 53 1 3.1932000000000002e-02 -9.7502408005633718e+00 -5.1504789490116432e+00 -1.0616957007626226e+01 1 2 0
874 145 1 3.1932000000000002e-02 -7.9065583125877765e+00 -2.6337258335071265e+00 -3.9095995094475713e+00 4 1 2
244 40 1 3.1932000000000002e-02 -7.4561117215721540e+00 -7.6756179448903339e-01 -2.3069330025636052e+00 2 -1 0
886 147 1 3.1932000000000002e-02 -9.8333782612278231e+00 -3.3715358207946871e+00 -1.0010189215153975e+00 -1 -3 -2
871 145 3 9.9454000000000001e-02 -6.9677570509087658e+00 -2.6713859057430227e+00 -4.3840339759067888e+00 4 1 2
832 138 1 3.1932000000000002e-02 -9.6141930001120421e+00 -2.2941024832607564e+00 -3.2523396563728522e+00 1 -4 -4
829 138 3 9.9454000000000001e-02 -1.0649928903653048e+01 -2.1407430771750775e+00 -3.4797056506641360e+00 1 -4 -4
970 161 1 3.1932000000000002e-02 -7.6467815981870970e+00 -3.5472373364041125e+00 -1.2593799416559044e+00 1 -4 -3
873 145 2 4.0257300000000001e-01 -7.7203204911859942e+00 -3.9929252809068876e+00 -5.6166619737918166e+00 4 1 2
972 161 1 3.1932000000000002e-02 -6.0843089950962286e+00 -4.3995928472227739e+00 -1.3119567582173559e+00 1 -4 -3
967 161 3 9.9454000000000001e-02 -6.8511600028137343e+00 -3.9735188253752289e+00 -6.7030640490478355e-01 1 -4 -3
834 138 1 3.1932000000000002e-02 -1.0757139562309652e+01 -1.5417733291678530e+00 -4.3887522181045160e+00 1 -4 -4
875 145 1 3.1932000000000002e-02 -6.3080066264130696e+00 -3.0991916811446050e+00 -3.6663525475855749e+00 4 1 2
241 40 3 9.9454000000000001e-02 -7.7707357818731611e+00 -1.0518735748978614e-01 -1.5253027974553977e+00 2 -1 0
872 145 4 -5.9782299999999999e-01 -6.9859549989272667e+00 -3.3781095090337994e+00 -5.6070367645655184e+00 4 1 2
876 145 1 3.1932000000000002e-02 -6.6506551183395297e+00 -1.6218491266824415e+00 -4.4991575997113973e+00 4 1 2
883 147 3 9.9454000000000001e-02 -1.0369737691979109e+01 -3.7934400123894303e+00 -1.0550227269733981e-01 -1 -3 -2
245 40 1 3.1932000000000002e-02 -8.5732876868652852e+00 -5.2686270526809409e-01 -9.8830079590679709e-01 2 -1 0
971 161 1 3.1932000000000002e-02 -6.4156838191612557e+00 -3.2479450068164351e+00 -1.4669740604754011e-02 1 -4 -3
830 138 4 -5.9782299999999999e-01 -1.1197751976703506e+01 -1.4973405150596815e+00 -2.3517630112251346e+00 1 -4 -4
833 138 1 3.1932000000000002e-02 -1.1155821162392289e+01 -3.1029204794605292e+00 -3.6097689753596445e+00 1 -4 -4
888 147 1 3.1932000000000002e-02 -1.0201852851482913e+01 -4.9002380429181729e+00 -1.6173815702270034e-01 -1 -3 -2
831 138 2 4.0257300000000001e-01 -1.1286189135948055e+01 -2.1888206026075281e+00 -1.6557631622163527e+00 1 -4 -4
646 107 1 3.1932000000000002e-02 -1.1014620002636796e+01 -3.3401436094328929e-01 4.9977945329031623e+00 -4 1 -2
968 161 4 -5.9782299999999999e-01 -7.3755393215020115e+00 -4.9581444105906254e+00 1.9656333872057985e-01 1 -4 -3
7 1 3 9.9454000000000001e-02 -6.6900759121440529e+00 -7.1237555485030057e-01 2.5370322703297674e+00 -5 -1 0
978 162 1 3.1932000000000002e-02 -7.5193980024796936e+00 -4.6227338799211442e+00 5.0061464578939283e+00 -1 -3 -2
153 25 2 4.0257300000000001e-01 -6.3676704470404646e+00 -4.7396299780425224e+00 2.2533852877216098e+00 2 1 -2
648 107 1 3.1932000000000002e-02 -1.0140209971697281e+01 -1.9293354042933384e+00 5.4558581976685598e+00 -4 1 -2
152 25 4 -5.9782299999999999e-01 -5.7618789729949276e+00 -4.6258816024219707e+00 3.0191038802654866e+00 2 1 -2
9 1 2 4.0257300000000001e-01 -7.4690079664882720e+00 -1.2382311845120721e+00 4.1629650913471270e+00 -5 -1 0
887 147 1 3.1932000000000002e-02 -9.9123252111964923e+00 -3.3518554288583360e+00 8.2226911267953717e-01 -1 -3 -2
8 1 4 -5.9782299999999999e-01 -7.6468157866013033e+00 -5.4877132953610186e-01 3.5042790828017232e+00 -5 -1 0
12 1 1 3.1932000000000002e-02 -6.7173207646880542e+00 -1.7259716299841550e+00 2.1249717676175326e+00 -5 -1 0
430 71 1 3.1932000000000002e-02 -1.0849659334839618e+01 -6.9150397497490346e-01 1.4081773641500188e+00 -3 1 -2
702 116 1 3.1932000000000002e-02 -1.0041014367508598e+01 -4.0451093342396716e+00 3.2515789849988632e+00 -2 0 -2
697 116 3 9.9454000000000001e-02 -1.1077214255436456e+01 -4.3463988405619682e+00 3.2586077520009429e+00 -2 0 -2
701 116 1 3.1932000000000002e-02 -1.1069438297545911e+01 -5.2820872605738449e+00 2.6638763297627595e+00 -2 0 -2
398 66 4 -5.9782299999999999e-01 -8.2983046407074852e+00 -1.2441059945032045e+00 8.2667892951946396e+00 0 -1 -2
319 53 3 9.9454000000000001e-02 -1.0169289567837446e+01 -5.3007486713739302e+00 1.0963628398088764e+01 1 2 -1
402 66 1 3.1932000000000002e-02 -7.8219522403485247e+00 -1.5121991908563590e+00 1.0331971931775014e+01 0 -1 -2
401 66 1 3.1932000000000002e-02 -9.5785633951005167e+00 -1.0980315717514220e+00 9.8250973766633489e+00 0 -1 -2
975 162 2 4.0257300000000001e-01 -8.0545439869317406e+00 -2.4134443646487593e+00 6.7583059995621948e+00 -1 -3 -2
647 107 1 3.1932000000000002e-02 -1.0799370352270381e+01 -8.0185429311166878e-01 6.6979146014498898e+00 -4 1 -2
399 66 2 4.0257300000000001e-01 -8.7362850928686839e+00 -5.8861731113375448e-01 7.8091840690616063e+00 0 -1 -2
976 162 1 3.1932000000000002e-02 -7.0011292489515435e+00 -4.3177737200077955e+00 6.6847123812765528e+00 -1 -3 -2
397 66 3 9.9454000000000001e-02 -8.5044613735697574e+00 -9.2046422269156913e-01 9.6203185412799623e+00 0 -1 -2
324 53 1 3.1932000000000002e-02 -9.6503103345317207e+00 -4.6940682982320032e+00 1.0262313800528359e+01 1 2 -1
973 162 3 9.9454000000000001e-02 -7.7617445821573749e+00 -4.0980474859703646e+00 5.8984883810958468e+00 -1 -3 -2
974 162 4 -5.9782299999999999e-01 -7.9701342031895077e+00 -2.6782823714014548e+00 5.8077071729473619e+00 -1 -3 -2
977 162 1 3.1932000000000002e-02 -8.6745014284850335e+00 -4.6254579507090430e+00 6.2689875268028548e+00 -1 -3 -2
600 99 1 3.1932000000000002e-02 -5.9842339577256096e+00 -7.9570332072282923e-02 6.6585184173168077e+00 -2 0 3
643 107 3 9.9454000000000001e-02 -1.1001168788458109e+01 -1.2573369930553699e+00 5.6693372680411809e+00 -4 1 -2
24 3 1 3.1932000000000002e-02 -5.6619150949239385e+00 1.8731251925601544e+00 -7.2091938879654949e+00 1 0 2
128 21 4 -5.9782299999999999e-01 -7.4932714846481394e+00 1.6366541521294096e+00 -1.0252388619886577e+01 0 1 0
740 123 4 -5.9782299999999999e-01 -1.0424852894928195e+01 2.9315047019514573e-01 -1.0809162735737091e+01 1 -3 1
791 131 1 3.1932000000000002e-02 -8.1121542914784097e+00 2.3140142244263764e+00 -6.1358860706964551e+00 0 1 2
218 36 4 -5.9782299999999999e-01 -8.2383168830832005e+00 5.0425790213414334e+00 -9.7209902245978643e+00 5 -1 -1
789 131 2 4.0257300000000001e-01 -9.1983408668081008e+00 3.1607304917471950e+00 -8.0407759515623365e+00 0 1 2
200 33 4 -5.9782299999999999e-01 -5.6846821127330935e+00 5.2674104289003392e+00 -7.9537117286539845e+00 -4 2 0
127 21 3 9.9454000000000001e-02 -6.3986191521098288e+00 7.7034708368585036e-01 -9.9204751405966238e+00 0 1 0
418 69 1 3.1932000000000002e-02 -9.5515163213476484e+00 5.2491554679189356e-01 -7.7292548786891739e+00 3 -3 2
788 131 4 -5.9782299999999999e-01 -9.7491621228853145e+00 2.8929602869260673e+00 -7.2827520179129213e+00 0 1 2
201 33 2 4.0257300000000001e-01 -6.5410522636832873e+00 4.9959460462553071e+00 -8.3385376545210583e+00 -4 2 0
787 131 3 9.9454000000000001e-02 -8.8560724157924007e+00 3.1385088700567465e+00 -6.2185553763393511e+00 0 1 2
129 21 2 4.0257300000000001e-01 -8.1752402857894602e+00 9.7972131174777921e-01 -1.0501546104853498e+01 0 1 0
420 69 1 3.1932000000000002e-02 -8.9957177556806514e+00 8.8927764921868047e-02 -6.0809110432842530e+00 3 -3 2
217 36 3 9.9454000000000001e-02 -9.3052011961256120e+00 4.3629457910228577e+00 -1.0383911813518814e+01 5 -1 -1
741 123 2 4.0257300000000001e-01 -1.0808489552719514e+01 6.4225651088736946e-01 -9.9784253282646276e+00 1 -3 1
221 36 1 3.1932000000000002e-02 -1.0040212763915326e+01 3.8600718817693647e+00 -9.7071383482825890e+00 5 -1 -1
220 36 1 3.1932000000000002e-02 -8.9671210985970689e+00 3.5596299185271008e+00 -1.0970767134417171e+01 5 -1 -1
222 36 1 3.1932000000000002e-02 -9.9012668156226127e+00 4.9936077463224233e+00 -1.1028156799442772e+01 5 -1 -1
130 21 1 3.1932000000000002e-02 -6.0574746231047127e+00 1.9870768101364433e-01 -1.0827006179283037e+01 0 1 0
792 131 1 3.1932000000000002e-02 -8.3927457924068847e+00 4.0711664528163638e+00 -6.3824274850115073e+00 0 1 2
132 21 1 3.1932000000000002e-02 -6.7829558819888405e+00 9.3546578027000393e-02 -9.2316372442950954e+00 0 1 0
522 86 1 3.1932000000000002e-02 -7.5205072584293324e+00 4.9243709708790622e+00 -2.9589053495488642e+00 1 0 -2
520 86 1 3.1932000000000002e-02 -7.8610105165484390e+00 3.2407370599851077e+00 -3.6781920238870809e+00 1 0 -2
22 3 1 3.1932000000000002e-02 -6.0954099882914701e+00 1.1904383537534304e+00 -5.6254190034340432e+00 1 0 2
859 143 3 9.9454000000000001e-02 -1.1199088973388452e+01 1.6395990823708537e+00 -3.4240090884628023e+00 -1 -3 -3
587 97 1 3.1932000000000002e-02 -1.1160153703597414e+01 4.6766116558075463e+00 -3.0704009775247822e+00 1 3 2
862 143 1 3.1932000000000002e-02 -1.0719752102542904e+01 1.7521397419024893e+00 -2.4779316484899372e+00 -1 -3 -3
517 86 3 9.9454000000000001e-02 -7.2763361365899479e+00 3.8525029216463338e+00 -2.9383976270885999e+00 1 0 -2
790 131 1 3.1932000000000002e-02 -9.3151049659205007e+00 3.2639551279299184e+00 -5.1849778418960826e+00 0 1 2
521 86 1 3.1932000000000002e-02 -7.6458467389640115e+00 3.3978059026847465e+00 -2.0360353613809057e+00 1 0 -2
863 143 1 3.1932000000000002e-02 -1.0556934028988804e+01 9.7833713877735740e-01 -3.9972715532696199e+00 -1 -3 -3
583 97 3 9.9454000000000001e-02 -1.1075123894288502e+01 5.3391445912283881e+00 -2.2490804264631130e+00 1 3 2
246 40 1 3.1932000000000002e-02 -8.2383813961727377e+00 8.2951083634886658e-01 -1.9570664818655548e+00 2 -1 0
905 150 1 3.1932000000000002e-02 -9.0019384050816491e+00 3.4769544632268978e+00 -4.0622737049919877e-01 1 -1 -3
242 40 4 -5.9782299999999999e-01 -6.7474799542256294e+00 2.4338089589337031e-01 -6.8457468537937061e-01 2 -1 0
243 40 2 4.0257300000000001e-01 -7.0354021074244422e+00 9.6542489478497018e-01 -1.0132395195115684e-01 2 -1 0
518 86 4 -5.9782299999999999e-01 -5.8465773121235207e+00 3.5496169281433545e+00 -3.1467481996764857e+00 1 0 -2
427 71 3 9.9454000000000001e-02 -1.0965143675878156e+01 3.5927747353778727e-01 1.5647233261842626e+00 -3 1 -2
785 130 1 3.1932000000000002e-02 -9.7516400651399060e+00 3.2115791447735429e+00 4.0506302389461979e+00 2 -1 -2
903 150 2 4.0257300000000001e-01 -6.9654282590801548e+00 3.0479498899102939e+00 1.6144506740868731e+00 1 -1 -3
782 130 4 -5.9782299999999999e-01 -7.7305417223739958e+00 2.6359139264207840e+00 3.9188309972945046e+00 2 -1 -2
901 150 3 9.9454000000000001e-02 -8.4829322173972059e+00 3.8323746060790782e+00 4.3537998688504764e-01 1 -1 -3
781 130 3 9.9454000000000001e-02 -8.7214183641521998e+00 3.6419838559445150e+00 3.9542166643197483e+00 2 -1 -2
10 1 1 3.1932000000000002e-02 -6.8214393505784319e+00 1.9988458617330451e-02 1.7211910694958892e+00 -5 -1 0
906 150 1 3.1932000000000002e-02 -9.2479160592765677e+00 3.9381264414796515e+00 1.2906545894644896e+00 1 -1 -3
902 150 4 -5.9782299999999999e-01 -7.5256203602968945e+00 2.8380403379968264e+00 8.5492120208342470e-01 1 -1 -3
599 99 1 3.1932000000000002e-02 -5.8334854565329328e+00 8.5398194327904697e-01 5.1586954895808841e+00 -2 0 3
428 71 4 -5.9782299999999999e-01 -9.9031948560415426e+00 7.5478486406506562e-01 2.3627933823609180e+00 -3 1 -2
784 130 1 3.1932000000000002e-02 -8.7187856341881300e+00 4.2714848448723330e+00 3.1065849338473583e+00 2 -1 -2
783 130 2 4.0257300000000001e-01 -8.1314980254399316e+00 1.8194965960168830e+00 3.5768215672723755e+00 2 -1 -2
786 130 1 3.1932000000000002e-02 -8.5363061292596498e+00 4.3377314501149637e+00 4.8259685424887468e+00 2 -1 -2
42 6 1 3.1932000000000002e-02 -1.1056519841939553e+01 3.2822861642943835e+00 2.3728428847844842e+00 0 4 1
432 71 1 3.1932000000000002e-02 -1.0969418288719389e+01 8.5816868675788704e-01 5.7644019822745030e-01 -3 1 -2
666 110 1 3.1932000000000002e-02 -5.6742208100685074e+00 4.0796126547268692e+00 2.9975929669650778e+00 2 -3 -3
429 71 2 4.0257300000000001e-01 -9.1392248861247989e+00 2.2662502747774838e-01 2.0870429258724403e+00 -3 1 -2
904 150 1 3.1932000000000002e-02 -7.9763874404919797e+00 4.8277964052732703e+00 2.6922263847246519e-01 1 -1 -3
388 64 1 3.1932000000000002e-02 -6.3546030776236782e+00 4.5917409436791488e+00 6.9142475964573347e+00 0 0 -2
266 44 4 -5.9782299999999999e-01 -8.6249331822787418e+00 1.3669580073112861e+00 6.6116489870008355e+00 0 0 0
32 5 4 -5.9782299999999999e-01 -6.6069435042974902e+00 3.6147250056868518e+00 1.0429409747478127e+01 0 3 1
270 44 1 3.1932000000000002e-02 -1.0212288796454468e+01 2.6670283136890767e+00 6.8129339148906762e+00 0 0 0
265 44 3 9.9454000000000001e-02 -9.4629112068665222e+00 2.1583654571869815e+00 7.4127017963653881e+00 0 0 0
385 64 3 9.9454000000000001e-02 -5.6623447102992168e+00 5.2594660537275910e+00 7.3752551375605098e+00 0 0 -2
31 5 3 9.9454000000000001e-02 -6.1511383258381986e+00 2.6229275056110755e+00 9.5559015419465556e+00 0 3 1
870 144 1 3.1932000000000002e-02 -1.0664687569030210e+01 4.8824602491223299e+00 7.6211747146447895e+00 2 -1 0
267 44 2 4.0257300000000001e-01 -8.2501134512857170e+00 1.9270705578372969e+00 5.9201061508097492e+00 0 0 0
33 5 2 4.0257300000000001e-01 -7.1305214165123703e+00 3.1936995703709972e+00 1.1130637887725735e+01 0 3 1
269 44 1 3.1932000000000002e-02 -8.9894144114942662e+00 2.9973525804260461e+00 8.0386626125965162e+00 0 0 0
268 44 1 3.1932000000000002e-02 -9.9367012202126936e+00 1.4891917875352849e+00 8.1547665903387863e+00 0 0 0
36 5 1 3.1932000000000002e-02 -6.9571328324502115e+00 1.8837525066100564e+00 9.4803837390787624e+00 0 3 1
400 66 1 3.1932000000000002e-02 -8.1855213521662904e+00 7.7383654108214017e-02 9.8442574274727139e+00 0 -1 -2
34 5 1 3.1932000000000002e-02 -5.8633029578022109e+00 2.9438315548507692e+00 8.5877148988079686e+00 0 3 1
999 166 2 4.0257300000000001e-01 -9.1925944904136383e+00 8.1193841794247721e+00 -1.1072396174566579e+01 5 -2 2
288 47 1 3.1932000000000002e-02 -6.5535268949030421e+00 7.4089285906069176e+00 -9.9104078889424034e+00 0 1 0
1000 166 1 3.1932000000000002e-02 -8.2853788731057332e+00 9.3067699523999696e+00 -9.1213100057105621e+00 5 -2 2
1001 166 1 3.1932000000000002e-02 -9.9924350869900547e+00 9.2370426406294204e+00 -9.3602316076690801e+00 5 -2 2
219 36 2 4.0257300000000001e-01 -8.3145245218034134e+00 6.0167880282446529e+00 -9.7319600653058149e+00 5 -1 -1
364 60 1 3.1932000000000002e-02 -9.8253474859542074e+00 6.5971724667560263e+00 -5.8763935040652981e+00 -1 -1 2
1002 166 1 3.1932000000000002e-02 -9.3364113949313339e+00 8.2880657789934968e+00 -8.2464022217504755e+00 5 -2 2
997 166 3 9.9454000000000001e-02 -9.1580622565721654e+00 8.6675282230766957e+00 -9.2162401765039075e+00 5 -2 2
998 166 4 -5.9782299999999999e-01 -9.0024313298290970e+00 7.7202293031770122e+00 -1.0229254932281199e+01 5 -2 2
283 47 3 9.9454000000000001e-02 -6.0961165594122262e+00 7.4161248350259203e+00 -1.0959102668988319e+01 0 1 0
366 60 1 3.1932000000000002e-02 -1.0748558497423197e+01 7.3831759260207317e+00 -7.0659385068653071e+00 -1 -1 2
361 60 3 9.9454000000000001e-02 -1.0855953653463860e+01 6.8164444370143062e+00 -6.1991144894882355e+00 -1 -1 2
215 35 1 3.1932000000000002e-02 -7.0872340917234196e+00 7.3970088851490470e+00 -4.1356765216821039e+00 2 0 -2
216 35 1 3.1932000000000002e-02 -7.7370741713213143e+00 7.2843712431447027e+00 -2.5573469777643361e+00 2 0 -2
214 35 1 3.1932000000000002e-02 -8.8894284243427997e+00 7.8833074167436425e+00 -3.7289706735689201e+00 2 0 -2
584 97 4 -5.9782299999999999e-01 -9.8771542208463021e+00 6.0727058274984653e+00 -2.2029326734729064e+00 1 3 2
565 94 3 9.9454000000000001e-02 -1.0400479169376787e+01 1.0464364985189393e+01 -3.9869686610370900e+00 2 -2 -1
211 35 3 9.9454000000000001e-02 -7.7787554717673686e+00 7.9260201118310807e+00 -3.4188460712630571e+00 2 0 -2
570 94 1 3.1932000000000002e-02 -9.8636174244722881e+00 9.7712239867700195e+00 -3.3762162527978035e+00 2 -2 -1
213 35 2 4.0257300000000001e-01 -6.6260104428502684e+00 9.2572554982818982e+00 -2.5598897320506406e+00 2 0 -2
116 19 4 -5.9782299999999999e-01 -6.7095197518077807e+00 1.0862913213271591e+01 -5.1751017395979027e-01 6 1 3
585 97 2 4.0257300000000001e-01 -1.0037536126734592e+01 6.7616934538784097e+00 -1.5508303094112588e+00 1 3 2
212 35 4 -5.9782299999999999e-01 -7.4029204712090433e+00 9.2579970078235601e+00 -3.1351749469044119e+00 2 0 -2
568 94 1 3.1932000000000002e-02 -1.0018978664349328e+01 1.0414880981320769e+01 -5.0208497691257907e+00 2 -2 -1
347 57 1 3.1932000000000002e-02 -6.2653719639652845e+00 7.8052184428463196e+00 2.8798978951074385e+00 -3 -1 0
759 126 2 4.0257300000000001e-01 -8.4435109115775902e+00 7.0496762557763599e+00 6.1872004512340517e-01 0 -2 0
346 57 1 3.1932000000000002e-02 -6.7049850725086806e+00 6.1857335326863438e+00 3.6499486988380490e+00 -3 -1 0
348 57 1 3.1932000000000002e-02 -7.9140141036220166e+00 7.2429271455272772e+00 2.9667363393183024e+00 -3 -1 0
369 61 2 4.0257300000000001e-01 -8.9197522527794568e+00 7.7700873582649148e+00 5.0621660653918550e+00 -3 1 1
343 57 3 9.9454000000000001e-02 -6.8985616699363064e+00 6.8959870283501257e+00 2.7377662607907727e+00 -3 -1 0
372 61 1 3.1932000000000002e-02 -1.0647700001107239e+01 7.4760142727931704e+00 3.4333141551473485e+00 -3 1 1
760 126 1 3.1932000000000002e-02 -1.0032592545177831e+01 9.3599439477056965e+00 1.1690993447752778e+00 0 -2 0
344 57 4 -5.9782299999999999e-01 -6.6833904903216279e+00 6.3722473763089429e+00 1.4929525795989598e+00 -3 -1 0
345 57 2 4.0257300000000001e-01 -5.8668585656316523e+00 5.8513143712623101e+00 1.4796305381126285e+00 -3 -1 0
758 126 4 -5.9782299999999999e-01 -9.3424044865632023e+00 7.4436047770299236e+00 6.1320702420596085e-01 0 -2 0
761 126 1 3.1932000000000002e-02 -8.3648262663256485e+00 9.0778427906953869e+00 1.6171963656531538e+00 0 -2 0
86 14 4 -5.9782299999999999e-01 -9.0748485122092646e+00 9.8454481990977261e+00 5.3267608380816664e+00 4 -2 -1
368 61 4 -5.9782299999999999e-01 -9.2125496056731233e+00 6.8702159316574534e+00 4.9219904828729195e+00 -3 1 1
371 61 1 3.1932000000000002e-02 -1.1265318808877062e+01 7.3915846755735242e+00 5.1942567466415195e+00 -3 1 1
87 14 2 4.0257300000000001e-01 -8.1900460183600572e+00 1.0108796666648727e+01 5.6375387206921221e+00 4 -2 -1
367 61 3 9.9454000000000001e-02 -1.0596183623038021e+01 6.9207084712037474e+00 4.4020753290685892e+00 -3 1 1
757 126 3 9.9454000000000001e-02 -9.1008997970622207e+00 8.8107097184953798e+00 8.4165060401971203e-01 0 -2 0
370 61 1 3.1932000000000002e-02 -1.1004016904008916e+01 5.9199987901130715e+00 4.2406197678385542e+00 -3 1 1
117 19 2 4.0257300000000001e-01 -6.6911418995740126e+00 1.1031932400727731e+01 4.0903138765477820e-01 6 1 3
309 51 2 4.0257300000000001e-01 -1.1049091222424419e+01 7.1340291875861492e+00 5.8655571740682078e-01 -1 1 3
762 126 1 3.1932000000000002e-02 -8.7033887678946495e+00 9.2301133340616328e+00 9.5666007702508438e-03 0 -2 0
414 68 1 3.1932000000000002e-02 -6.1243260402929609e+00 9.9827252379294062e+00 8.4903501995061692e+00 2 -1 0
409 68 3 9.9454000000000001e-02 -6.9103769143159175e+00 9.7655648261719339e+00 7.7427017077442581e+00 2 -1 0
353 58 1 3.1932000000000002e-02 -9.7595317226034801e+00 9.3187189166703650e+00 7.9705539866923356e+00 1 3 -1
286 47 1 3.1932000000000002e-02 -6.8713313062332917e+00 7.6051487192300673e+00 1.0888119268258928e+01 0 1 -1
413 68 1 3.1932000000000002e-02 -7.0124835196245865e+00 8.6664578346796670e+00 7.7606303350567973e+00 2 -1 0
410 68 4 -5.9782299999999999e-01 -6.4079282922659848e+00 1.0158392812567635e+01 6.4950829705373625e+00 2 -1 0
350 58 4 -5.9782299999999999e-01 -9.0551095744855843e+00 8.9817505879648056e+00 9.8749690288542045e+00 1 3 -1
349 58 3 9.9454000000000001e-02 -1.0112189402077746e+01 8.9525657758471748e+00 8.9542900812758450e+00 1 3 -1
352 58 1 3.1932000000000002e-02 -1.0961454116439288e+01 9.6505659071255980e+00 9.2767065735994212e+00 1 3 -1
390 64 1 3.1932000000000002e-02 -6.1040448623754466e+00 6.2525237487315781e+00 7.3706491502470701e+00 0 0 -2
412 68 1 3.1932000000000002e-02 -7.8876393763459314e+00 1.0213080315184973e+01 7.9520737908454446e+00 2 -1 0
351 58 2 4.0257300000000001e-01 -8.9083302319539168e+00 9.9171992986546069e+00 1.0116662968652987e+01 1 3 -1
354 58 1 3.1932000000000002e-02 -1.0599166519489801e+01 8.0013798496087372e+00 8.7677382862370958e+00 1 3 -1
411 68 2 4.0257300000000001e-01 -5.6601231637101641e+00 9.5965119239560810e+00 6.3253683504964524e+00 2 -1 0
89 14 1 3.1932000000000002e-02 -1.1040078221905253e+01 1.0279014630922278e+01 5.8055771753001313e+00 4 -2 -1
90 14 1 3.1932000000000002e-02 -9.7602670450373861e+00 1.1267743396116837e+01 6.6628404371493541e+00 4 -2 -1
85 14 3 9.9454000000000001e-02 -1.0078785335934382e+01 1.0853006845255694e+01 5.6766250003333507e+00 4 -2 -1