LAMMPS data file via vdw_self_gen.py, on 2021-08-05 13:23:20.450805

7000 atoms
8 atom types
6500 bonds
8 bond types
12000 angles
14 angle types
13500 dihedrals
10 dihedral types

-44.0722723110043049  44.0722723110042978 xlo xhi
-44.0722723110043049  44.0722723110042978 ylo yhi
-44.0722723110043049  44.0722723110042978 zlo zhi

Masses

1  1.007940
2  1.007940
3  1.007940
4  79.904000
5  12.011000
6  12.011000
7  12.011000
8  12.011000

Atoms

1         0    6   -0.1079060000000000  -5.3125059540160375   33.2963033251158365 -3.2327030594508734  0 0 0
2         0    8   -0.0058890000000000  -4.9601905018171371   33.4791608726034084 -4.7004361392609306  0 0 0
3         0    5    0.0928770000000000  -4.8422786721359916   34.9580643006040930 -5.0671932798445498  0 0 0
4         0    7   -0.1683500000000000  -4.4905988388972178   35.1309673840085281 -6.5349471768389957  0 0 0
5         0    4   -0.1647530000000000  -4.3489379490434441   37.0258634514552369 -6.9592356877143633  0 0 0
6         0    2    0.0285690000000000  -5.3848204173905012   32.2315927776149991 -2.9897332155868215  0 0 0
7         0    2    0.0285690000000000  -6.2744160072572051   33.7641088771226521 -2.9993668721905689  0 0 0
8         0    2    0.0285690000000000  -4.5483990982969038   33.7410527285274853 -2.5872683822696696  0 0 0
9         0    3    0.0140440000000000  -5.7304624940176394   33.0021835775901664 -5.3175592517541519  0 0 0
10        0    3    0.0140440000000000  -4.0134703101745117   32.9671791293017336 -4.9094379305497462  0 0 0
11        0    3    0.0140440000000000  -4.0763379437422191   35.4311433869177748 -4.4399817768567429  0 0 0
12        0    3    0.0140440000000000  -5.7889688117295828   35.4670578908928249 -4.8460976248866805  0 0 0
13        0    1    0.1060690000000000  -5.2616724234370107   34.7204767785094219 -7.1925155037236905  0 0 0
14        0    1    0.1060690000000000  -3.5238086173846694   34.6829217951160587 -6.7803921384122905  0 0 0
15        1    6   -0.1079060000000000  -24.4198028503915872 -12.9628051693881652 -3.9393748271638351  0 0 0
16        1    8   -0.0058890000000000  -23.9881995484986597 -14.3699989563340154 -4.3205935175190202  0 0 0
17        1    5    0.0928770000000000  -24.9054080009392962 -14.9664920395824037 -5.3875958631154521  0 0 0
18        1    7   -0.1683500000000000  -24.4669564834038731 -16.3720697757711733 -5.7617444670168121  0 0 0
19        1    4   -0.1647530000000000  -25.6587317629034928 -17.0933556301198664 -7.1219422666364416  0 0 0
20        1    2    0.0285690000000000  -23.7465171607805203 -12.5519843976407284 -3.1805698784017817  0 0 0
21        1    2    0.0285690000000000  -25.4348680710652353 -12.9618263370755109 -3.5292524052383065  0 0 0
22        1    2    0.0285690000000000  -24.3993968804032413 -12.2971027861809752 -4.8080929486975723  0 0 0
23        1    3    0.0140440000000000  -23.9956107534417740 -15.0034691355833782 -3.4259830861338982  0 0 0
24        1    3    0.0140440000000000  -22.9563403775274324 -14.3418949723110440 -4.6901378218515539  0 0 0
25        1    3    0.0140440000000000  -24.9002706505184968 -14.3231773145339218 -6.2764057769701775  0 0 0
26        1    3    0.0140440000000000  -25.9378519177180920 -14.9823019924966978 -5.0161263649122976  0 0 0
27        1    1    0.1060690000000000  -24.5140292033354044 -17.0565891038006328 -4.9104686227146548  0 0 0
28        1    1    0.1060690000000000  -23.4603565357730659 -16.3875365072016130 -6.1885801929682742  0 0 0
29        2    6   -0.1079060000000000   22.5127838841865326 -34.3432625257551507 -4.7758258173956660  0 0 0
30        2    8   -0.0058890000000000   23.8691060348174844 -34.0552629225210310 -5.3997247726318687  0 0 0
31        2    5    0.0928770000000000   25.0107056098073208 -34.4675025084880460 -4.4710815239918071  0 0 0
32        2    7   -0.1683500000000000   26.3613805579581815 -34.1757710605761815 -5.1023070227138714  0 0 0
33        2    4   -0.1647530000000000   27.7854046225157418 -34.7160324188343523 -3.8894621097369475  0 0 0
34        2    2    0.0285690000000000   21.7104820413160908 -34.0478167934158336 -5.4591235919926344  0 0 0
35        2    2    0.0285690000000000   22.3852184202556792 -33.7871873861203014 -3.8414456737752074  0 0 0
36        2    2    0.0285690000000000   22.3989878438297083 -35.4102010928855293 -4.5591698770919420  0 0 0
37        2    3    0.0140440000000000   23.9409206453278429 -32.9852157491916813 -5.6266805534948325  0 0 0
38        2    3    0.0140440000000000   23.9493781582134169 -34.5950793861374635 -6.3506405140696502  0 0 0
39        2    3    0.0140440000000000   24.9277040557644263 -35.5370788690239934 -4.2409067169230736  0 0 0
40        2    3    0.0140440000000000   24.9190432709198397 -33.9320485638580038 -3.5176314346794202  0 0 0
41        2    1    0.1060690000000000   26.5025368080334047 -33.1086422792956512 -5.2940469291690402  0 0 0
42        2    1    0.1060690000000000   26.5106882437544087 -34.7369747192770149 -6.0288215016741127  0 0 0
43        3    6   -0.1079060000000000   33.7689917972322675 -22.6140333568667664  33.8932414515664533 0 0 0
44        3    8   -0.0058890000000000   34.2614837529059102 -23.7891680527679306  34.7228881077918814 0 0 0
45        3    5    0.0928770000000000   34.2940258201661479 -25.0782105783530476  33.9025956415387952 0 0 0
46        3    7   -0.1683500000000000   34.7867246642126702 -26.2464550638271454  34.7394518745529126 0 0 0
47        3    4   -0.1647530000000000   34.8141536110852314 -27.8654708678302327  33.6583620846364155 0 0 0
48        3    2    0.0285690000000000   33.7602994164375119 -21.7009073653873834  34.4965636232134969 0 0 0
49        3    2    0.0285690000000000   32.7516791837308148 -22.7903765548302779  33.5291852962238366 0 0 0
50        3    2    0.0285690000000000   34.4187943488036936 -22.4440960936378673  33.0288774010428625 0 0 0
51        3    3    0.0140440000000000   33.6052115956864839 -23.9164802035837205  35.5916606268169815 0 0 0
52        3    3    0.0140440000000000   35.2648186895574867 -23.5649332286107835  35.1038394485554974 0 0 0
53        3    3    0.0140440000000000   34.9452425564905624 -24.9410232946648485  33.0302655994531023 0 0 0
54        3    3    0.0140440000000000   33.2896624619548547 -25.2916751474005821  33.5154689097778871 0 0 0
55        3    1    0.1060690000000000   34.1284626796736035 -26.4490590656683082  35.5886255273758465 0 0 0
56        3    1    0.1060690000000000   35.8085256974429953 -26.0924513232712769  35.0970506828342508 0 0 0
57        4    6   -0.1079060000000000  -3.1425299003153500  -34.2075434574363015  33.3706889111399576 0 0 0
58        4    8   -0.0058890000000000  -4.3573029701231576  -34.8484748148480961  34.0228674434882663 0 0 0
59        4    5    0.0928770000000000  -5.3582669193516779  -33.7954697766302985  34.4970202784821893 0 0 0
60        4    7   -0.1683500000000000  -6.5679402350421228  -34.4447780276035829  35.1473778324665318 0 0 0
61        4    4   -0.1647530000000000  -7.8163484201611020  -33.0710382255605992  35.7347751547372710 0 0 0
62        4    2    0.0285690000000000  -2.4428163742652873  -34.9781164801742221  33.0323245000516721 0 0 0
63        4    2    0.0285690000000000  -2.6161954525091615  -33.5570926462015748  34.0766949681370974 0 0 0
64        4    2    0.0285690000000000  -3.4337566668433208  -33.6079941309965449  32.5023716782559688 0 0 0
65        4    3    0.0140440000000000  -4.0294492790006942  -35.4601267660311024  34.8714315634764915 0 0 0
66        4    3    0.0140440000000000  -4.8381471088744394  -35.5219406689899984  33.3036186457600678 0 0 0
67        4    3    0.0140440000000000  -5.6753217739445549  -33.1813891970137078  33.6448204476227630 0 0 0
68        4    3    0.0140440000000000  -4.8685524092839385  -33.1183907076654762  35.2083033564468195 0 0 0
69        4    1    0.1060690000000000  -6.2960628922710580  -35.0204314977767908  36.0362866620240396 0 0 0
70        4    1    0.1060690000000000  -7.1141776373542172  -35.0852898784519383  34.4494948332910695 0 0 0
71        5    6   -0.1079060000000000   25.3418281953136919 -22.8700453975983429 -35.0302903923601576 0 0 0
72        5    8   -0.0058890000000000   24.2999645903855956 -23.6800170709051585 -34.2751284420032860 0 0 0
73        5    5    0.0928770000000000   24.6391767530934978 -25.1701464687328418 -34.2794684305663964 0 0 0
74        5    7   -0.1683500000000000   23.5929837219183476 -25.9711817997021583 -33.5233611474646978 0 0 0
75        5    4   -0.1647530000000000   24.0628693993138398 -27.8603923042265507 -33.5518352475076256 0 0 0
76        5    2    0.0285690000000000   25.0841740430962723 -21.8065476052101879 -35.0088647061253795 0 0 0
77        5    2    0.0285690000000000   25.3993746557272289 -23.1846330903768205 -36.0773251337829066 0 0 0
78        5    2    0.0285690000000000   26.3328041870015639 -22.9887739575534695 -34.5807157553428652 0 0 0
79        5    3    0.0140440000000000   23.3175029151194160 -23.5198814057474301 -34.7342502594740594 0 0 0
80        5    3    0.0140440000000000   24.2395520247406573 -23.3150036513920540 -33.2430423501545746 0 0 0
81        5    3    0.0140440000000000   25.6270551792975674 -25.3223353497497143 -33.8269222447075393 0 0 0
82        5    3    0.0140440000000000   24.7085763924873127 -25.5271647795580243 -35.3147952387711968 0 0 0
83        5    1    0.1060690000000000   22.6034518184887645 -25.8885367965904436 -33.9810177109003249 0 0 0
84        5    1    0.1060690000000000   23.5350263207163124 -25.6796805193569639 -32.4710592162192029 0 0 0
85        6    6   -0.1079060000000000  -3.8636941776824330  -24.5027657231061511  16.3756978795403185 0 0 0
86        6    8   -0.0058890000000000  -4.6295444387934719  -25.0802064849622930  15.1959356161146903 0 0 0
87        6    5    0.0928770000000000  -5.1258000726392670  -23.9797605640138585  14.2587491511866808 0 0 0
88        6    7   -0.1683500000000000  -5.8898513621920179  -24.5657900143057795  13.0837296646149337 0 0 0
89        6    4   -0.1647530000000000  -6.5020861434355952  -23.1331354540606355  11.9160871087595872 0 0 0
90        6    2    0.0285690000000000  -3.5114694552980064  -25.3067560292165474  17.0294635938613688 0 0 0
91        6    2    0.0285690000000000  -4.4999686732056841  -23.8373409179602973  16.9680857223791541 0 0 0
92        6    2    0.0285690000000000  -2.9921155688269634  -23.9335609922928256  16.0371658362928571 0 0 0
93        6    3    0.0140440000000000  -5.4793698411480758  -25.6633897923894914  15.5692467910761554 0 0 0
94        6    3    0.0140440000000000  -3.9778649841566494  -25.7704746011794192  14.6473647532005948 0 0 0
95        6    3    0.0140440000000000  -4.2714691128143709  -23.3946146392361634  13.8960011000537769 0 0 0
96        6    3    0.0140440000000000  -5.7687437321091171  -23.2864807007541224  14.8156750582390249 0 0 0
97        6    1    0.1060690000000000  -6.7822469849503433  -25.1096897750041421  13.4050647191826897 0 0 0
98        6    1    0.1060690000000000  -5.2626434920880740  -25.2203745082184589  12.4723371235181908 0 0 0
99        7    6   -0.1079060000000000   6.1126150503286443   15.4554960246080277  13.3327564656855646 0 0 0
100       7    8   -0.0058890000000000   5.6076490297146560   14.4449083129076516  14.3503640762533511 0 0 0
101       7    5    0.0928770000000000   4.2917624532908203   14.8973549014101145  14.9822690941476857 0 0 0
102       7    7   -0.1683500000000000   3.7952991975794816   13.8821225949429881  15.9975046742639186 0 0 0
103       7    4   -0.1647530000000000   2.1194538677951207   14.4951756325051271  16.7762395831872091 0 0 0
104       7    2    0.0285690000000000   7.0506182309726197   15.1092903422319154  12.8876003860996935 0 0 0
105       7    2    0.0285690000000000   6.2979389336091343   16.4264167595377977  13.8034227445597715 0 0 0
106       7    2    0.0285690000000000   5.3858497785302006   15.5974072355860223  12.5265798788223002 0 0 0
107       7    3    0.0140440000000000   6.3672849734490011   14.3076142303659939  15.1286768577145541 0 0 0
108       7    3    0.0140440000000000   5.4696469216800772   13.4757482052247841  13.8566330975269292 0 0 0
109       7    3    0.0140440000000000   3.5388374115417638   15.0414413141970336  14.1972810191061782 0 0 0
110       7    3    0.0140440000000000   4.4334810957515218   15.8722829254243258  15.4656024763703890 0 0 0
111       7    1    0.1060690000000000   4.4966719808170783   13.7544874292207684  16.8265032254717148 0 0 0
112       7    1    0.1060690000000000   3.5897591142798628   12.9108582098574622  15.5391705388107582 0 0 0
113       8    6   -0.1079060000000000   36.1902593509443236 -34.1443066078380113 -24.9681678720467133 0 0 0
114       8    8   -0.0058890000000000   34.6897925085677628 -34.2296725480960120 -25.1986355818725869 0 0 0
115       8    5    0.0928770000000000   33.9254630761863893 -34.3199870965048532 -23.8783276063451844 0 0 0
116       8    7   -0.1683500000000000   32.4278047186211111 -34.4052897409202743 -24.1183663248274769 0 0 0
117       8    4   -0.1647530000000000   31.4931786274820098 -34.5172706708695358 -22.4140617758428391 0 0 0
118       8    2    0.0285690000000000   36.7175209603330259 -34.0731345462504223 -25.9246206986483188 0 0 0
119       8    2    0.0285690000000000   36.5572313566348228 -35.0321582518446064 -24.4431823802716579 0 0 0
120       8    2    0.0285690000000000   36.4463250489363233 -33.2623582614933540 -24.3724794350330356 0 0 0
121       8    3    0.0140440000000000   34.4701141929954673 -35.1074157485945975 -25.8174857491552885 0 0 0
122       8    3    0.0140440000000000   34.3613174652421804 -33.3465570737216197 -25.7592578971016124 0 0 0
123       8    3    0.0140440000000000   34.1567056136289366 -33.4433061531199911 -23.2604111854734299 0 0 0
124       8    3    0.0140440000000000   34.2658520464817400 -35.1994892658592633 -23.3172649832787862 0 0 0
125       8    1    0.1060690000000000   32.1534742230120258 -35.2996352157951279 -24.6843540148435885 0 0 0
126       8    1    0.1060690000000000   32.0430370863140936 -33.5174950944725367 -24.6277246919596600 0 0 0
127       9    6   -0.1079060000000000   4.9664822310616641  -34.6594933310821389 -12.7524945403806971 0 0 0
128       9    8   -0.0058890000000000   4.4409270146868263  -34.7364057694967485 -14.1771627984177453 0 0 0
129       9    5    0.0928770000000000   5.2832752301680284  -33.8894871778367985 -15.1304454071316332 0 0 0
130       9    7   -0.1683500000000000   4.7507360252586448  -33.9720794567386193 -16.5508172578102837 0 0 0
131       9    4   -0.1647530000000000   5.8509194222247407  -32.8822171439047253 -17.7308665308088642 0 0 0
132       9    2    0.0285690000000000   4.3544275195172846  -35.2778282555277869 -12.0884740377701903 0 0 0
133       9    2    0.0285690000000000   4.9389365658848341  -33.6305157955585443 -12.3796604901414753 0 0 0
134       9    2    0.0285690000000000   5.9990291013745161  -35.0183841885353857 -12.6951224710123309 0 0 0
135       9    3    0.0140440000000000   3.3996213063488923  -34.3943371794400505 -14.1955671288718648 0 0 0
136       9    3    0.0140440000000000   4.4450763108568685  -35.7823335768748052 -14.5059544962974680 0 0 0
137       9    3    0.0140440000000000   6.3254907567444185  -34.2311731693151415 -15.1004325733674047 0 0 0
138       9    3    0.0140440000000000   5.2839013151610885  -32.8461385829553194 -14.7904405519068689 0 0 0
139       9    1    0.1060690000000000   3.7309199154026587  -33.5857753086980182 -16.6295403280302203 0 0 0
140       9    1    0.1060690000000000   4.7871253246495105  -34.9919073394161515 -16.9436255060730794 0 0 0
141       10   6   -0.1079060000000000  -15.7700114583323483  5.8910444397459258  -32.9541100656489689 0 0 0
142       10   8   -0.0058890000000000  -15.2251764497267441  4.6766479096721145  -33.6890926064228466 0 0 0
143       10   5    0.0928770000000000  -14.2353197346485079  5.0813512078223511  -34.7808656016836935 0 0 0
144       10   7   -0.1683500000000000  -13.6967582744809242  3.8621257447183028  -35.5097802107023952 0 0 0
145       10   4   -0.1647530000000000  -12.4408766061761433  4.4208764880322731  -36.8886487674046180 0 0 0
146       10   2    0.0285690000000000  -16.4702609972261307  5.5790644182524387  -32.1729626236970958 0 0 0
147       10   2    0.0285690000000000  -16.3016135399790301  6.5583776000272760  -33.6401307951301192 0 0 0
148       10   2    0.0285690000000000  -14.9624297237213444  6.4578352470323352  -32.4799717271882429 0 0 0
149       10   3    0.0140440000000000  -16.0593697644316649  4.1187939633256692  -34.1302135718589952 0 0 0
150       10   3    0.0140440000000000  -14.7339822835890644  4.0112391822497990  -32.9693386956154555 0 0 0
151       10   3    0.0140440000000000  -13.4079444332992086  5.6467101815495795  -34.3340069748863002 0 0 0
152       10   3    0.0140440000000000  -14.7294888054892574  5.7552943511151264  -35.4920459958404990 0 0 0
153       10   1    0.1060690000000000  -14.4888707680725570  3.3041131260705434  -36.0163696198158689 0 0 0
154       10   1    0.1060690000000000  -13.1485012788471902  3.1933941797262317  -34.8405390194851208 0 0 0
155       11   6   -0.1079060000000000  -26.1448094704153107 -5.9653291682844065   14.7861441879745250 0 0 0
156       11   8   -0.0058890000000000  -25.1461710524376443 -4.8902070081493774   15.1844369258265424 0 0 0
157       11   5    0.0928770000000000  -23.9201674579845829 -4.9001396256257204   14.2720850865681150 0 0 0
158       11   7   -0.1683500000000000  -22.9281721930544684 -3.8234113656042057   14.6776431365773359 0 0 0
159       11   4   -0.1647530000000000  -21.3849012355048167 -3.8695407254538785   13.4915122465219284 0 0 0
160       11   2    0.0285690000000000  -27.0171137856479504 -5.9362097239822162   15.4465300722800851 0 0 0
161       11   2    0.0285690000000000  -25.6973014031885683 -6.9618777087930344   14.8581601409095256 0 0 0
162       11   2    0.0285690000000000  -26.4915166641292998 -5.8176441557200089   13.7584134352037317 0 0 0
163       11   3    0.0140440000000000  -24.8386401805335346 -5.0520736856261825   16.2240960812464934 0 0 0
164       11   3    0.0140440000000000  -25.6357871958138475 -3.9102420570945915   15.1393713918830546 0 0 0
165       11   3    0.0140440000000000  -24.2358200711054685 -4.7466249812193873   13.2325371210644764 0 0 0
166       11   3    0.0140440000000000  -23.4406553445600672 -5.8863170823622539   14.3133420969276166 0 0 0
167       11   1    0.1060690000000000  -22.5478119952072333 -3.9769776189596717   15.6911502358243027 0 0 0
168       11   1    0.1060690000000000  -23.3554721471173821 -2.8202731324651271   14.5951819592122902 0 0 0
169       12   6   -0.1079060000000000  -3.7965894146926038  -4.6962516717354523  -22.8548978035289636 0 0 0
170       12   8   -0.0058890000000000  -4.6303109206472657  -4.2505727567402412  -24.0457303733461423 0 0 0
171       12   5    0.0928770000000000  -5.1254323300494207  -5.4451753373017455  -24.8601926582724673 0 0 0
172       12   7   -0.1683500000000000  -5.9567708310382628  -4.9904324295906637  -26.0476103893848610 0 0 0
173       12   4   -0.1647530000000000  -6.5676963263653629  -6.5400443054387711  -27.0556742405321167 0 0 0
174       12   2    0.0285690000000000  -3.4586136334233935  -3.8271594237658433  -22.2819027665569251 0 0 0
175       12   2    0.0285690000000000  -2.9121223493428361  -5.2524218217273271  -23.1819322602298037 0 0 0
176       12   2    0.0285690000000000  -4.3788103637070286  -5.3385105446724284  -22.1864895839786165 0 0 0
177       12   3    0.0140440000000000  -4.0274069231609237  -3.5907144425523558  -24.6803649082653500 0 0 0
178       12   3    0.0140440000000000  -5.4848325848477959  -3.6646018270300789  -23.6872377368156641 0 0 0
179       12   3    0.0140440000000000  -5.7203540338749823  -6.1057560524974637  -24.2171027922126711 0 0 0
180       12   3    0.0140440000000000  -4.2664984936710422  -6.0333633585660644  -25.2072481298695514 0 0 0
181       12   1    0.1060690000000000  -5.3781813073858009  -4.3747042246371270  -26.7415599950799248 0 0 0
182       12   1    0.1060690000000000  -6.8532485271333652  -4.4471598430845045  -25.7363965586271100 0 0 0
183       13   6   -0.1079060000000000  -14.4051651396263907 -32.8069751530508427  35.5669037017378429 0 0 0
184       13   8   -0.0058890000000000  -14.4767551763737430 -33.4843165418387940  34.2075336403589247 0 0 0
185       13   5    0.0928770000000000  -14.8728522237520107 -34.9547841162590061  34.3356023357413704 0 0 0
186       13   7   -0.1683500000000000  -14.9414056300220359 -35.6231601142275096  32.9730864131450900 0 0 0
187       13   4   -0.1647530000000000  -15.4495352076374068 -37.4911375946947771  33.1808943038026598 0 0 0
188       13   2    0.0285690000000000  -14.1275064870878637 -31.7545415595140454  35.4521802060375322 0 0 0
189       13   2    0.0285690000000000  -13.6572459152112664 -33.2879820721202648  36.2055021192567494 0 0 0
190       13   2    0.0285690000000000  -15.3721916805883332 -32.8495601200116170  36.0780723930366491 0 0 0
191       13   3    0.0140440000000000  -13.5019377865792691 -33.4024241972420413  33.7128702008864494 0 0 0
192       13   3    0.0140440000000000  -15.2045893102765337 -32.9559993768023531  33.5804573912840283 0 0 0
193       13   3    0.0140440000000000  -15.8447243085864677 -35.0299011708862977  34.8392742226118273 0 0 0
194       13   3    0.0140440000000000  -14.1468440044387656 -35.4757300738020191  34.9725539499234728 0 0 0
195       13   1    0.1060690000000000  -13.9736108208716452 -35.6174916852716805  32.4643682290836679 0 0 0
196       13   1    0.1060690000000000  -15.6962404269684015 -35.1640724996589640  32.3287771684739482 0 0 0
197       14   6   -0.1079060000000000   2.9619053802147799   24.2097636807433325  33.9833114159844314 0 0 0
198       14   8   -0.0058890000000000   4.4395643974319388   23.8524488254513081  34.0088726586080057 0 0 0
199       14   5    0.0928770000000000   5.2889135911235430   25.0209564046465367  34.5076364640698046 0 0 0
200       14   7   -0.1683500000000000   6.7632018256383715   24.6550642857178630  34.5293814031832653 0 0 0
201       14   4   -0.1647530000000000   7.8076078938010465   26.1678092550389358  35.1708938950170094 0 0 0
202       14   2    0.0285690000000000   2.3717479101578793   23.3581787718359557  33.6306223460414628 0 0 0
203       14   2    0.0285690000000000   2.7744847507056889   25.0542060392745505  33.3122306667055668 0 0 0
204       14   2    0.0285690000000000   2.6059242865772814   24.4793336177827356  34.9827396281723964 0 0 0
205       14   3    0.0140440000000000   4.7575875720603751   23.5641117687236061  33.0002150259016176 0 0 0
206       14   3    0.0140440000000000   4.5876007015511000   22.9810800421921080  34.6576313747144908 0 0 0
207       14   3    0.0140440000000000   4.9596082001962190   25.3101430088958210  35.5135153624611419 0 0 0
208       14   3    0.0140440000000000   5.1285901686935880   25.8928319852665254  33.8608680695583857 0 0 0
209       14   1    0.1060690000000000   7.1409973737723487   24.4153322058629882  33.5317581435312988 0 0 0
210       14   1    0.1060690000000000   6.9691339874158151   23.8230803052677906  35.2083998214313425 0 0 0
211       15   6   -0.1079060000000000  -24.1426331954887452  4.7341281432822040   26.4245619635448499 0 0 0
212       15   8   -0.0058890000000000  -23.8652772198707801  4.5908481531211969   24.9364934297371938 0 0 0
213       15   5    0.0928770000000000  -25.0102270107226907  5.1567617908092780   24.0972073758754526 0 0 0
214       15   7   -0.1683500000000000  -24.7246401018879176  5.0089331757726390   22.6124641315471422 0 0 0
215       15   4   -0.1647530000000000  -26.2044024121404675  5.7420694908750782   21.5811861364197206 0 0 0
216       15   2    0.0285690000000000  -23.3084890309802333  4.3299523982315709   27.0065565997135586 0 0 0
217       15   2    0.0285690000000000  -25.0496597827692469  4.1906317046034989   26.7082398661207847 0 0 0
218       15   2    0.0285690000000000  -24.2715037596762926  5.7855931862092307   26.7003533384797045 0 0 0
219       15   3    0.0140440000000000  -23.7168478028235832  3.5311366542771250   24.6984861498639141 0 0 0
220       15   3    0.0140440000000000  -22.9320860498035586  5.1122652545270153   24.6928448673155465 0 0 0
221       15   3    0.0140440000000000  -25.1592195772226361  6.2147807531728114   24.3467276780693851 0 0 0
222       15   3    0.0140440000000000  -25.9430187366173470  4.6384099503632976   24.3529239173988898 0 0 0
223       15   1    0.1060690000000000  -24.6263155665451627  3.9610998908770689   22.3161015034804393 0 0 0
224       15   1    0.1060690000000000  -23.8300199501514953  5.5602574932179589   22.3101932391334863 0 0 0
225       16   6   -0.1079060000000000   23.3545116231933605 -33.0515157069371099  5.9573387075695736  0 0 0
226       16   8   -0.0058890000000000   23.8126011088088703 -34.3754513382935940  5.3664479213042640  0 0 0
227       16   5    0.0928770000000000   25.0567349329296363 -34.1989977010468351  4.4966407641245656  0 0 0
228       16   7   -0.1683500000000000   25.5067105118116686 -35.5263217428627271  3.9104594355859232  0 0 0
229       16   4   -0.1647530000000000   27.0919296849012525 -35.2575671825821715  2.8124745476218154  0 0 0
230       16   2    0.0285690000000000   22.4680849767106139 -33.2011889418070538  6.5816126856984871  0 0 0
231       16   2    0.0285690000000000   23.0974464031612960 -32.3380254478676932  5.1677768770819599  0 0 0
232       16   2    0.0285690000000000   24.1377495463136711 -32.6076691588854715  6.5800632364495915  0 0 0
233       16   3    0.0140440000000000   22.9986773512056040 -34.8043573898861354  4.7704320376096474  0 0 0
234       16   3    0.0140440000000000   24.0243043509938303 -35.0785225323953327  6.1806707463176238  0 0 0
235       16   3    0.0140440000000000   25.8642624781888841 -33.7612643619549218  5.0967674826557579  0 0 0
236       16   3    0.0140440000000000   24.8419523167387979 -33.4866001296666056  3.6900813353942716  0 0 0
237       16   1    0.1060690000000000   24.7464327824043693 -35.9657513700143312  3.2590513519327517  0 0 0
238       16   1    0.1060690000000000   25.7829421293382133 -36.2448432711802440  4.6870509099937472  0 0 0
239       17   6   -0.1079060000000000  -13.7191188816806662 -32.8128427043535140 -35.1811349072087012 0 0 0
240       17   8   -0.0058890000000000  -14.9219658841339751 -33.6210855444697074 -34.7210196453557529 0 0 0
241       17   5    0.0928770000000000  -14.4970037622848196 -34.8388320829062152 -33.9012209431005118 0 0 0
242       17   7   -0.1683500000000000  -15.7048068735076605 -35.6402084998149888 -33.4463768308566500 0 0 0
243       17   4   -0.1647530000000000  -15.1203672321882774 -37.1788030496997806 -32.4062437762337083 0 0 0
244       17   2    0.0285690000000000  -14.0454337510613385 -31.9427581284855115 -35.7593595291832855 0 0 0
245       17   2    0.0285690000000000  -13.0616559719422298 -33.4155277008787692 -35.8160144852245992 0 0 0
246       17   2    0.0285690000000000  -13.1371093967574293 -32.4539840812748608 -34.3263058661709621 0 0 0
247       17   3    0.0140440000000000  -15.4955903333549614 -33.9435038003176359 -35.5977571644867012 0 0 0
248       17   3    0.0140440000000000  -15.5783248518894961 -32.9793515889365239 -34.1214726403072390 0 0 0
249       17   3    0.0140440000000000  -13.9160141408707947 -34.5097535311956278 -33.0305765510475595 0 0 0
250       17   3    0.0140440000000000  -13.8321780297181647 -35.4716302288717813 -34.5026801983952680 0 0 0
251       17   1    0.1060690000000000  -16.2777077817976199 -36.0333272462696925 -34.2905896683368852 0 0 0
252       17   1    0.1060690000000000  -16.3633272268326984 -35.0564680879056070 -32.7973240694723955 0 0 0
253       18   6   -0.1079060000000000  -5.9917556058622923  -6.1699012430011262   13.6478010700451353 0 0 0
254       18   8   -0.0058890000000000  -5.5058697475872407  -5.4215324209598545   14.8789235225350929 0 0 0
255       18   5    0.0928770000000000  -4.3783887223617830  -4.4493560767454783   14.5336279352384512 0 0 0
256       18   7   -0.1683500000000000  -3.8992317122479134  -3.7067822711404776   15.7692930947327490 0 0 0
257       18   4   -0.1647530000000000  -2.4665537570475817  -2.4801521993792490   15.2860414022018247 0 0 0
258       18   2    0.0285690000000000  -6.8027701558025360  -6.8543655188886135   13.9154507130843506 0 0 0
259       18   2    0.0285690000000000  -5.1832413719218629  -6.7587306252812205   13.2026679962577731 0 0 0
260       18   2    0.0285690000000000  -6.3689597301854750  -5.4758393086567025   12.8900132889430132 0 0 0
261       18   3    0.0140440000000000  -5.1589052703943512  -6.1447579440784370   15.6260699018852893 0 0 0
262       18   3    0.0140440000000000  -6.3463457790151372  -4.8745281070813782   15.3221757043611415 0 0 0
263       18   3    0.0140440000000000  -4.7294601825902394  -3.7342234747207206   13.7791761593545559 0 0 0
264       18   3    0.0140440000000000  -3.5446932368357684  -5.0009379472925213   14.0809809850694059 0 0 0
265       18   1    0.1060690000000000  -3.4888336180773383  -4.3852711820806345   16.5220741495769907 0 0 0
266       18   1    0.1060690000000000  -4.6918591494105604  -3.1004897200336616   16.2163081947342569 0 0 0
267       19   6   -0.1079060000000000  -5.1930782731287888   15.3304168691846670 -26.3312234277164912 0 0 0
268       19   8   -0.0058890000000000  -4.4438435799896920   15.1198022802888161 -25.0250487366276602 0 0 0
269       19   5    0.0928770000000000  -5.2802149776666418   14.3256146561751461 -24.0223931367566976 0 0 0
270       19   7   -0.1683500000000000  -4.5240715568159349   14.1205202328702573 -22.7208328853148167 0 0 0
271       19   4   -0.1647530000000000  -5.6223575422879408   13.1053314223466852 -21.4742859637336494 0 0 0