LAMMPS data file via vdw_self_gen.py, on 2021-08-05 13:23:10.854400

4000 atoms
3 atom types
3500 bonds
3 bond types
6000 angles
4 angle types
4500 dihedrals
3 dihedral types

-39.8699037794959565  39.8699037794959565 xlo xhi
-39.8699037794959565  39.8699037794959565 ylo yhi
-39.8699037794959565  39.8699037794959565 zlo zhi

Masses

1  35.452700
2  1.007940
3  12.011000

Atoms

1         0    1   -0.1873450000000000  -12.4336133642581768  29.0406830753176948 -4.7033573777499988  0 0 0
2         0    3    0.0181190000000000  -13.3273474343810321  30.5466148705074367 -5.0293884623695941  0 0 0
3         0    3    0.0181190000000000  -13.2525649674202430  31.4732468436110970 -3.8306016791352806  0 0 0
4         0    1   -0.1873450000000000  -14.1466233442006519  32.9790174853406697 -4.1564866310954836  0 0 0
5         0    2    0.0846130000000000  -14.3617760916041544  30.2724325297600778 -5.2581773817644519  0 0 0
6         0    2    0.0846130000000000  -12.8839920119893367  31.0066483479459087 -5.9178612973351603  0 0 0
7         0    2    0.0846130000000000  -12.2181451040666911  31.7476175026692715 -3.6019872844712486  0 0 0
8         0    2    0.0846130000000000  -13.6956810940689184  31.0131406394893325 -2.9420543567418496  0 0 0
9         1    1   -0.1873450000000000   4.1159928921298521   2.4732456406512870   30.1389784929723845 0 0 0
10        1    3    0.0181190000000000   3.8138212581964708   3.9879450132059304   31.0262583487273709 0 0 0
11        1    3    0.0181190000000000   5.0461470163983373   4.8720454385740162   30.9935681952226396 0 0 0
12        1    1   -0.1873450000000000   4.7441050741492710   6.3865779892898598   31.8811764570389578 0 0 0
13        1    2    0.0846130000000000   3.5417952671230841   3.7199408591122318   32.0518014273296643 0 0 0
14        1    2    0.0846130000000000   2.9570173980618417   4.4797681613514211   30.5555398069142647 0 0 0
15        1    2    0.0846130000000000   5.3180049941633332   5.1402439069674069   29.9680287882874588 0 0 0
16        1    2    0.0846130000000000   5.9030305704408814   4.3801474615109193   31.4640497781487412 0 0 0
17        2    1   -0.1873450000000000  -32.9647044798050786 -22.7067063837318202  30.2650466940731278 0 0 0
18        2    3    0.0181190000000000  -31.6854673386397820 -22.1123754487933084  31.3528014938503325 0 0 0
19        2    3    0.0181190000000000  -30.3343873844242928 -22.1874910846998077  30.6670394497275716 0 0 0
20        2    1   -0.1873450000000000  -29.0550993882826027 -21.5935220964832268  31.7549317571113292 0 0 0
21        2    2    0.0846130000000000  -31.7093053566967846 -22.7289186255163536  32.2566096773889512 0 0 0
22        2    2    0.0846130000000000  -31.9377889821725205 -21.0831991294547301  31.6261304189893160 0 0 0
23        2    2    0.0846130000000000  -30.3104928068230492 -21.5707402409417917  29.7633715352894015 0 0 0
24        2    2    0.0846130000000000  -30.0821555577973676 -23.2166193436943047  30.3934702682114448 0 0 0
25        3    1   -0.1873450000000000   14.9458696049922146  32.0916932004834123  30.1302916163260583 0 0 0
26        3    3    0.0181190000000000   13.7992116533599187  31.4645494970192630  31.3405617288066125 0 0 0
27        3    3    0.0181190000000000   12.7807417486394268  30.5552789923293275  30.6792938669839366 0 0 0
28        3    1   -0.1873450000000000   11.6338499102192188  29.9284415404801507  31.8895006792372584 0 0 0
29        3    2    0.0846130000000000   13.3176399908201972  32.3252868313492314  31.8146745293396549 0 0 0
30        3    2    0.0846130000000000   14.3801138823126831  30.9292056596548690  32.0978848999783892 0 0 0
31        3    2    0.0846130000000000   13.2623148400347883  29.6944160034382989  30.2054051398532764 0 0 0
32        3    2    0.0846130000000000   12.2000017816107587  31.0905295698869217  29.9217888341162919 0 0 0
33        4    1   -0.1873450000000000  -13.6138187583553805  15.1403705353503497 -5.5056837154959197  0 0 0
34        4    3    0.0181190000000000  -12.9554561045194596  13.5461842421242284 -5.0606937082776930  0 0 0
35        4    3    0.0181190000000000  -13.6244991615356845  13.0337389851188306 -3.7993015293614576  0 0 0
36        4    1   -0.1873450000000000  -12.9658626262417851  11.4397267435390262 -3.3540942781067420  0 0 0
37        4    2    0.0846130000000000  -11.8763857741942260  13.6630890608858753 -4.9210389265403203  0 0 0
38        4    2    0.0846130000000000  -13.1266012313069673  12.8719717835209089 -5.9055165983800837  0 0 0
39        4    2    0.0846130000000000  -14.7035333578806799  12.9166017381581568 -3.9390596138953469  0 0 0
40        4    2    0.0846130000000000  -13.4535863979550339  13.7080603232918268 -2.9545261006055004  0 0 0
41        5    1   -0.1873450000000000  -20.4491327201254762  5.6817911520119049   4.9056069220866920  0 0 0
42        5    3    0.0181190000000000  -21.4132773205904847  4.2518167948593018   4.4600892958583156  0 0 0
43        5    3    0.0181190000000000  -22.8866121246387806  4.6081679959233561   4.3998617333958698  0 0 0
44        5    1   -0.1873450000000000  -23.8507953357611804  3.1781023305324299   3.9547218266702338  0 0 0
45        5    2    0.0846130000000000  -21.2199494399310851  3.4780718450168537   5.2094263733161634  0 0 0
46        5    2    0.0846130000000000  -21.0482528902171957  3.8976493119119775   3.4911200658755384  0 0 0
47        5    2    0.0846130000000000  -23.0799515737859942  5.3817346497753729   3.6503400571571887  0 0 0
48        5    2    0.0846130000000000  -23.2516009482651604  4.9625803906318779   5.3687481963030619  0 0 0
49        6    1   -0.1873450000000000  -4.3338341617364149   14.1823023204651495  20.1800528542164272 0 0 0
50        6    3    0.0181190000000000  -4.9929478087559129   13.5190754168402041  21.6961619210782821 0 0 0
51        6    3    0.0181190000000000  -3.8670307297803244   13.0608865501815234  22.6037425931626430 0 0 0
52        6    1   -0.1873450000000000  -4.5261574278717243   12.3973043058625034  24.1196902206840136 0 0 0
53        6    2    0.0846130000000000  -5.6554782509002033   12.6891958393499102  21.4317450672345053 0 0 0
54        6    2    0.0846130000000000  -5.5904293890331633   14.3056807199131875  22.1671679378199578 0 0 0
55        6    2    0.0846130000000000  -3.2046579609293562   13.8908342797863504  22.8683504821389398 0 0 0
56        6    2    0.0846130000000000  -3.2693787416559612   12.2744639795903812  22.1326612769805848 0 0 0
57        7    1   -0.1873450000000000   20.9546705654144603  3.4435347881596625   20.6385860822188540 0 0 0
58        7    3    0.0181190000000000   21.8625569800926343  3.7280561126946874   22.1444669878444103 0 0 0
59        7    3    0.0181190000000000   22.4373121413812804  5.1319311443978020   22.1554388852476691 0 0 0
60        7    1   -0.1873450000000000   23.3455239625504518  5.4163217275791675   23.6611479848370792 0 0 0
61        7    2    0.0846130000000000   22.6524955279685756  2.9727716068520804   22.2001929092253469 0 0 0
62        7    2    0.0846130000000000   21.1722374052486870  3.5727379413725213   22.9792807153575716 0 0 0
63        7    2    0.0846130000000000   21.6473396481863070  5.8872023629011387   22.0999672691201781 0 0 0
64        7    2    0.0846130000000000   23.1274361224729503  5.2873587867060206   21.3204915194642339 0 0 0
65        8    1   -0.1873450000000000   22.1259815036513814 -32.8947451267644624 -32.0742874165555136 0 0 0
66        8    3    0.0181190000000000   21.5608418679467064 -31.4452796199618021 -31.2067885031585526 0 0 0
67        8    3    0.0181190000000000   22.7390481617276912 -30.5745570627332484 -30.8130866613693222 0 0 0
68        8    1   -0.1873450000000000   22.1739382310132100 -29.1252831792460540 -29.9452487817225332 0 0 0
69        8    2    0.0846130000000000   21.0035084644170524 -31.7840731357704875 -30.3280613535517709 0 0 0
70        8    2    0.0846130000000000   20.8740176676285039 -30.9113126976365962 -31.8706639832900436 0 0 0
71        8    2    0.0846130000000000   23.2962177251758291 -30.2355682012988822 -31.6918453785894876 0 0 0
72        8    2    0.0846130000000000   23.4260187317549793 -31.1085822712299489 -30.1494192164042651 0 0 0
73        9    1   -0.1873450000000000   21.4490115690027814  11.2480459779483990  13.4488154927045116 0 0 0
74        9    3    0.0181190000000000   21.7998754507296617  12.9436286399436327  13.8668841483589595 0 0 0
75        9    3    0.0181190000000000   22.4999919473091836  13.6363148861858292  12.7130420282731560 0 0 0
76        9    1   -0.1873450000000000   22.8512023851604695  15.3317899678018730  13.1312549937146752 0 0 0
77        9    2    0.0846130000000000   22.4226671241901911  12.9386136505860989  14.7666998816343877 0 0 0
78        9    2    0.0846130000000000   20.8476910510800444  13.4277599191517805  14.1046667864051170 0 0 0
79        9    2    0.0846130000000000   21.8770781438199933  13.6415401793699900  11.8133090993249290 0 0 0
80        9    2    0.0846130000000000   23.4520546820230216  13.1520501910016030  12.4750709815734631 0 0 0
81        10   1   -0.1873450000000000  -4.6363814348563608  -12.7369871643906052  28.9272340662234591 0 0 0
82        10   3    0.0181190000000000  -4.9028632557732088  -13.5623169687061456  30.4830957507022973 0 0 0
83        10   3    0.0181190000000000  -3.9571354133317986  -13.0175997579946774  31.5367612531203214 0 0 0
84        10   1   -0.1873450000000000  -4.2233517144290369  -13.8431987587872101  33.0925253031679176 0 0 0
85        10   2    0.0846130000000000  -4.7442978171538890  -14.6326330088012746  30.3192557418809905 0 0 0
86        10   2    0.0846130000000000  -5.9483865026033058  -13.4039169582503295  30.7648214797819470 0 0 0
87        10   2    0.0846130000000000  -4.1158917830052353  -11.9473346958176929  31.7007654160900181 0 0 0
88        10   2    0.0846130000000000  -2.9116065495102297  -13.1757560992412621  31.2549422836745379 0 0 0
89        11   1   -0.1873450000000000   12.2949950136888813  2.5658781793352952  -3.9597699639270192  0 0 0
90        11   3    0.0181190000000000   13.5062373180426061  3.8719262005262292  -3.9640213739447185  0 0 0
91        11   3    0.0181190000000000   13.0736854717751747  4.9880645671063597  -4.8959350123997361  0 0 0
92        11   1   -0.1873450000000000   14.2851137286337355  6.2939387978314727  -4.9004825955761273  0 0 0
93        11   2    0.0846130000000000   14.4593105594378208  3.4358441559999351  -4.2787384206361976  0 0 0
94        11   2    0.0846130000000000   13.6091395503920474  4.2286848450407817  -2.9345976470267638  0 0 0
95        11   2    0.0846130000000000   12.1207345232073891  5.4243004586354804  -4.5810525100825483  0 0 0
96        11   2    0.0846130000000000   12.9705272468115425  4.6312772661875217  -5.9253169470699607  0 0 0
97        12   1   -0.1873450000000000   13.7799164017775002  14.3664621380710962 -2.6169536399370434  0 0 0
98        12   3    0.0181190000000000   13.5028294624764769  14.0124807427876359 -4.3405566765617705  0 0 0
99        12   3    0.0181190000000000   13.0770793650401025  12.5674637945952199 -4.5194193517335153  0 0 0
100       12   1   -0.1873450000000000   12.8003662047921125  12.2133758591418875 -6.2430603147568444  0 0 0
101       12   2    0.0846130000000000   14.4350094847658443  14.2229864369491992 -4.8737458843203036  0 0 0
102       12   2    0.0846130000000000   12.7328831389171562  14.7027895351267315 -4.6986561591875287  0 0 0
103       12   2    0.0846130000000000   12.1447628502993012  12.3570473654149708 -3.9864286422717279  0 0 0
104       12   2    0.0846130000000000   13.8468965039207088  11.8771375399024617 -4.1610938018943289  0 0 0
105       13   1   -0.1873450000000000  -11.5081469212649665  3.2254878418774862  -4.6755045916076146  0 0 0
106       13   3    0.0181190000000000  -12.5815402051201559  4.6447443963177033  -4.5953477525165383  0 0 0
107       13   3    0.0181190000000000  -13.9983891578680026  4.2152375390873855  -4.2646033084370281  0 0 0
108       13   1   -0.1873450000000000  -15.0718608622190846  5.6344559395203273  -4.1848271194445283  0 0 0
109       13   2    0.0846130000000000  -12.5333515475112804  5.1490059870239451  -5.5653792334058361  0 0 0
110       13   2    0.0846130000000000  -12.1800661585664933  5.3183071776670809  -3.8319929340181362  0 0 0
111       13   2    0.0846130000000000  -14.0465936224506951  3.7112026778138203  -3.2944520615094088  0 0 0
112       13   2    0.0846130000000000  -14.3997949369885347  3.5414729113553127  -5.0278074697239736  0 0 0
113       14   1   -0.1873450000000000  -5.0193424252503984   12.7941169558638403 -33.0329877786948032 0 0 0
114       14   3    0.0181190000000000  -4.0339157500909089   13.3435151902836022 -31.6545889699675982 0 0 0
115       14   3    0.0181190000000000  -4.8260524627259249   13.2363942992193806 -30.3652583196713302 0 0 0
116       14   1   -0.1873450000000000  -3.8407587766413323   13.7861562494433372 -28.9869097575333612 0 0 0
117       14   2    0.0846130000000000  -3.7350722229701425   14.3770208937509096 -31.8548924389804533 0 0 0
118       14   2    0.0846130000000000  -3.1348248557653626   12.7204089656079198 -31.6237181761436581 0 0 0
119       14   2    0.0846130000000000  -5.1246680662134132   12.2028412267560942 -30.1648461906584231 0 0 0
120       14   2    0.0846130000000000  -5.7252799110055941   13.8592896310641187 -30.3961996629918474 0 0 0
121       15   1   -0.1873450000000000  -20.9871820544279686  3.2712796611347503  -3.0188343469648276  0 0 0
122       15   3    0.0181190000000000  -22.2062596272430994  3.6962748714828084  -4.2460736759632054  0 0 0
123       15   3    0.0181190000000000  -22.0936153062142573  5.1636961564879966  -4.6139255644369124  0 0 0
124       15   1   -0.1873450000000000  -23.3129456970347064  5.5887828606472816  -5.8408816763124198  0 0 0
125       15   2    0.0846130000000000  -23.1900853528634769  3.4641308004766356  -3.8268374127365616  0 0 0
126       15   2    0.0846130000000000  -22.0368729457560946  3.0527558143208582  -5.1148487818474768  0 0 0
127       15   2    0.0846130000000000  -21.1098679605518527  5.3957638713521474  -5.0333942632928430  0 0 0
128       15   2    0.0846130000000000  -22.2627434092238872  5.8072304347606032  -3.7451187491088271  0 0 0
129       16   1   -0.1873450000000000   4.9708623340606417   13.1911511316452792 -20.0562227695700912 0 0 0
130       16   3    0.0181190000000000   4.3267938994441391   12.7279977727952041 -21.6510745638495976 0 0 0
131       16   3    0.0181190000000000   4.5332097775850944   13.8519262348512786 -22.6488251739880049 0 0 0
132       16   1   -0.1873450000000000   3.8887943640510367   13.3889237835318831 -24.2435803631540310 0 0 0
133       16   2    0.0846130000000000   3.2646187592672646   12.4979705280120026 -21.5228777981037105 0 0 0
134       16   2    0.0846130000000000   4.8456325302201542   11.8165174639706585 -21.9634668352642315 0 0 0
135       16   2    0.0846130000000000   5.5954074398918188   14.0817645892589667 -22.7771946046686722 0 0 0
136       16   2    0.0846130000000000   4.0145953661429248   14.7634919079239442 -22.3363302447170184 0 0 0
137       17   1   -0.1873450000000000  -22.1124470347808391 -31.0006648063770562 -11.1255983496290938 0 0 0
138       17   3    0.0181190000000000  -21.9742984580274481 -31.5688027458060958 -12.8081623693687163 0 0 0
139       17   3    0.0181190000000000  -22.3255670507751560 -30.4510403771119975 -13.7717736216278457 0 0 0
140       17   1   -0.1873450000000000  -22.1877929964446778 -31.0192887091503700 -15.4543308276654159 0 0 0
141       17   2    0.0846130000000000  -22.6492327886536025 -32.4224238079951661 -12.9237379032391981 0 0 0
142       17   2    0.0846130000000000  -20.9465246932188940 -31.9146016925855811 -12.9554138079948267 0 0 0
143       17   2    0.0846130000000000  -21.6504611411600969 -29.5975308999008888 -13.6563533599160234 0 0 0
144       17   2    0.0846130000000000  -23.3532481902546287 -30.1050482557143120 -13.6243731725480988 0 0 0
145       18   1   -0.1873450000000000  -32.9061864179650811  22.4415348559485572  14.2925431793242002 0 0 0
146       18   3    0.0181190000000000  -31.2162012889420382  22.6859096171646470  13.7854744780996388 0 0 0
147       18   3    0.0181190000000000  -30.8036578280654467  21.6140007844615916  12.7944405080152936 0 0 0
148       18   1   -0.1873450000000000  -29.1135519597475039  21.8581486776744320  12.2876658355848356 0 0 0
149       18   2    0.0846130000000000  -30.5950347067806163  22.6574753357503020  14.6859779713445935 0 0 0
150       18   2    0.0846130000000000  -31.1460004916232691  23.6852146031087578  13.3449745319894699 0 0 0
151       18   2    0.0846130000000000  -31.4246748647708998  21.6426183224659994  11.8938367492289299 0 0 0
152       18   2    0.0846130000000000  -30.8740937367466266  20.6146701567410489  13.2348301584022305 0 0 0
153       19   1   -0.1873450000000000   21.9859245180461329 -14.0453846778214029 -28.9879385299666943 0 0 0
154       19   3    0.0181190000000000   21.8261355982366609 -12.9733334261013624 -30.4014664012135363 0 0 0
155       19   3    0.0181190000000000   22.4737322550970120 -13.6066142178648324 -31.6183899778635791 0 0 0
156       19   1   -0.1873450000000000   22.3142829259488025 -12.5343929291901084 -33.0318269336726900 0 0 0
157       19   2    0.0846130000000000   22.3004944642875991 -12.0205109168329152 -30.1471518233178344 0 0 0
158       19   2    0.0846130000000000   20.7579579880488687 -12.7987864252876733 -30.5630484144466159 0 0 0
159       19   2    0.0846130000000000   21.9991909381747490 -14.5593133366454648 -31.8728367921652591 0 0 0
160       19   2    0.0846130000000000   23.5418536654755215 -13.7814074822454611 -31.4567424219952905 0 0 0
161       20   1   -0.1873450000000000   29.8375389628327135 -13.7538042388787218  32.7695711797507059 0 0 0
162       20   3    0.0181190000000000   31.1229668513405855 -13.0873483137722371  31.7320746393532609 0 0 0
163       20   3    0.0181190000000000   30.8968683545271645 -13.4925636014152985  30.2877723777061121 0 0 0
164       20   1   -0.1873450000000000   32.1825086304594805 -12.8264305239072982  29.2503320601695194 0 0 0
165       20   2    0.0846130000000000   32.0785480790495967 -13.4656556879336673  32.1079882203865026 0 0 0
166       20   2    0.0846130000000000   31.1087541147352731 -11.9992990496398608  31.8483742796759834 0 0 0
167       20   2    0.0846130000000000   29.9413958475927657 -13.1140302787413905  29.9118028765255914 0 0 0
168       20   2    0.0846130000000000   30.9108204541038916 -14.5806117177007302  30.1714856610737847 0 0 0
169       21   1   -0.1873450000000000   20.5394603548841381 -13.3535992281930298 -20.7048607597738190 0 0 0
170       21   3    0.0181190000000000   21.9740538801765446 -13.8299594319546610 -21.6471504187753894 0 0 0
171       21   3    0.0181190000000000   22.3258560620601578 -12.7499648247334765 -22.6527228208405482 0 0 0
172       21   1   -0.1873450000000000   23.7602186774775568 -13.2264951148871592 -23.5952775293636350 0 0 0
173       21   2    0.0846130000000000   21.7421269928472363 -14.7773160000334691 -22.1434249641146579 0 0 0
174       21   2    0.0846130000000000   22.7916542594150400 -13.9981631987134012 -20.9394669287056772 0 0 0
175       21   2    0.0846130000000000   22.5580252816973719 -11.8026846759347244 -22.1564103921780742 0 0 0
176       21   2    0.0846130000000000   21.5081768447573083 -12.5815609375392619 -23.3602585395635529 0 0 0
177       22   1   -0.1873450000000000   22.8775410531651637 -12.9557252069994853  24.1611341703195208 0 0 0
178       22   3    0.0181190000000000   22.2101708812716083 -13.7770075967498311  22.7283048999761412 0 0 0
179       22   3    0.0181190000000000   22.0897485261417543 -12.8029358778387525  21.5715803323272155 0 0 0
180       22   1   -0.1873450000000000   21.4220170708919753 -13.6241247278099706  20.1388660604456931 0 0 0
181       22   2    0.0846130000000000   21.2348869028774132 -14.1868332318947896  23.0083532578817653 0 0 0
182       22   2    0.0846130000000000   22.8797526992868328 -14.6071463838723421  22.4831343623942281 0 0 0
183       22   2    0.0846130000000000   23.0650791949599743 -12.3933155659478196  21.2913847930176807 0 0 0
184       22   2    0.0846130000000000   21.4203760247206354 -11.9726548208762011  21.8168144769530841 0 0 0
185       23   1   -0.1873450000000000  -22.5110577510057723  21.9351375354826459 -11.1664229143201084 0 0 0
186       23   3    0.0181190000000000  -22.4969898364910605  21.5900758452502259 -12.9138844880650563 0 0 0
187       23   3    0.0181190000000000  -21.8028788501281170  22.7098028335864193 -13.6660482952253162 0 0 0
188       23   1   -0.1873450000000000  -21.7891518475397525  22.3649275218977195 -15.4135491385119803 0 0 0
189       23   2    0.0846130000000000  -23.5369358415615402  21.4777405862639981 -13.2355303626328205 0 0 0
190       23   2    0.0846130000000000  -21.9828335863178417  20.6346328969950399 -13.0565411823954101 0 0 0
191       23   2    0.0846130000000000  -20.7628601505754489  22.8219525344220351 -13.3445645430958422 0 0 0
192       23   2    0.0846130000000000  -22.3168644896957957  23.6653025994172808 -13.5232024877426795 0 0 0
193       24   1   -0.1873450000000000   20.3637177853888467  12.6323482376845391 -3.3990136549628511  0 0 0
194       24   3    0.0181190000000000   21.5932512430843886  12.8350612832167776 -4.6718224880475008  0 0 0
195       24   3    0.0181190000000000   22.7066553915046292  13.7448513271538921 -4.1881467073498317  0 0 0
196       24   1   -0.1873450000000000   23.9359957606388498  13.9478750844947132 -5.4610921968631070  0 0 0
197       24   2    0.0846130000000000   21.0914074497994122  13.2508382920733414 -5.5509386683943589  0 0 0
198       24   2    0.0846130000000000   21.9721997711100201  11.8400804326958919 -4.9247847967101848  0 0 0
199       24   2    0.0846130000000000   23.2086499676795768  13.3289311014997747 -3.3091813695334031  0 0 0
200       24   2    0.0846130000000000   22.3276949841096481  14.7397576531702903 -3.9349345888018155  0 0 0
201       25   1   -0.1873450000000000  -4.6463350458447845   20.2477523718484669 -5.4403553244676317  0 0 0
202       25   3    0.0181190000000000  -4.8638409342335134   21.5545030954685615 -4.2495651822365996  0 0 0
203       25   3    0.0181190000000000  -3.9961596068014282   22.7454001110290029 -4.6104285843085222  0 0 0
204       25   1   -0.1873450000000000  -4.2133734752634160   24.0520042094554007 -3.4194246070594301  0 0 0
205       25   2    0.0846130000000000  -4.6001276904110773   21.1515261064320441 -3.2669015348781931  0 0 0
206       25   2    0.0846130000000000  -5.9252092555106666   21.8210382024984604 -4.2436378970322979  0 0 0
207       25   2    0.0846130000000000  -4.2600612917962870   23.1485165411667211 -5.5929871312205535  0 0 0
208       25   2    0.0846130000000000  -2.9348071708018839   22.4788317154167103 -4.6166142094598559  0 0 0
209       26   1   -0.1873450000000000  -11.5107052293197150  30.0582917945052444  12.5059999288820674 0 0 0
210       26   3    0.0181190000000000  -12.8698014299223154  30.4529869268915370  13.5876471440026698 0 0 0
211       26   3    0.0181190000000000  -13.7101502621875948  31.5668433440246474  12.9922760792692848 0 0 0
212       26   1   -0.1873450000000000  -15.0690247711642868  31.9618040257582798  14.0741045024667422 0 0 0
213       26   2    0.0846130000000000  -12.4472824980915817  30.7445575389204642  14.5540980237403339 0 0 0
214       26   2    0.0846130000000000  -13.4569237440704850  29.5397683534313913  13.7251172669993835 0 0 0
215       26   2    0.0846130000000000  -14.1328652881138979  31.2751562035197956  12.0259433867558769 0 0 0
216       26   2    0.0846130000000000  -13.1229901891193474  32.4799931075901469  12.8545570798728299 0 0 0
217       27   1   -0.1873450000000000  -5.7452677437471591   22.8564906943025612 -32.5773515987708961 0 0 0
218       27   3    0.0181190000000000  -4.8465404874637397   21.7540931907301882 -31.5050193317329743 0 0 0
219       27   3    0.0181190000000000  -4.0134603742746195   22.5457991293381781 -30.5148131843163704 0 0 0
220       27   1   -0.1873450000000000  -3.1144337387487213   21.4434022310123282 -29.4427316595820976 0 0 0
221       27   2    0.0846130000000000  -4.2184806525145362   21.1191760910456452 -32.1374622878576872 0 0 0
222       27   2    0.0846130000000000  -5.5792619290378731   21.1215863708937768 -30.9944968333864566 0 0 0
223       27   2    0.0846130000000000  -4.6415639046017896   23.1805190057997734 -29.8822115029124191 0 0 0
224       27   2    0.0846130000000000  -3.2809056402746180   23.1785056401929133 -31.0253148960825627 0 0 0
225       28   1   -0.1873450000000000  -5.6600407590462467   22.0390548262302488  6.2078149722170188  0 0 0
226       28   3    0.0181190000000000  -4.6602513722657219   22.7051468038404138  4.8926609555921923  0 0 0
227       28   3    0.0181190000000000  -4.1997507246913592   21.5947508292228711  3.9673021518102538  0 0 0
228       28   1   -0.1873450000000000  -3.1996413420400427   22.2607923410558790  2.6523662082190684  0 0 0
229       28   2    0.0846130000000000  -3.8109148324457447   23.2192414369989883  5.3529838018470777  0 0 0
230       28   2    0.0846130000000000  -5.2671712519116571   23.4432882835060035  4.3593934569691513  0 0 0
231       28   2    0.0846130000000000  -5.0490996279791629   21.0808357224886223  3.5067959550505217  0 0 0
232       28   2    0.0846130000000000  -3.5930445602831291   20.8564621099722984  4.5005969689577654  0 0 0
233       29   1   -0.1873450000000000  -22.8841636462193314 -6.3707502833161938  -3.8132562063985262  0 0 0
234       29   3    0.0181190000000000  -22.2515635084051411 -4.7076160805730378  -3.7314691823460002  0 0 0
235       29   3    0.0181190000000000  -22.0483562278335157 -4.1523524892339037  -5.1285082397298094  0 0 0
236       29   1   -0.1873450000000000  -21.4153911461190063 -2.4893572294787267  -5.0467245013584616  0 0 0
237       29   2    0.0846130000000000  -21.3103810879421580 -4.7405542970996182  -3.1741060172520843  0 0 0
238       29   2    0.0846130000000000  -22.9715144930235979 -4.1091662694388766  -3.1648059554639172  0 0 0
239       29   2    0.0846130000000000  -22.9895967544604858 -4.1191879673081058  -5.6857645893754647  0 0 0
240       29   2    0.0846130000000000  -21.3286054893121104 -4.7509298542145952  -5.6952797787388336  0 0 0
241       30   1   -0.1873450000000000  -4.5577467714764008  -14.8480050630670792 -5.9273823582618483  0 0 0
242       30   3    0.0181190000000000  -4.9841766666918303  -13.4376818692075624 -4.9263661439433877  0 0 0
243       30   3    0.0181190000000000  -3.8757904414344320  -13.1422366868048037 -3.9336319889680249  0 0 0
244       30   1   -0.1873450000000000  -4.3023893776644249  -11.7321500137119497 -2.9323550390318940  0 0 0
245       30   2    0.0846130000000000  -5.9251860908486051  -13.6678444125028093 -4.4173578534293565  0 0 0
246       30   2    0.0846130000000000  -5.1507714725203400  -12.5929603367762990 -5.6018441322730981  0 0 0
247       30   2    0.0846130000000000  -2.9348532471545314  -12.9118291843272868 -4.4426681693351240  0 0 0
248       30   2    0.0846130000000000  -3.7090004028724803  -13.9870358455914126 -3.2583087854203194  0 0 0
249       31   1   -0.1873450000000000  -32.2972826121174990  29.7714053011814279 -14.5125745609620704 0 0 0
250       31   3    0.0181190000000000  -30.8278473659025387  30.4527073605541609 -13.7713087590558469 0 0 0
251       31   3    0.0181190000000000  -31.1920043048183366  31.5671233452070510 -12.8086064584511394 0 0 0
252       31   1   -0.1873450000000000  -29.7225437466351394  32.2486856659374368 -12.0676306967662015 0 0 0
253       31   2    0.0846130000000000  -30.1894314966098278  30.8178444309902666 -14.5816562586685663 0 0 0
254       31   2    0.0846130000000000  -30.3087822701532623  29.6365892823055006 -13.2593502469374087 0 0 0
255       31   2    0.0846130000000000  -31.8302133610787976  31.2019087554353014 -11.9981277371851398 0 0 0
256       31   2    0.0846130000000000  -31.7112961373261015  32.3831371530303542 -13.3204886939628153 0 0 0
257       32   1   -0.1873450000000000   23.8790253724312755 -14.5473056857787508 -13.6296380567624809 0 0 0
258       32   3    0.0181190000000000   22.8330276170459818 -13.2700175882405507 -12.9608247497655302 0 0 0
259       32   3    0.0181190000000000   21.4668571158623891 -13.3099359861616033 -13.6190903996388748 0 0 0
260       32   1   -0.1873450000000000   20.4209840568869083 -12.0324015474450423 -12.9505532571385711 0 0 0
261       32   2    0.0846130000000000   23.3319758441764264 -12.3116287512553537 -13.1343311654554480 0 0 0
262       32   2    0.0846130000000000   22.7610811759969671 -13.4351887073771419 -11.8814170323465902 0 0 0
263       32   2    0.0846130000000000   20.9678228283127126 -14.2682415894168582 -13.4453566829361169 0 0 0
264       32   2    0.0846130000000000   21.5387983426026608 -13.1450235563139213 -14.6985320679456102 0 0 0
265       33   1   -0.1873450000000000   21.7587305865796914  5.6531211072412031   11.5473014894203647 0 0 0
266       33   3    0.0181190000000000   21.8481134319641583  4.2353181050869750   12.6218864241898121 0 0 0
267       33   3    0.0181190000000000   22.4517532335032719  4.6246658871890132   13.9580586725058868 0 0 0
268       33   1   -0.1873450000000000   22.5414929505738790  3.2067822476273191   15.0325070781277716 0 0 0
269       33   2    0.0846130000000000   22.4534002523212557  3.4767346321018575   12.1161770688127834 0 0 0
270       33   2    0.0846130000000000   20.8315867547269420  3.8478594107469957   12.7407480413984082 0 0 0
271       33   2    0.0846130000000000   21.8463133213034943  5.3830667029380272   14.4638639404566458 0 0 0