
                                 *****************
                                 * O   R   C   A *
                                 *****************

           --- An Ab Initio, DFT and Semiempirical electronic structure package ---

                  #######################################################
                  #                        -***-                        #
                  #          Department of theory and spectroscopy      #
                  #               Directorship: Frank Neese             #
                  #        Max Planck Institute fuer Kohlenforschung    #
                  #                Kaiser Wilhelm Platz 1               #
                  #                 D-45470 Muelheim/Ruhr               #
                  #                      Germany                        #
                  #                                                     #
                  #                  All rights reserved                #
                  #                        -***-                        #
                  #######################################################


                         Program Version 4.1.2  - RELEASE  -


 With contributions from (in alphabetic order):
   Daniel Aravena         : Magnetic Properties
   Michael Atanasov       : Ab Initio Ligand Field Theory
   Alexander A. Auer      : GIAO ZORA
   Ute Becker             : Parallelization
   Giovanni Bistoni       : ED, Open-shell LED
   Martin Brehm           : Molecular dynamics
   Dmytro Bykov           : SCF Hessian
   Vijay G. Chilkuri      : MRCI spin determinant printing
   Dipayan Datta          : RHF DLPNO-CCSD density
   Achintya Kumar Dutta   : EOM-CC, STEOM-CC
   Dmitry Ganyushin       : Spin-Orbit,Spin-Spin,Magnetic field MRCI
   Miquel Garcia          : C-PCM Hessian
   Yang Guo               : DLPNO-NEVPT2, CIM, IAO-localization
   Andreas Hansen         : Spin unrestricted coupled pair/coupled cluster methods
   Benjamin Helmich-Paris : CASSCF linear response (MC-RPA)
   Lee Huntington         : MR-EOM, pCC
   Robert Izsak           : Overlap fitted RIJCOSX, COSX-SCS-MP3, EOM
   Christian Kollmar      : KDIIS, OOCD, Brueckner-CCSD(T), CCSD density
   Simone Kossmann        : Meta GGA functionals, TD-DFT gradient, OOMP2, MP2 Hessian
   Martin Krupicka        : AUTO-CI
   Lucas Lang             : DCDCAS
   Dagmar Lenk            : GEPOL surface, SMD
   Dimitrios Liakos       : Extrapolation schemes; parallel MDCI
   Dimitrios Manganas     : ROCIS; embedding schemes
   Dimitrios Pantazis     : SARC Basis sets
   Taras Petrenko         : DFT Hessian,TD-DFT gradient, ASA, ECA, R-Raman, ABS, FL, XAS/XES, NRVS
   Peter Pinski           : DLPNO-MP2, DLPNO-MP2 Gradient
   Christoph Reimann      : Effective Core Potentials
   Marius Retegan         : Local ZFS, SOC
   Christoph Riplinger    : Optimizer, TS searches, QM/MM, DLPNO-CCSD(T), (RO)-DLPNO pert. Triples
   Tobias Risthaus        : Range-separated hybrids, TD-DFT gradient, RPA, STAB
   Michael Roemelt        : Restricted open shell CIS
   Masaaki Saitow         : Open-shell DLPNO
   Barbara Sandhoefer     : DKH picture change effects
   Avijit Sen             : IP-ROCIS
   Kantharuban Sivalingam : CASSCF convergence, NEVPT2, FIC-MRCI
   Bernardo de Souza      : ESD, SOC TD-DFT
   Georgi Stoychev        : AutoAux, RI-MP2 NMR
   Willem Van den Heuvel  : Paramagnetic NMR
   Boris Wezisla          : Elementary symmetry handling
   Frank Wennmohs         : Technical directorship


 We gratefully acknowledge several colleagues who have allowed us to
 interface, adapt or use parts of their codes:
   Stefan Grimme, W. Hujo, H. Kruse,             : VdW corrections, initial TS optimization,
                  C. Bannwarth                     DFT functionals, gCP, sTDA/sTD-DF
   Ed Valeev                                     : LibInt (2-el integral package), F12 methods
   Garnet Chan, S. Sharma, J. Yang, R. Olivares  : DMRG
   Ulf Ekstrom                                   : XCFun DFT Library
   Mihaly Kallay                                 : mrcc  (arbitrary order and MRCC methods)
   Andreas Klamt, Michael Diedenhofen            : otool_cosmo (COSMO solvation model)
   Jiri Pittner, Ondrej Demel                    : Mk-CCSD
   Frank Weinhold                                : gennbo (NPA and NBO analysis)
   Christopher J. Cramer and Donald G. Truhlar   : smd solvation model
   Lars Goerigk                                  : TD-DFT with DH, B97 family of functionals
   V. Asgeirsson, H. Jonsson                     : NEB implementation
   FAccTs GmbH                                   : IRC, NEB, NEB-TS, Multilevel


 Your calculation uses the libint2 library for the computation of 2-el integrals
 For citations please refer to: http://libint.valeyev.net

 This ORCA versions uses:
   CBLAS   interface :  Fast vector & matrix operations
   LAPACKE interface :  Fast linear algebra routines
   SCALAPACK package :  Parallel linear algebra routines


Your calculation utilizes the atom-pairwise dispersion correction
with the zero-damping scheme (D30)
Cite in your paper:
S.Grimme, J.Antony, S.Ehrlich and H.Krieg, J.Chem.Phys., 132, (2010), 154104 
   

XCFun DFT library Copyright 2009-2010 Ulf Ekstrom and contributors.
See http://admol.org/xcfun for more information. This is free soft-
ware; see the source code for copying conditions. There is ABSOLUTELY
NO WARRANTY; not even for MERCHANTABILITY or FITNESS FOR A PARTICULAR
PURPOSE. For details see the documentation. Scientific users of this 
library should cite U. Ekstrom, L. Visscher, R. Bast, A. J. Thorvald-
sen and K. Ruud; J.Chem.Theor.Comp. 2010, DOI: 10.1021/ct100117s
XCFun Version 0.99 
----- Orbital basis set information -----
Your calculation utilizes the basis: def2-TZVP
   F. Weigend and R. Ahlrichs, Phys. Chem. Chem. Phys. 7, 3297 (2005).

================================================================================
                                        WARNINGS
                       Please study these warnings very carefully!
================================================================================


INFO   : the flag for use of LIBINT has been found!

================================================================================
                                       INPUT FILE
================================================================================
NAME = 47.in
|  1> #Run DFT-D3 single point of the dimer
|  2> ! wB97X-D3 def2-TZVP TIGHTSCF  CHELPG PAL8
|  3> 
|  4> %base "47_charges"
|  5> 
|  6> %scf
|  7> MaxIter 1000
|  8> end
|  9> %output
| 10>   Print[ P_Mayer ] 1
| 11>   Print[ P_NatPop ] 1
| 12>   Print[ P_Hirshfeld ] 1
| 13>   Print[ P_Mulliken ] 1
| 14>   Print [ P_Loewdin ] 1
| 15> end
| 16> 
| 17> * xyz 0 1
| 18>   C                      3.137648             7.406436             2.060800            
| 19>   O                      2.762883             8.800412             2.119483            
| 20>   H                      3.577881             9.319891             1.881491            
| 21>   H                      4.171154             7.164849             2.355028            
| 22>   H                      2.566067             6.732388             2.731856            
| 23>   H                      3.003068             7.020874             1.049549            
| 24> *
| 25> 
| 26>                          ****END OF INPUT****
================================================================================

                       ****************************
                       * Single Point Calculation *
                       ****************************

---------------------------------
CARTESIAN COORDINATES (ANGSTROEM)
---------------------------------
  C      3.137648    7.406436    2.060800
  O      2.762883    8.800412    2.119483
  H      3.577881    9.319891    1.881491
  H      4.171154    7.164849    2.355028
  H      2.566067    6.732388    2.731856
  H      3.003068    7.020874    1.049549

----------------------------
CARTESIAN COORDINATES (A.U.)
----------------------------
  NO LB      ZA    FRAG     MASS         X           Y           Z
   0 C     6.0000    0    12.011    5.929295   13.996136    3.894348
   1 O     8.0000    0    15.999    5.221092   16.630369    4.005242
   2 H     1.0000    0     1.008    6.761215   17.612042    3.555503
   3 H     1.0000    0     1.008    7.882339   13.539602    4.450358
   4 H     1.0000    0     1.008    4.849164   12.722370    5.162460
   5 H     1.0000    0     1.008    5.674976   13.267529    1.983360

--------------------------------
INTERNAL COORDINATES (ANGSTROEM)
--------------------------------
 C      0   0   0     0.000000000000     0.00000000     0.00000000
 O      1   0   0     1.444666601085     0.00000000     0.00000000
 H      2   1   0     0.995349367563   106.34809256     0.00000000
 H      1   2   3     1.101394137713   116.37355428    33.72485932
 H      1   2   3     1.109667383048   115.33643327   151.60487008
 H      1   2   3     1.090595441603   110.29062413   272.15003035

---------------------------
INTERNAL COORDINATES (A.U.)
---------------------------
 C      0   0   0     0.000000000000     0.00000000     0.00000000
 O      1   0   0     2.730024230873     0.00000000     0.00000000
 H      2   1   0     1.880937712267   106.34809256     0.00000000
 H      1   2   3     2.081333285784   116.37355428    33.72485932
 H      1   2   3     2.096967453706   115.33643327   151.60487008
 H      1   2   3     2.060926707532   110.29062413   272.15003035

---------------------
BASIS SET INFORMATION
---------------------
There are 3 groups of distinct atoms

 Group   1 Type C   : 11s6p2d1f contracted to 5s3p2d1f pattern {62111/411/11/1}
 Group   2 Type O   : 11s6p2d1f contracted to 5s3p2d1f pattern {62111/411/11/1}
 Group   3 Type H   : 5s1p contracted to 3s1p pattern {311/1}

Atom   0C    basis set group =>   1
Atom   1O    basis set group =>   2
Atom   2H    basis set group =>   3
Atom   3H    basis set group =>   3
Atom   4H    basis set group =>   3
Atom   5H    basis set group =>   3


           ************************************************************
           *        Program running with 8 parallel MPI-processes     *
           *              working on a common directory               *
           ************************************************************
------------------------------------------------------------------------------
                           ORCA GTO INTEGRAL CALCULATION
------------------------------------------------------------------------------

                         BASIS SET STATISTICS AND STARTUP INFO

 # of primitive gaussian shells          ...   64
 # of primitive gaussian functions       ...  124
 # of contracted shells                  ...   38
 # of contracted basis functions         ...   86
 Highest angular momentum                ...    3
 Maximum contraction depth               ...    6
 Integral package used                   ... LIBINT
 Integral threshhold            Thresh   ...  2.500e-11
 Primitive cut-off              TCut     ...  2.500e-12


------------------------------ INTEGRAL EVALUATION ----------------------------


 * One electron integrals 
 Pre-screening matrix                    ... done
 Shell pair data                         ... done (   0.000 sec)



           ************************************************************
           *        Program running with 8 parallel MPI-processes     *
           *              working on a common directory               *
           ************************************************************
-------------------------------------------------------------------------------
                                 ORCA SCF
-------------------------------------------------------------------------------

------------
SCF SETTINGS
------------
Hamiltonian:
 Density Functional     Method          .... DFT(GTOs)
 Exchange Functional    Exchange        .... WB97X-D3
 Correlation Functional Correlation     .... WB97X-D3
 Gradients option       PostSCFGGA      .... off
 Hybrid DFT is turned on
   Fraction HF Exchange ScalHFX         ....  0.195728
   Scaling of DF-GGA-X  ScalDFX         ....  0.000000
   Scaling of DF-GGA-C  ScalDFC         ....  1.000000
   Scaling of DF-LDA-C  ScalLDAC        ....  1.000000
   Perturbative correction              ....  0.000000
   Density functional embedding theory  .... OFF
 Long-range corrected/Screened/Range-Separated Hybrid DFT is turned on
   Amount of maximum screened exact exchange              ....  0.804272
   Range separation parameter mu (erf(mu*r12)/r12)        ....  0.250000


General Settings:
 Integral files         IntName         .... 47_charges
 Hartree-Fock type      HFTyp           .... RHF
 Total Charge           Charge          ....    0
 Multiplicity           Mult            ....    1
 Number of Electrons    NEL             ....   18
 Basis Dimension        Dim             ....   86
 Nuclear Repulsion      ENuc            ....     39.5673875487 Eh

Convergence Acceleration:
 DIIS                   CNVDIIS         .... on
   Start iteration      DIISMaxIt       ....    12
   Startup error        DIISStart       ....  0.200000
   # of expansion vecs  DIISMaxEq       ....     5
   Bias factor          DIISBfac        ....   1.050
   Max. coefficient     DIISMaxC        ....  10.000
 Newton-Raphson         CNVNR           .... off
 SOSCF                  CNVSOSCF        .... on
   Start iteration      SOSCFMaxIt      ....   150
   Startup grad/error   SOSCFStart      ....  0.003300
 Level Shifting         CNVShift        .... on
   Level shift para.    LevelShift      ....    0.2500
   Turn off err/grad.   ShiftErr        ....    0.0010
 Zerner damping         CNVZerner       .... off
 Static damping         CNVDamp         .... on
   Fraction old density DampFac         ....    0.7000
   Max. Damping (<1)    DampMax         ....    0.9800
   Min. Damping (>=0)   DampMin         ....    0.0000
   Turn off err/grad.   DampErr         ....    0.1000
 Fernandez-Rico         CNVRico         .... off

SCF Procedure:
 Maximum # iterations   MaxIter         ....  1000
 SCF integral mode      SCFMode         .... Direct
   Integral package                     .... LIBINT
 Reset frequency        DirectResetFreq ....    20
 Integral Threshold     Thresh          ....  2.500e-11 Eh
 Primitive CutOff       TCut            ....  2.500e-12 Eh

Convergence Tolerance:
 Convergence Check Mode ConvCheckMode   .... Total+1el-Energy
 Convergence forced     ConvForced      .... 0
 Energy Change          TolE            ....  1.000e-08 Eh
 1-El. energy change                    ....  1.000e-05 Eh
 Orbital Gradient       TolG            ....  1.000e-05
 Orbital Rotation angle TolX            ....  1.000e-05
 DIIS Error             TolErr          ....  5.000e-07


Diagonalization of the overlap matrix:
Smallest eigenvalue                        ... 1.692e-03
Time for diagonalization                   ...    0.023 sec
Threshold for overlap eigenvalues          ... 1.000e-08
Number of eigenvalues below threshold      ... 0
Time for construction of square roots      ...    0.928 sec
Total time needed                          ...    0.951 sec

-------------------
DFT GRID GENERATION
-------------------

General Integration Accuracy     IntAcc      ...  4.340
Radial Grid Type                 RadialGrid  ... Gauss-Chebyshev
Angular Grid (max. acc.)         AngularGrid ... Lebedev-110
Angular grid pruning method      GridPruning ... 3 (G Style)
Weight generation scheme         WeightScheme... Becke
Basis function cutoff            BFCut       ...    1.0000e-11
Integration weight cutoff        WCut        ...    1.0000e-14
Grids for H and He will be reduced by one unit

# of grid points (after initial pruning)     ...   6548 (   0.1 sec)
# of grid points (after weights+screening)   ...   6379 (   0.3 sec)
nearest neighbour list constructed           ...    0.0 sec
Grid point re-assignment to atoms done       ...    0.0 sec
Grid point division into batches done        ...    0.0 sec
Reduced shell lists constructed in    0.0 sec

Total number of grid points                  ...     6379
Total number of batches                      ...      102
Average number of points per batch           ...       62
Average number of grid points per atom       ...     1063
Average number of shells per batch           ...    31.43 (82.71%)
Average number of basis functions per batch  ...    72.29 (84.05%)
Average number of large shells per batch     ...    29.86 (95.00%)
Average number of large basis fcns per batch ...    69.14 (95.65%)
Maximum spatial batch extension              ...  15.69, 13.04, 25.60 au
Average spatial batch extension              ...   0.38,  0.33,  0.55 au

Time for grid setup =    0.806 sec

------------------------------
INITIAL GUESS: MODEL POTENTIAL
------------------------------
Loading Hartree-Fock densities                     ... done
Calculating cut-offs                               ... done
Setting up the integral package                    ... done
Initializing the effective Hamiltonian             ... done
Starting the Coulomb interaction                   ... done (   0.0 sec)
Reading the grid                                   ... done
Mapping shells                                     ... done
Starting the XC term evaluation                    ... done (   0.1 sec)
  promolecular density results
     # of electrons  =     17.993024220
     EX              =    -14.407765722
     EC              =     -0.572408808
     EX+EC           =    -14.980174530
Transforming the Hamiltonian                       ... done (   0.0 sec)
Diagonalizing the Hamiltonian                      ... done (   0.0 sec)
Back transforming the eigenvectors                 ... done (   0.0 sec)
Now organizing SCF variables                       ... done
                      ------------------
                      INITIAL GUESS DONE (   1.2 sec)
                      ------------------
--------------
SCF ITERATIONS
--------------
ITER       Energy         Delta-E        Max-DP      RMS-DP      [F,P]     Damp
               ***  Starting incremental Fock matrix formation  ***
  0   -115.6495177252   0.000000000000 0.03562140  0.00144273  0.2435324 0.7000
  1   -115.6844064235  -0.034888698250 0.02115929  0.00102036  0.1210802 0.7000
                               ***Turning on DIIS***
  2   -115.7004262461  -0.016019822643 0.03226999  0.00183950  0.0465777 0.0000
  3   -115.7265604638  -0.026134217743 0.01790107  0.00068076  0.0600517 0.0000
  4   -115.7308182173  -0.004257753432 0.00390876  0.00013238  0.0067000 0.0000
                      *** Initiating the SOSCF procedure ***
                           *** Shutting down DIIS ***
                      *** Re-Reading the Fockian *** 
                      *** Removing any level shift *** 
ITER      Energy       Delta-E        Grad      Rot      Max-DP    RMS-DP
  5   -115.73090934  -0.0000911269  0.000472  0.000472  0.000727  0.000044
               *** Restarting incremental Fock matrix formation ***
  6   -115.73091761  -0.0000082629  0.000161  0.000218  0.000468  0.000026
  7   -115.73091837  -0.0000007606  0.000052  0.000109  0.000208  0.000012
  8   -115.73091842  -0.0000000548  0.000031  0.000024  0.000042  0.000002
  9   -115.73091844  -0.0000000148  0.000011  0.000012  0.000020  0.000001
                  ***Gradient check signals convergence***
              ***Rediagonalizing the Fockian in SOSCF/NRSCF***

               *****************************************************
               *                     SUCCESS                       *
               *           SCF CONVERGED AFTER  10 CYCLES          *
               *****************************************************

Setting up the final grid:

General Integration Accuracy     IntAcc      ...  4.670
Radial Grid Type                 RadialGrid  ... Gauss-Chebyshev
Angular Grid (max. acc.)         AngularGrid ... Lebedev-302
Angular grid pruning method      GridPruning ... 3 (G Style)
Weight generation scheme         WeightScheme... Becke
Basis function cutoff            BFCut       ...    1.0000e-11
Integration weight cutoff        WCut        ...    1.0000e-14
Grids for H and He will be reduced by one unit

# of grid points (after initial pruning)     ...  26000 (   0.0 sec)
# of grid points (after weights+screening)   ...  25162 (   0.0 sec)
nearest neighbour list constructed           ...    0.0 sec
Grid point re-assignment to atoms done       ...    0.0 sec
Grid point division into batches done        ...    0.1 sec
Reduced shell lists constructed in    0.1 sec

Total number of grid points                  ...    25162
Total number of batches                      ...      396
Average number of points per batch           ...       63
Average number of grid points per atom       ...     4194
Average number of shells per batch           ...    31.33 (82.46%)
Average number of basis functions per batch  ...    71.76 (83.45%)
Average number of large shells per batch     ...    29.69 (94.74%)
Average number of large basis fcns per batch ...    68.59 (95.57%)
Maximum spatial batch extension              ...  16.63, 13.48, 16.88 au
Average spatial batch extension              ...   0.34,  0.28,  0.34 au

Final grid set up in    0.2 sec
Final integration                            ... done (   0.1 sec)
Change in XC energy                          ...    -0.000030016
Integrated number of electrons               ...    18.000014883
Previous integrated no of electrons          ...    17.998322073

----------------
TOTAL SCF ENERGY
----------------

Total Energy       :         -115.73094846 Eh           -3149.19921 eV

Components:
Nuclear Repulsion  :           39.56738755 Eh            1076.68335 eV
Electronic Energy  :         -155.29833600 Eh           -4225.88256 eV
One Electron Energy:         -235.60421648 Eh           -6411.11667 eV
Two Electron Energy:           80.30588047 Eh            2185.23410 eV

Virial components:
Potential Energy   :         -230.82204092 Eh           -6280.98705 eV
Kinetic Energy     :          115.09109247 Eh            3131.78784 eV
Virial Ratio       :            2.00555956


DFT components:
N(Alpha)           :        9.000007441253 electrons
N(Beta)            :        9.000007441253 electrons
N(Total)           :       18.000014882507 electrons
E(XC)              :      -10.621654005009 Eh       
DFET-embed. en.    :        0.000000000000 Eh       

---------------
SCF CONVERGENCE
---------------

  Last Energy change         ...   -1.9513e-09  Tolerance :   1.0000e-08
  Last MAX-Density change    ...    4.3728e-06  Tolerance :   1.0000e-07
  Last RMS-Density change    ...    2.3732e-07  Tolerance :   5.0000e-09
  Last Orbital Gradient      ...    2.3064e-06  Tolerance :   1.0000e-05
  Last Orbital Rotation      ...    2.9951e-06  Tolerance :   1.0000e-05

             **** THE GBW FILE WAS UPDATED (47_charges.gbw) ****
             **** DENSITY FILE WAS UPDATED (47_charges.scfp.tmp) ****
             **** ENERGY FILE WAS UPDATED (47_charges.en.tmp) ****
----------------
ORBITAL ENERGIES
----------------

  NO   OCC          E(Eh)            E(eV) 
   0   2.0000     -19.237158      -523.4697 
   1   2.0000     -10.317961      -280.7660 
   2   2.0000      -1.122658       -30.5491 
   3   2.0000      -0.794435       -21.6177 
   4   2.0000      -0.602601       -16.3976 
   5   2.0000      -0.537214       -14.6183 
   6   2.0000      -0.519972       -14.1492 
   7   2.0000      -0.433987       -11.8094 
   8   2.0000      -0.376048       -10.2328 
   9   0.0000       0.111565         3.0358 
  10   0.0000       0.146660         3.9908 
  11   0.0000       0.196668         5.3516 
  12   0.0000       0.207798         5.6545 
  13   0.0000       0.226262         6.1569 
  14   0.0000       0.310665         8.4536 
  15   0.0000       0.314066         8.5462 
  16   0.0000       0.385003        10.4765 
  17   0.0000       0.449718        12.2375 
  18   0.0000       0.470799        12.8111 
  19   0.0000       0.536429        14.5970 
  20   0.0000       0.546757        14.8780 
  21   0.0000       0.555729        15.1222 
  22   0.0000       0.594829        16.1861 
  23   0.0000       0.609162        16.5761 
  24   0.0000       0.677837        18.4449 
  25   0.0000       0.758000        20.6262 
  26   0.0000       0.788727        21.4624 
  27   0.0000       0.866013        23.5654 
  28   0.0000       0.983903        26.7734 
  29   0.0000       1.041634        28.3443 
  30   0.0000       1.094855        29.7925 
  31   0.0000       1.364649        37.1340 
  32   0.0000       1.485910        40.4337 
  33   0.0000       1.555122        42.3170 
  34   0.0000       1.581249        43.0280 
  35   0.0000       1.607664        43.7468 
  36   0.0000       1.646238        44.7964 
  37   0.0000       1.677138        45.6373 
  38   0.0000       1.705440        46.4074 
  39   0.0000       1.808849        49.2213 
  40   0.0000       1.951158        53.0937 
  41   0.0000       2.004213        54.5374 
  42   0.0000       2.047164        55.7062 
  43   0.0000       2.088578        56.8331 
  44   0.0000       2.094336        56.9898 
  45   0.0000       2.236691        60.8635 
  46   0.0000       2.290204        62.3196 
  47   0.0000       2.364014        64.3281 
  48   0.0000       2.416568        65.7581 
  49   0.0000       2.437274        66.3216 
  50   0.0000       2.503259        68.1171 
  51   0.0000       2.556221        69.5583 
  52   0.0000       2.642309        71.9009 
  53   0.0000       2.681781        72.9750 
  54   0.0000       2.738912        74.5296 
  55   0.0000       2.877618        78.3040 
  56   0.0000       2.916074        79.3504 
  57   0.0000       2.941562        80.0440 
  58   0.0000       3.077984        83.7562 
  59   0.0000       3.133682        85.2718 
  60   0.0000       3.208394        87.3048 
  61   0.0000       3.338200        90.8370 
  62   0.0000       3.439212        93.5857 
  63   0.0000       3.496476        95.1439 
  64   0.0000       3.577130        97.3386 
  65   0.0000       3.639541        99.0370 
  66   0.0000       3.655928        99.4829 
  67   0.0000       3.959229       107.7361 
  68   0.0000       4.229967       115.1033 
  69   0.0000       4.288614       116.6991 
  70   0.0000       4.362517       118.7101 
  71   0.0000       4.580514       124.6421 
  72   0.0000       5.341826       145.3585 
  73   0.0000       5.409047       147.1877 
  74   0.0000       5.513577       150.0321 
  75   0.0000       5.749066       156.4401 
  76   0.0000       5.774725       157.1383 
  77   0.0000       5.933477       161.4581 
  78   0.0000       6.228092       169.4750 
  79   0.0000       6.512131       177.2041 
  80   0.0000       6.740088       183.4071 
  81   0.0000       6.782796       184.5693 
  82   0.0000       7.017892       190.9666 
  83   0.0000       7.153044       194.6442 
  84   0.0000      22.301732       606.8610 
  85   0.0000      43.628817      1187.2005 

                    ********************************
                    * MULLIKEN POPULATION ANALYSIS *
                    ********************************

-----------------------
MULLIKEN ATOMIC CHARGES
-----------------------
   0 C :   -0.175300
   1 O :   -0.474706
   2 H :    0.319971
   3 H :    0.105114
   4 H :    0.116000
   5 H :    0.108921
Sum of atomic charges:    0.0000000

--------------------------------
MULLIKEN REDUCED ORBITAL CHARGES
--------------------------------
  0 C s       :     3.221191  s :     3.221191
      pz      :     1.067191  p :     2.851952
      px      :     1.053945
      py      :     0.730816
      dz2     :     0.008576  d :     0.095256
      dxz     :     0.002089
      dyz     :     0.041539
      dx2y2   :     0.014079
      dxy     :     0.028973
      f0      :     0.001271  f :     0.006901
      f+1     :     0.000215
      f-1     :     0.000834
      f+2     :     0.001046
      f-2     :     0.000497
      f+3     :     0.001757
      f-3     :     0.001282
  1 O s       :     3.810835  s :     3.810835
      pz      :     1.877113  p :     4.633264
      px      :     1.507781
      py      :     1.248371
      dz2     :     0.003844  d :     0.029107
      dxz     :     0.003179
      dyz     :     0.003743
      dx2y2   :     0.007444
      dxy     :     0.010897
      f0      :     0.000237  f :     0.001499
      f+1     :     0.000179
      f-1     :     0.000337
      f+2     :     0.000110
      f-2     :     0.000123
      f+3     :     0.000110
      f-3     :     0.000403
  2 H s       :     0.636320  s :     0.636320
      pz      :     0.016091  p :     0.043709
      px      :     0.015322
      py      :     0.012295
  3 H s       :     0.875322  s :     0.875322
      pz      :     0.005007  p :     0.019564
      px      :     0.011473
      py      :     0.003084
  4 H s       :     0.863514  s :     0.863514
      pz      :     0.007458  p :     0.020486
      px      :     0.006544
      py      :     0.006484
  5 H s       :     0.870875  s :     0.870875
      pz      :     0.011444  p :     0.020205
      px      :     0.004551
      py      :     0.004210


                     *******************************
                     * LOEWDIN POPULATION ANALYSIS *
                     *******************************

----------------------
LOEWDIN ATOMIC CHARGES
----------------------
   0 C :   -0.378220
   1 O :   -0.112152
   2 H :    0.190039
   3 H :    0.096528
   4 H :    0.108704
   5 H :    0.095101

-------------------------------
LOEWDIN REDUCED ORBITAL CHARGES
-------------------------------
  0 C s       :     2.868437  s :     2.868437
      pz      :     1.111790  p :     3.065929
      px      :     1.103504
      py      :     0.850634
      dz2     :     0.053347  d :     0.393776
      dxz     :     0.017345
      dyz     :     0.134137
      dx2y2   :     0.084149
      dxy     :     0.104798
      f0      :     0.007077  f :     0.050078
      f+1     :     0.002014
      f-1     :     0.006701
      f+2     :     0.007548
      f-2     :     0.005650
      f+3     :     0.012736
      f-3     :     0.008352
  1 O s       :     3.408907  s :     3.408907
      pz      :     1.791823  p :     4.634707
      px      :     1.524535
      py      :     1.318349
      dz2     :     0.007164  d :     0.064511
      dxz     :     0.003106
      dyz     :     0.012261
      dx2y2   :     0.016044
      dxy     :     0.025936
      f0      :     0.000434  f :     0.004026
      f+1     :     0.000205
      f-1     :     0.000579
      f+2     :     0.000462
      f-2     :     0.000326
      f+3     :     0.000626
      f-3     :     0.001395
  2 H s       :     0.666891  s :     0.666891
      pz      :     0.043598  p :     0.143070
      px      :     0.066058
      py      :     0.033414
  3 H s       :     0.843086  s :     0.843086
      pz      :     0.015538  p :     0.060386
      px      :     0.034369
      py      :     0.010480
  4 H s       :     0.832787  s :     0.832787
      pz      :     0.021734  p :     0.058508
      px      :     0.019090
      py      :     0.017685
  5 H s       :     0.843446  s :     0.843446
      pz      :     0.034717  p :     0.061453
      px      :     0.014149
      py      :     0.012587


                      *****************************
                      * MAYER POPULATION ANALYSIS *
                      *****************************

  NA   - Mulliken gross atomic population
  ZA   - Total nuclear charge
  QA   - Mulliken gross atomic charge
  VA   - Mayer's total valence
  BVA  - Mayer's bonded valence
  FA   - Mayer's free valence

  ATOM       NA         ZA         QA         VA         BVA        FA
  0 C      6.1753     6.0000    -0.1753     3.9409     3.9409     0.0000
  1 O      8.4747     8.0000    -0.4747     1.8923     1.8923     0.0000
  2 H      0.6800     1.0000     0.3200     0.9065     0.9065     0.0000
  3 H      0.8949     1.0000     0.1051     0.9571     0.9571     0.0000
  4 H      0.8840     1.0000     0.1160     0.9573     0.9573     0.0000
  5 H      0.8911     1.0000     0.1089     0.9564     0.9564    -0.0000

  Mayer bond orders larger than 0.1
B(  0-C ,  1-O ) :   1.0050 B(  0-C ,  3-H ) :   0.9753 B(  0-C ,  4-H ) :   0.9722 
B(  0-C ,  5-H ) :   0.9775 B(  1-O ,  2-H ) :   0.8938 


------------------
HIRSHFELD ANALYSIS
------------------

Total integrated alpha density =      8.999161037
Total integrated beta density  =      8.999161037

  ATOM     CHARGE      SPIN    
   0 C    0.005915    0.000000
   1 O   -0.253979    0.000000
   2 H    0.163572    0.000000
   3 H    0.025945    0.000000
   4 H    0.037429    0.000000
   5 H    0.022797    0.000000

  TOTAL   0.001678    0.000000

-------
TIMINGS
-------

Total SCF time: 0 days 0 hours 0 min 24 sec 

Total time                  ....      24.752 sec
Sum of individual times     ....      20.350 sec  ( 82.2%)

Fock matrix formation       ....      15.418 sec  ( 62.3%)
  XC integration            ....       3.401 sec  ( 22.1% of F)
    Basis function eval.    ....       0.042 sec  (  1.2% of XC)
    Density eval.           ....       0.051 sec  (  1.5% of XC)
    XC-Functional eval.     ....       0.074 sec  (  2.2% of XC)
    XC-Potential eval.      ....       0.053 sec  (  1.6% of XC)
Diagonalization             ....       1.889 sec  (  7.6%)
Density matrix formation    ....       0.887 sec  (  3.6%)
Population analysis         ....       0.125 sec  (  0.5%)
Initial guess               ....       0.366 sec  (  1.5%)
Orbital Transformation      ....       0.000 sec  (  0.0%)
Orbital Orthonormalization  ....       0.000 sec  (  0.0%)
DIIS solution               ....       0.205 sec  (  0.8%)
SOSCF solution              ....       0.423 sec  (  1.7%)
Grid generation             ....       1.038 sec  (  4.2%)


-------------------------------------------------------------------------------
                          DFT DISPERSION CORRECTION                            
                                                                               
                              DFTD3 V3.1  Rev 1                                
                              USING zero damping                               
-------------------------------------------------------------------------------
The omegaB97X-D3 functional is recognized. Fit by Chai et al.
Active option DFTDOPT                   ...         3   

molecular C6(AA) [au] = 208.825592 


            DFT-D V3
 parameters
 s6 scaling factor         :     1.0000 
 rs6 scaling factor        :     1.2810 
 s8 scaling factor         :     1.0000 
 rs8 scaling factor        :     1.0940 
 Damping factor alpha6     :    14.0000 
 Damping factor alpha8     :    16.0000 
 ad hoc parameters k1-k3   :    16.0000     1.3333    -4.0000 

 Edisp/kcal,au: -0.173358664617  -0.000276264588 
 E6   /kcal   :  -0.035998963 
 E8   /kcal   :  -0.137359702 
 % E8         :  79.234402163 

-------------------------   ----------------
Dispersion correction           -0.000276265
-------------------------   ----------------


-------------------------   --------------------
FINAL SINGLE POINT ENERGY      -115.731224719938
-------------------------   --------------------


                            ***************************************
                            *     ORCA property calculations      *
                            ***************************************

                                    ---------------------
                                    Active property flags
                                    ---------------------
   (+) Dipole Moment


------------------------------------------------------------------------------
                       ORCA ELECTRIC PROPERTIES CALCULATION
------------------------------------------------------------------------------

Dipole Moment Calculation                       ... on
Quadrupole Moment Calculation                   ... off
Polarizability Calculation                      ... off
GBWName                                         ... 47_charges.gbw
Electron density file                           ... 47_charges.scfp.tmp
The origin for moment calculation is the CENTER OF MASS  = ( 5.621311, 15.347841  3.936327)

-------------
DIPOLE MOMENT
-------------
                                X             Y             Z
Electronic contribution:     -0.65779       1.85163       0.13647
Nuclear contribution   :      1.32860      -2.09984      -0.29417
                        -----------------------------------------
Total Dipole Moment    :      0.67081      -0.24821      -0.15771
                        -----------------------------------------
Magnitude (a.u.)       :      0.73244
Magnitude (Debye)      :      1.86171



--------------------
Rotational spectrum 
--------------------
 
Rotational constants in cm-1:     4.336864     0.787426     0.761864 
Rotational constants in MHz : 130015.914924 23606.444016 22840.122311 

 Dipole components along the rotational axes: 
x,y,z [a.u.] :     0.385942     0.622245    -0.017999 
x,y,z [Debye]:     0.980987     1.581621    -0.045749 

 
------------------------------------------------------------------------------
                      ORCA CHELPG CHARGES GENERATION
------------------------------------------------------------------------------

GBW file                           ... 47_charges.gbw

Reading the GBW file               ... done

Grid spacing                       ...     0.300000
Point Cut-Off                      ...     2.800000
Van-der-Waals Radii                ...        COSMO
Total charge                       ...            0


Number of points X direction       ...           24
Number of points Y direction       ...           27
Number of points Z direction       ...           24
Maximum number of possible points  ...        15552
Final number of points             ...         6034


CHELPG Charges            
--------------------------------
  0   C   :       0.121164
  1   O   :      -0.593822
  2   H   :       0.387933
  3   H   :       0.002659
  4   H   :       0.063129
  5   H   :       0.018937
--------------------------------
Total charge:     0.000000
--------------------------------

CHELPG charges calculated...

Timings for individual parts in CHELPG calculation:
Grid generation                 ...        0.001 sec (=   0.000 min)
Potential calculation           ...        0.629 sec (=   0.010 min)
Fit to the potential            ...        0.001 sec (=   0.000 min)
------------------------------------------------------------------------------


Timings for individual modules:

Sum of individual times         ...       36.289 sec (=   0.605 min)
GTO integral calculation        ...        5.490 sec (=   0.091 min)  15.1 %
SCF iterations                  ...       30.135 sec (=   0.502 min)  83.0 %
CHELPG charge generation        ...        0.665 sec (=   0.011 min)   1.8 %
                             ****ORCA TERMINATED NORMALLY****
TOTAL RUN TIME: 0 days 0 hours 0 minutes 40 seconds 715 msec
