
                                 *****************
                                 * O   R   C   A *
                                 *****************

           --- An Ab Initio, DFT and Semiempirical electronic structure package ---

                  #######################################################
                  #                        -***-                        #
                  #          Department of theory and spectroscopy      #
                  #               Directorship: Frank Neese             #
                  #        Max Planck Institute fuer Kohlenforschung    #
                  #                Kaiser Wilhelm Platz 1               #
                  #                 D-45470 Muelheim/Ruhr               #
                  #                      Germany                        #
                  #                                                     #
                  #                  All rights reserved                #
                  #                        -***-                        #
                  #######################################################


                         Program Version 4.1.2  - RELEASE  -


 With contributions from (in alphabetic order):
   Daniel Aravena         : Magnetic Properties
   Michael Atanasov       : Ab Initio Ligand Field Theory
   Alexander A. Auer      : GIAO ZORA
   Ute Becker             : Parallelization
   Giovanni Bistoni       : ED, Open-shell LED
   Martin Brehm           : Molecular dynamics
   Dmytro Bykov           : SCF Hessian
   Vijay G. Chilkuri      : MRCI spin determinant printing
   Dipayan Datta          : RHF DLPNO-CCSD density
   Achintya Kumar Dutta   : EOM-CC, STEOM-CC
   Dmitry Ganyushin       : Spin-Orbit,Spin-Spin,Magnetic field MRCI
   Miquel Garcia          : C-PCM Hessian
   Yang Guo               : DLPNO-NEVPT2, CIM, IAO-localization
   Andreas Hansen         : Spin unrestricted coupled pair/coupled cluster methods
   Benjamin Helmich-Paris : CASSCF linear response (MC-RPA)
   Lee Huntington         : MR-EOM, pCC
   Robert Izsak           : Overlap fitted RIJCOSX, COSX-SCS-MP3, EOM
   Christian Kollmar      : KDIIS, OOCD, Brueckner-CCSD(T), CCSD density
   Simone Kossmann        : Meta GGA functionals, TD-DFT gradient, OOMP2, MP2 Hessian
   Martin Krupicka        : AUTO-CI
   Lucas Lang             : DCDCAS
   Dagmar Lenk            : GEPOL surface, SMD
   Dimitrios Liakos       : Extrapolation schemes; parallel MDCI
   Dimitrios Manganas     : ROCIS; embedding schemes
   Dimitrios Pantazis     : SARC Basis sets
   Taras Petrenko         : DFT Hessian,TD-DFT gradient, ASA, ECA, R-Raman, ABS, FL, XAS/XES, NRVS
   Peter Pinski           : DLPNO-MP2, DLPNO-MP2 Gradient
   Christoph Reimann      : Effective Core Potentials
   Marius Retegan         : Local ZFS, SOC
   Christoph Riplinger    : Optimizer, TS searches, QM/MM, DLPNO-CCSD(T), (RO)-DLPNO pert. Triples
   Tobias Risthaus        : Range-separated hybrids, TD-DFT gradient, RPA, STAB
   Michael Roemelt        : Restricted open shell CIS
   Masaaki Saitow         : Open-shell DLPNO
   Barbara Sandhoefer     : DKH picture change effects
   Avijit Sen             : IP-ROCIS
   Kantharuban Sivalingam : CASSCF convergence, NEVPT2, FIC-MRCI
   Bernardo de Souza      : ESD, SOC TD-DFT
   Georgi Stoychev        : AutoAux, RI-MP2 NMR
   Willem Van den Heuvel  : Paramagnetic NMR
   Boris Wezisla          : Elementary symmetry handling
   Frank Wennmohs         : Technical directorship


 We gratefully acknowledge several colleagues who have allowed us to
 interface, adapt or use parts of their codes:
   Stefan Grimme, W. Hujo, H. Kruse,             : VdW corrections, initial TS optimization,
                  C. Bannwarth                     DFT functionals, gCP, sTDA/sTD-DF
   Ed Valeev                                     : LibInt (2-el integral package), F12 methods
   Garnet Chan, S. Sharma, J. Yang, R. Olivares  : DMRG
   Ulf Ekstrom                                   : XCFun DFT Library
   Mihaly Kallay                                 : mrcc  (arbitrary order and MRCC methods)
   Andreas Klamt, Michael Diedenhofen            : otool_cosmo (COSMO solvation model)
   Jiri Pittner, Ondrej Demel                    : Mk-CCSD
   Frank Weinhold                                : gennbo (NPA and NBO analysis)
   Christopher J. Cramer and Donald G. Truhlar   : smd solvation model
   Lars Goerigk                                  : TD-DFT with DH, B97 family of functionals
   V. Asgeirsson, H. Jonsson                     : NEB implementation
   FAccTs GmbH                                   : IRC, NEB, NEB-TS, Multilevel


 Your calculation uses the libint2 library for the computation of 2-el integrals
 For citations please refer to: http://libint.valeyev.net

 This ORCA versions uses:
   CBLAS   interface :  Fast vector & matrix operations
   LAPACKE interface :  Fast linear algebra routines
   SCALAPACK package :  Parallel linear algebra routines


Your calculation utilizes the atom-pairwise dispersion correction
with the zero-damping scheme (D30)
Cite in your paper:
S.Grimme, J.Antony, S.Ehrlich and H.Krieg, J.Chem.Phys., 132, (2010), 154104 
   

XCFun DFT library Copyright 2009-2010 Ulf Ekstrom and contributors.
See http://admol.org/xcfun for more information. This is free soft-
ware; see the source code for copying conditions. There is ABSOLUTELY
NO WARRANTY; not even for MERCHANTABILITY or FITNESS FOR A PARTICULAR
PURPOSE. For details see the documentation. Scientific users of this 
library should cite U. Ekstrom, L. Visscher, R. Bast, A. J. Thorvald-
sen and K. Ruud; J.Chem.Theor.Comp. 2010, DOI: 10.1021/ct100117s
XCFun Version 0.99 
----- Orbital basis set information -----
Your calculation utilizes the basis: def2-TZVP
   F. Weigend and R. Ahlrichs, Phys. Chem. Chem. Phys. 7, 3297 (2005).

================================================================================
                                        WARNINGS
                       Please study these warnings very carefully!
================================================================================


INFO   : the flag for use of LIBINT has been found!

Your calculation utilizes the atom-pairwise dispersion correction
with the zero-damping scheme (D30)
Cite in your paper:
S.Grimme, J.Antony, S.Ehrlich and H.Krieg, J.Chem.Phys., 132, (2010), 154104 
   

XCFun DFT library Copyright 2009-2010 Ulf Ekstrom and contributors.
See http://admol.org/xcfun for more information. This is free soft-
ware; see the source code for copying conditions. There is ABSOLUTELY
NO WARRANTY; not even for MERCHANTABILITY or FITNESS FOR A PARTICULAR
PURPOSE. For details see the documentation. Scientific users of this 
library should cite U. Ekstrom, L. Visscher, R. Bast, A. J. Thorvald-
sen and K. Ruud; J.Chem.Theor.Comp. 2010, DOI: 10.1021/ct100117s
XCFun Version 0.99 
----- Orbital basis set information -----
Your calculation utilizes the basis: def2-TZVP
   F. Weigend and R. Ahlrichs, Phys. Chem. Chem. Phys. 7, 3297 (2005).

================================================================================
                                        WARNINGS
                       Please study these warnings very carefully!
================================================================================


WARNING: MOInp is set but Guess=PModel. MOInp will be ignored!
         To read the initial guess from a file you must also specify
         'MORead' in the simple input or 'Guess MORead' in the %scf block


INFO   : the flag for use of LIBINT has been found!

Your calculation utilizes the atom-pairwise dispersion correction
with the zero-damping scheme (D30)
Cite in your paper:
S.Grimme, J.Antony, S.Ehrlich and H.Krieg, J.Chem.Phys., 132, (2010), 154104 
   

XCFun DFT library Copyright 2009-2010 Ulf Ekstrom and contributors.
See http://admol.org/xcfun for more information. This is free soft-
ware; see the source code for copying conditions. There is ABSOLUTELY
NO WARRANTY; not even for MERCHANTABILITY or FITNESS FOR A PARTICULAR
PURPOSE. For details see the documentation. Scientific users of this 
library should cite U. Ekstrom, L. Visscher, R. Bast, A. J. Thorvald-
sen and K. Ruud; J.Chem.Theor.Comp. 2010, DOI: 10.1021/ct100117s
XCFun Version 0.99 
----- Orbital basis set information -----
Your calculation utilizes the basis: def2-TZVP
   F. Weigend and R. Ahlrichs, Phys. Chem. Chem. Phys. 7, 3297 (2005).

================================================================================
                                        WARNINGS
                       Please study these warnings very carefully!
================================================================================


WARNING: MOInp is set but Guess=PModel. MOInp will be ignored!
         To read the initial guess from a file you must also specify
         'MORead' in the simple input or 'Guess MORead' in the %scf block


INFO   : the flag for use of LIBINT has been found!

================================================================================
                                       INPUT FILE
================================================================================
NAME = 12-133.in
|  1> #Run DFT-D3 single point of the dimer
|  2> ! wB97X-D3 def2-TZVP TIGHTSCF CHELPG PMODEL PAL8
|  3> 
|  4> %base "12-133_DFT_AB"
|  5> 
|  6> %scf
|  7> MaxIter 1000
|  8> end
|  9> 
| 10> * xyz 0 1
| 11>   C                      -7.696293            1.609487             -5.820513           
| 12>   O                      -7.350262            2.091528             -7.094658           
| 13>   H                      -6.480464            1.701876             -7.237686           
| 14>   H                      -8.568349            0.985886             -5.933055           
| 15>   H                      -6.828819            0.999782             -5.470952           
| 16>   H                      -7.973765            2.364178             -5.127782           
| 17>   C                      -7.819457            0.426416             -10.315546          
| 18>   O                      -7.990569            1.743504             -9.793378           
| 19>   H                      -8.515047            1.698552             -8.973592           
| 20>   H                      -6.998953            -0.118980            -9.874243           
| 21>   H                      -8.737981            -0.115613            -10.095287          
| 22>   H                      -7.639506            0.411101             -11.368478          
| 23> *
| 24> 
| 25> #Run DFT-D3 single point of the molecule with dimer basis set
| 26> $new_job
| 27> %base "12-133_DFT_A"
| 28> ! wB97X-D3 def2-TZVP TIGHTSCF CHELPG PMODEL
| 29> 
| 30> %scf
| 31> MaxIter 1000
| 32> end
| 33> 
| 34> * xyz 0 1
| 35>   C                      -7.696293            1.609487             -5.820513           
| 36>   O                      -7.350262            2.091528             -7.094658           
| 37>   H                      -6.480464            1.701876             -7.237686           
| 38>   H                      -8.568349            0.985886             -5.933055           
| 39>   H                      -6.828819            0.999782             -5.470952           
| 40>   H                      -7.973765            2.364178             -5.127782           
| 41>   C                    : -7.819457            0.426416             -10.315546          
| 42>   O                    : -7.990569            1.743504             -9.793378           
| 43>   H                    : -8.515047            1.698552             -8.973592           
| 44>   H                    : -6.998953            -0.118980            -9.874243           
| 45>   H                    : -8.737981            -0.115613            -10.095287          
| 46>   H                    : -7.639506            0.411101             -11.368478          
| 47> *
| 48> 
| 49> #Run DFT-D3 single point of the particle with dimer basis set
| 50> $new_job
| 51> %base "12-133_DFT_B"
| 52> ! wB97X-D3 def2-TZVP TIGHTSCF CHELPG PMODEL
| 53> 
| 54> %scf
| 55> MaxIter 1000
| 56> end
| 57> 
| 58> * xyz 0 1
| 59>   C                    : -7.696293            1.609487             -5.820513           
| 60>   O                    : -7.350262            2.091528             -7.094658           
| 61>   H                    : -6.480464            1.701876             -7.237686           
| 62>   H                    : -8.568349            0.985886             -5.933055           
| 63>   H                    : -6.828819            0.999782             -5.470952           
| 64>   H                    : -7.973765            2.364178             -5.127782           
| 65>   C                      -7.819457            0.426416             -10.315546          
| 66>   O                      -7.990569            1.743504             -9.793378           
| 67>   H                      -8.515047            1.698552             -8.973592           
| 68>   H                      -6.998953            -0.118980            -9.874243           
| 69>   H                      -8.737981            -0.115613            -10.095287          
| 70>   H                      -7.639506            0.411101             -11.368478          
| 71> *
| 72> 
| 73>                          ****END OF INPUT****
================================================================================


                 $$$$$$$$$$$$$$$$$$$$$$$$$$$$$$$$$$$$$$$$$$$$$$ 
                 $ THERE ARE  3 JOBS TO BE PROCESSED THIS RUN $
                 $$$$$$$$$$$$$$$$$$$$$$$$$$$$$$$$$$$$$$$$$$$$$$ 




                 $$$$$$$$$$$$$$$$  JOB NUMBER  1 $$$$$$$$$$$$$$


                       ****************************
                       * Single Point Calculation *
                       ****************************

---------------------------------
CARTESIAN COORDINATES (ANGSTROEM)
---------------------------------
  C     -7.696293    1.609487   -5.820513
  O     -7.350262    2.091528   -7.094658
  H     -6.480464    1.701876   -7.237686
  H     -8.568349    0.985886   -5.933055
  H     -6.828819    0.999782   -5.470952
  H     -7.973765    2.364178   -5.127782
  C     -7.819457    0.426416  -10.315546
  O     -7.990569    1.743504   -9.793378
  H     -8.515047    1.698552   -8.973592
  H     -6.998953   -0.118980   -9.874243
  H     -8.737981   -0.115613  -10.095287
  H     -7.639506    0.411101  -11.368478

----------------------------
CARTESIAN COORDINATES (A.U.)
----------------------------
  NO LB      ZA    FRAG     MASS         X           Y           Z
   0 C     6.0000    0    12.011  -14.543886    3.041490  -10.999176
   1 O     8.0000    0    15.999  -13.889982    3.952415  -13.406961
   2 H     1.0000    0     1.008  -12.246302    3.216080  -13.677244
   3 H     1.0000    0     1.008  -16.191833    1.863055  -11.211849
   4 H     1.0000    0     1.008  -12.904598    1.889314  -10.338601
   5 H     1.0000    0     1.008  -15.068232    4.467649   -9.690104
   6 C     6.0000    0    12.011  -14.776632    0.805809  -19.493557
   7 O     8.0000    0    15.999  -15.099987    3.294745  -18.506802
   8 H     1.0000    0     1.008  -16.091107    3.209798  -16.957631
   9 H     1.0000    0     1.008  -13.226104   -0.224840  -18.659615
  10 H     1.0000    0     1.008  -16.512391   -0.218477  -19.077328
  11 H     1.0000    0     1.008  -14.436574    0.776868  -21.483310

--------------------------------
INTERNAL COORDINATES (ANGSTROEM)
--------------------------------
 C      0   0   0     0.000000000000     0.00000000     0.00000000
 O      1   0   0     1.405541340433     0.00000000     0.00000000
 H      2   1   0     0.963760473713   102.59520120     0.00000000
 H      1   2   3     1.077972901376   107.63306957   243.52277887
 H      1   2   3     1.116442663294   106.25045090     1.56309045
 H      1   2   3     1.061331924812   114.34159247   126.62208005
 C      3   2   1     3.590671614789    86.23146435   126.39013501
 O      7   3   2     1.427115810477    53.36241965    44.11351009
 H      8   7   3     0.974241725951   109.25949260   293.93335016
 H      7   3   2     1.079551735046    62.97550109   205.89071536
 H      7   3   2     1.089034344040   108.53909818   306.98008747
 H      7   3   2     1.068308339502   141.91740360   125.31969130

---------------------------
INTERNAL COORDINATES (A.U.)
---------------------------
 C      0   0   0     0.000000000000     0.00000000     0.00000000
 O      1   0   0     2.656088203323     0.00000000     0.00000000
 H      2   1   0     1.821243354016   102.59520120     0.00000000
 H      1   2   3     2.037073563389   107.63306957   243.52277887
 H      1   2   3     2.109770877850   106.25045090     1.56309045
 H      1   2   3     2.005626675083   114.34159247   126.62208005
 C      3   2   1     6.785385988795    86.23146435   126.39013501
 O      7   3   2     2.696858043190    53.36241965    44.11351009
 H      8   7   3     1.841050050286   109.25949260   293.93335016
 H      7   3   2     2.040057126637    62.97550109   205.89071536
 H      7   3   2     2.057976660670   108.53909818   306.98008747
 H      7   3   2     2.018810188243   141.91740360   125.31969130

---------------------
BASIS SET INFORMATION
---------------------
There are 3 groups of distinct atoms

 Group   1 Type C   : 11s6p2d1f contracted to 5s3p2d1f pattern {62111/411/11/1}
 Group   2 Type O   : 11s6p2d1f contracted to 5s3p2d1f pattern {62111/411/11/1}
 Group   3 Type H   : 5s1p contracted to 3s1p pattern {311/1}

Atom   0C    basis set group =>   1
Atom   1O    basis set group =>   2
Atom   2H    basis set group =>   3
Atom   3H    basis set group =>   3
Atom   4H    basis set group =>   3
Atom   5H    basis set group =>   3
Atom   6C    basis set group =>   1
Atom   7O    basis set group =>   2
Atom   8H    basis set group =>   3
Atom   9H    basis set group =>   3
Atom  10H    basis set group =>   3
Atom  11H    basis set group =>   3


           ************************************************************
           *        Program running with 8 parallel MPI-processes     *
           *              working on a common directory               *
           ************************************************************
------------------------------------------------------------------------------
                           ORCA GTO INTEGRAL CALCULATION
------------------------------------------------------------------------------

                         BASIS SET STATISTICS AND STARTUP INFO

 # of primitive gaussian shells          ...  128
 # of primitive gaussian functions       ...  248
 # of contracted shells                  ...   76
 # of contracted basis functions         ...  172
 Highest angular momentum                ...    3
 Maximum contraction depth               ...    6
 Integral package used                   ... LIBINT
 Integral threshhold            Thresh   ...  2.500e-11
 Primitive cut-off              TCut     ...  2.500e-12


------------------------------ INTEGRAL EVALUATION ----------------------------


 * One electron integrals 
 Pre-screening matrix                    ... done
 Shell pair data                         ... done (   0.001 sec)



           ************************************************************
           *        Program running with 8 parallel MPI-processes     *
           *              working on a common directory               *
           ************************************************************
-------------------------------------------------------------------------------
                                 ORCA SCF
-------------------------------------------------------------------------------

------------
SCF SETTINGS
------------
Hamiltonian:
 Density Functional     Method          .... DFT(GTOs)
 Exchange Functional    Exchange        .... WB97X-D3
 Correlation Functional Correlation     .... WB97X-D3
 Gradients option       PostSCFGGA      .... off
 Hybrid DFT is turned on
   Fraction HF Exchange ScalHFX         ....  0.195728
   Scaling of DF-GGA-X  ScalDFX         ....  0.000000
   Scaling of DF-GGA-C  ScalDFC         ....  1.000000
   Scaling of DF-LDA-C  ScalLDAC        ....  1.000000
   Perturbative correction              ....  0.000000
   Density functional embedding theory  .... OFF
 Long-range corrected/Screened/Range-Separated Hybrid DFT is turned on
   Amount of maximum screened exact exchange              ....  0.804272
   Range separation parameter mu (erf(mu*r12)/r12)        ....  0.250000


General Settings:
 Integral files         IntName         .... 12-133_DFT_AB
 Hartree-Fock type      HFTyp           .... RHF
 Total Charge           Charge          ....    0
 Multiplicity           Mult            ....    1
 Number of Electrons    NEL             ....   36
 Basis Dimension        Dim             ....  172
 Nuclear Repulsion      ENuc            ....    127.5938310158 Eh

Convergence Acceleration:
 DIIS                   CNVDIIS         .... on
   Start iteration      DIISMaxIt       ....    12
   Startup error        DIISStart       ....  0.200000
   # of expansion vecs  DIISMaxEq       ....     5
   Bias factor          DIISBfac        ....   1.050
   Max. coefficient     DIISMaxC        ....  10.000
 Newton-Raphson         CNVNR           .... off
 SOSCF                  CNVSOSCF        .... on
   Start iteration      SOSCFMaxIt      ....   150
   Startup grad/error   SOSCFStart      ....  0.003300
 Level Shifting         CNVShift        .... on
   Level shift para.    LevelShift      ....    0.2500
   Turn off err/grad.   ShiftErr        ....    0.0010
 Zerner damping         CNVZerner       .... off
 Static damping         CNVDamp         .... on
   Fraction old density DampFac         ....    0.7000
   Max. Damping (<1)    DampMax         ....    0.9800
   Min. Damping (>=0)   DampMin         ....    0.0000
   Turn off err/grad.   DampErr         ....    0.1000
 Fernandez-Rico         CNVRico         .... off

SCF Procedure:
 Maximum # iterations   MaxIter         ....  1000
 SCF integral mode      SCFMode         .... Direct
   Integral package                     .... LIBINT
 Reset frequency        DirectResetFreq ....    20
 Integral Threshold     Thresh          ....  2.500e-11 Eh
 Primitive CutOff       TCut            ....  2.500e-12 Eh

Convergence Tolerance:
 Convergence Check Mode ConvCheckMode   .... Total+1el-Energy
 Convergence forced     ConvForced      .... 0
 Energy Change          TolE            ....  1.000e-08 Eh
 1-El. energy change                    ....  1.000e-05 Eh
 Orbital Gradient       TolG            ....  1.000e-05
 Orbital Rotation angle TolX            ....  1.000e-05
 DIIS Error             TolErr          ....  5.000e-07


Diagonalization of the overlap matrix:
Smallest eigenvalue                        ... 1.565e-03
Time for diagonalization                   ...    0.004 sec
Threshold for overlap eigenvalues          ... 1.000e-08
Number of eigenvalues below threshold      ... 0
Time for construction of square roots      ...    0.005 sec
Total time needed                          ...    0.009 sec

-------------------
DFT GRID GENERATION
-------------------

General Integration Accuracy     IntAcc      ...  4.340
Radial Grid Type                 RadialGrid  ... Gauss-Chebyshev
Angular Grid (max. acc.)         AngularGrid ... Lebedev-110
Angular grid pruning method      GridPruning ... 3 (G Style)
Weight generation scheme         WeightScheme... Becke
Basis function cutoff            BFCut       ...    1.0000e-11
Integration weight cutoff        WCut        ...    1.0000e-14
Grids for H and He will be reduced by one unit

# of grid points (after initial pruning)     ...  13096 (   0.0 sec)
# of grid points (after weights+screening)   ...  12502 (   0.0 sec)
nearest neighbour list constructed           ...    0.0 sec
Grid point re-assignment to atoms done       ...    0.0 sec
Grid point division into batches done        ...    0.0 sec
Reduced shell lists constructed in    0.0 sec

Total number of grid points                  ...    12502
Total number of batches                      ...      200
Average number of points per batch           ...       62
Average number of grid points per atom       ...     1042
Average number of shells per batch           ...    55.58 (73.13%)
Average number of basis functions per batch  ...   124.35 (72.29%)
Average number of large shells per batch     ...    45.92 (82.63%)
Average number of large basis fcns per batch ...   101.69 (81.78%)
Maximum spatial batch extension              ...  10.76, 15.83,  7.20 au
Average spatial batch extension              ...   0.26,  0.27,  0.24 au

Time for grid setup =    0.040 sec

------------------------------
INITIAL GUESS: MODEL POTENTIAL
------------------------------
Loading Hartree-Fock densities                     ... done
Calculating cut-offs                               ... done
Setting up the integral package                    ... done
Initializing the effective Hamiltonian             ... done
Starting the Coulomb interaction                   ... done (   0.0 sec)
Reading the grid                                   ... done
Mapping shells                                     ... done
Starting the XC term evaluation                    ... done (   0.0 sec)
  promolecular density results
     # of electrons  =     35.998682142
     EX              =    -28.872284168
     EC              =     -1.155568339
     EX+EC           =    -30.027852507
Transforming the Hamiltonian                       ... done (   0.0 sec)
Diagonalizing the Hamiltonian                      ... done (   0.0 sec)
Back transforming the eigenvectors                 ... done (   0.0 sec)
Now organizing SCF variables                       ... done
                      ------------------
                      INITIAL GUESS DONE (   0.1 sec)
                      ------------------
--------------
SCF ITERATIONS
--------------
ITER       Energy         Delta-E        Max-DP      RMS-DP      [F,P]     Damp
               ***  Starting incremental Fock matrix formation  ***
  0   -231.2943675761   0.000000000000 0.03705526  0.00108267  0.2472715 0.7000
  1   -231.3673412308  -0.072973654723 0.02182610  0.00077701  0.1234266 0.7000
                               ***Turning on DIIS***
  2   -231.4012471329  -0.033905902066 0.03267689  0.00141438  0.0488302 0.0000
  3   -231.4564708553  -0.055223722450 0.01789835  0.00051104  0.0609832 0.0000
  4   -231.4653351112  -0.008864255868 0.00429495  0.00010140  0.0064590 0.0000
                      *** Initiating the SOSCF procedure ***
                           *** Shutting down DIIS ***
                      *** Re-Reading the Fockian *** 
                      *** Removing any level shift *** 
ITER      Energy       Delta-E        Grad      Rot      Max-DP    RMS-DP
  5   -231.46553164  -0.0001965272  0.000376  0.000376  0.000701  0.000037
               *** Restarting incremental Fock matrix formation ***
  6   -231.46555004  -0.0000183977  0.000153  0.000244  0.000481  0.000024
  7   -231.46555208  -0.0000020488  0.000049  0.000128  0.000250  0.000011
  8   -231.46555228  -0.0000001956  0.000019  0.000019  0.000031  0.000001
  9   -231.46555230  -0.0000000156  0.000007  0.000006  0.000014  0.000001
 10   -231.46555230  -0.0000000027  0.000003  0.000003  0.000004  0.000000
                  ***Gradient check signals convergence***
              ***Rediagonalizing the Fockian in SOSCF/NRSCF***

               *****************************************************
               *                     SUCCESS                       *
               *           SCF CONVERGED AFTER  11 CYCLES          *
               *****************************************************

Setting up the final grid:

General Integration Accuracy     IntAcc      ...  4.670
Radial Grid Type                 RadialGrid  ... Gauss-Chebyshev
Angular Grid (max. acc.)         AngularGrid ... Lebedev-302
Angular grid pruning method      GridPruning ... 3 (G Style)
Weight generation scheme         WeightScheme... Becke
Basis function cutoff            BFCut       ...    1.0000e-11
Integration weight cutoff        WCut        ...    1.0000e-14
Grids for H and He will be reduced by one unit

# of grid points (after initial pruning)     ...  52000 (   0.0 sec)
# of grid points (after weights+screening)   ...  49141 (   0.0 sec)
nearest neighbour list constructed           ...    0.0 sec
Grid point re-assignment to atoms done       ...    0.0 sec
Grid point division into batches done        ...    0.2 sec
Reduced shell lists constructed in    0.2 sec

Total number of grid points                  ...    49141
Total number of batches                      ...      775
Average number of points per batch           ...       63
Average number of grid points per atom       ...     4095
Average number of shells per batch           ...    54.92 (72.26%)
Average number of basis functions per batch  ...   122.51 (71.23%)
Average number of large shells per batch     ...    45.21 (82.33%)
Average number of large basis fcns per batch ...   100.62 (82.13%)
Maximum spatial batch extension              ...  10.81, 13.16,  7.43 au
Average spatial batch extension              ...   0.16,  0.17,  0.16 au

Final grid set up in    0.2 sec
Final integration                            ... done (   0.1 sec)
Change in XC energy                          ...    -0.000346315
Integrated number of electrons               ...    35.999961573
Previous integrated no of electrons          ...    36.003045910

----------------
TOTAL SCF ENERGY
----------------

Total Energy       :         -231.46589861 Eh           -6298.50731 eV

Components:
Nuclear Repulsion  :          127.59383102 Eh            3472.00466 eV
Electronic Energy  :         -359.05972963 Eh           -9770.51197 eV
One Electron Energy:         -568.10060704 Eh          -15458.80343 eV
Two Electron Energy:          209.04087741 Eh            5688.29146 eV

Virial components:
Potential Energy   :         -462.05109034 Eh          -12573.04937 eV
Kinetic Energy     :          230.58519173 Eh            6274.54206 eV
Virial Ratio       :            2.00381944


DFT components:
N(Alpha)           :       17.999980786283 electrons
N(Beta)            :       17.999980786283 electrons
N(Total)           :       35.999961572566 electrons
E(XC)              :      -21.325707974583 Eh       
DFET-embed. en.    :        0.000000000000 Eh       

---------------
SCF CONVERGENCE
---------------

  Last Energy change         ...   -4.0231e-10  Tolerance :   1.0000e-08
  Last MAX-Density change    ...    2.4653e-06  Tolerance :   1.0000e-07
  Last RMS-Density change    ...    8.0186e-08  Tolerance :   5.0000e-09
  Last Orbital Gradient      ...    1.5106e-06  Tolerance :   1.0000e-05
  Last Orbital Rotation      ...    9.6449e-07  Tolerance :   1.0000e-05

             **** THE GBW FILE WAS UPDATED (12-133_DFT_AB.gbw) ****
             **** DENSITY FILE WAS UPDATED (12-133_DFT_AB.scfp.tmp) ****
             **** ENERGY FILE WAS UPDATED (12-133_DFT_AB.en.tmp) ****
----------------
ORBITAL ENERGIES
----------------

  NO   OCC          E(Eh)            E(eV) 
   0   2.0000     -19.237362      -523.4752 
   1   2.0000     -19.211358      -522.7676 
   2   2.0000     -10.315982      -280.7122 
   3   2.0000     -10.300766      -280.2981 
   4   2.0000      -1.150034       -31.2940 
   5   2.0000      -1.110961       -30.2308 
   6   2.0000      -0.800673       -21.7874 
   7   2.0000      -0.788214       -21.4484 
   8   2.0000      -0.619053       -16.8453 
   9   2.0000      -0.593581       -16.1521 
  10   2.0000      -0.551971       -15.0199 
  11   2.0000      -0.545107       -14.8331 
  12   2.0000      -0.529252       -14.4017 
  13   2.0000      -0.522078       -14.2065 
  14   2.0000      -0.444083       -12.0841 
  15   2.0000      -0.417073       -11.3491 
  16   2.0000      -0.381412       -10.3787 
  17   2.0000      -0.355154        -9.6642 
  18   0.0000       0.094483         2.5710 
  19   0.0000       0.139914         3.8072 
  20   0.0000       0.152635         4.1534 
  21   0.0000       0.161012         4.3814 
  22   0.0000       0.199288         5.4229 
  23   0.0000       0.204636         5.5684 
  24   0.0000       0.213154         5.8002 
  25   0.0000       0.214686         5.8419 
  26   0.0000       0.239964         6.5298 
  27   0.0000       0.265565         7.2264 
  28   0.0000       0.269979         7.3465 
  29   0.0000       0.302827         8.2403 
  30   0.0000       0.317555         8.6411 
  31   0.0000       0.349913         9.5216 
  32   0.0000       0.401294        10.9198 
  33   0.0000       0.405930        11.0459 
  34   0.0000       0.428868        11.6701 
  35   0.0000       0.455641        12.3986 
  36   0.0000       0.477535        12.9944 
  37   0.0000       0.501711        13.6522 
  38   0.0000       0.526700        14.3322 
  39   0.0000       0.540620        14.7110 
  40   0.0000       0.560048        15.2397 
  41   0.0000       0.567638        15.4462 
  42   0.0000       0.574409        15.6305 
  43   0.0000       0.595722        16.2104 
  44   0.0000       0.603517        16.4225 
  45   0.0000       0.614109        16.7107 
  46   0.0000       0.663647        18.0588 
  47   0.0000       0.695021        18.9125 
  48   0.0000       0.721516        19.6335 
  49   0.0000       0.743997        20.2452 
  50   0.0000       0.758460        20.6388 
  51   0.0000       0.789656        21.4876 
  52   0.0000       0.816805        22.2264 
  53   0.0000       0.851893        23.1812 
  54   0.0000       0.863885        23.5075 
  55   0.0000       0.960894        26.1473 
  56   0.0000       0.984883        26.8000 
  57   0.0000       1.012385        27.5484 
  58   0.0000       1.061777        28.8924 
  59   0.0000       1.074178        29.2299 
  60   0.0000       1.119942        30.4752 
  61   0.0000       1.123340        30.5676 
  62   0.0000       1.354397        36.8550 
  63   0.0000       1.440891        39.2086 
  64   0.0000       1.475909        40.1615 
  65   0.0000       1.505341        40.9624 
  66   0.0000       1.527988        41.5787 
  67   0.0000       1.559875        42.4463 
  68   0.0000       1.601650        43.5831 
  69   0.0000       1.612126        43.8682 
  70   0.0000       1.621778        44.1308 
  71   0.0000       1.631569        44.3973 
  72   0.0000       1.646154        44.7941 
  73   0.0000       1.649546        44.8864 
  74   0.0000       1.684650        45.8417 
  75   0.0000       1.703998        46.3681 
  76   0.0000       1.718311        46.7576 
  77   0.0000       1.738718        47.3129 
  78   0.0000       1.792454        48.7751 
  79   0.0000       1.839415        50.0530 
  80   0.0000       1.948708        53.0270 
  81   0.0000       1.994312        54.2680 
  82   0.0000       2.016696        54.8771 
  83   0.0000       2.041549        55.5534 
  84   0.0000       2.066011        56.2190 
  85   0.0000       2.072029        56.3828 
  86   0.0000       2.080429        56.6114 
  87   0.0000       2.125306        57.8325 
  88   0.0000       2.162999        58.8582 
  89   0.0000       2.216252        60.3073 
  90   0.0000       2.255361        61.3715 
  91   0.0000       2.277766        61.9812 
  92   0.0000       2.319222        63.1092 
  93   0.0000       2.354564        64.0709 
  94   0.0000       2.358009        64.1647 
  95   0.0000       2.382121        64.8208 
  96   0.0000       2.390895        65.0596 
  97   0.0000       2.458557        66.9007 
  98   0.0000       2.477794        67.4242 
  99   0.0000       2.485378        67.6306 
 100   0.0000       2.527177        68.7680 
 101   0.0000       2.534841        68.9765 
 102   0.0000       2.569081        69.9083 
 103   0.0000       2.594969        70.6127 
 104   0.0000       2.624305        71.4110 
 105   0.0000       2.665790        72.5398 
 106   0.0000       2.693063        73.2820 
 107   0.0000       2.716922        73.9312 
 108   0.0000       2.836081        77.1737 
 109   0.0000       2.839165        77.2576 
 110   0.0000       2.881309        78.4044 
 111   0.0000       2.891365        78.6780 
 112   0.0000       2.924530        79.5805 
 113   0.0000       2.964831        80.6771 
 114   0.0000       3.007554        81.8397 
 115   0.0000       3.019852        82.1743 
 116   0.0000       3.120752        84.9200 
 117   0.0000       3.172615        86.3312 
 118   0.0000       3.175731        86.4160 
 119   0.0000       3.224390        87.7401 
 120   0.0000       3.288367        89.4810 
 121   0.0000       3.296985        89.7155 
 122   0.0000       3.418050        93.0099 
 123   0.0000       3.423750        93.1650 
 124   0.0000       3.487821        94.9084 
 125   0.0000       3.494049        95.0779 
 126   0.0000       3.528584        96.0176 
 127   0.0000       3.549198        96.5786 
 128   0.0000       3.577558        97.3503 
 129   0.0000       3.612115        98.2906 
 130   0.0000       3.649910        99.3191 
 131   0.0000       3.657645        99.5296 
 132   0.0000       3.666560        99.7722 
 133   0.0000       3.673399        99.9583 
 134   0.0000       3.990960       108.5995 
 135   0.0000       4.022071       109.4461 
 136   0.0000       4.263035       116.0031 
 137   0.0000       4.277989       116.4100 
 138   0.0000       4.305250       117.1518 
 139   0.0000       4.356912       118.5576 
 140   0.0000       4.453262       121.1794 
 141   0.0000       4.488873       122.1484 
 142   0.0000       4.555456       123.9603 
 143   0.0000       4.606029       125.3364 
 144   0.0000       5.368121       146.0740 
 145   0.0000       5.375129       146.2647 
 146   0.0000       5.428402       147.7143 
 147   0.0000       5.450306       148.3104 
 148   0.0000       5.533441       150.5726 
 149   0.0000       5.577477       151.7709 
 150   0.0000       5.765390       156.8842 
 151   0.0000       5.823007       158.4521 
 152   0.0000       5.833272       158.7314 
 153   0.0000       5.859371       159.4416 
 154   0.0000       5.969151       162.4288 
 155   0.0000       6.016474       163.7166 
 156   0.0000       6.293776       171.2624 
 157   0.0000       6.334731       172.3768 
 158   0.0000       6.524349       177.5366 
 159   0.0000       6.564078       178.6176 
 160   0.0000       6.774126       184.3334 
 161   0.0000       6.809360       185.2921 
 162   0.0000       6.825089       185.7201 
 163   0.0000       6.841218       186.1590 
 164   0.0000       7.019379       191.0070 
 165   0.0000       7.067887       192.3270 
 166   0.0000       7.195828       195.8084 
 167   0.0000       7.258550       197.5152 
 168   0.0000      22.446325       610.7956 
 169   0.0000      22.456636       611.0761 
 170   0.0000      43.694971      1189.0006 
 171   0.0000      43.723869      1189.7870 

                    ********************************
                    * MULLIKEN POPULATION ANALYSIS *
                    ********************************

-----------------------
MULLIKEN ATOMIC CHARGES
-----------------------
   0 C :   -0.166092
   1 O :   -0.474015
   2 H :    0.327096
   3 H :    0.102115
   4 H :    0.098849
   5 H :    0.118011
   6 C :   -0.167107
   7 O :   -0.472219
   8 H :    0.326159
   9 H :    0.084471
  10 H :    0.103380
  11 H :    0.119352
Sum of atomic charges:   -0.0000000

--------------------------------
MULLIKEN REDUCED ORBITAL CHARGES
--------------------------------
  0 C s       :     3.226166  s :     3.226166
      pz      :     0.768916  p :     2.830847
      px      :     1.048857
      py      :     1.013074
      dz2     :     0.027313  d :     0.101006
      dxz     :     0.020383
      dyz     :     0.030050
      dx2y2   :     0.005063
      dxy     :     0.018197
      f0      :     0.002549  f :     0.008074
      f+1     :     0.001329
      f-1     :     0.001621
      f+2     :     0.000976
      f-2     :     0.001081
      f+3     :     0.000035
      f-3     :     0.000482
  1 O s       :     3.811217  s :     3.811217
      pz      :     1.423594  p :     4.629734
      px      :     1.442445
      py      :     1.763694
      dz2     :     0.010682  d :     0.031437
      dxz     :     0.003448
      dyz     :     0.006929
      dx2y2   :     0.004258
      dxy     :     0.006120
      f0      :     0.000227  f :     0.001627
      f+1     :     0.000322
      f-1     :     0.000317
      f+2     :     0.000125
      f-2     :     0.000129
      f+3     :     0.000098
      f-3     :     0.000410
  2 H s       :     0.625812  s :     0.625812
      pz      :     0.012203  p :     0.047091
      px      :     0.018508
      py      :     0.016380
  3 H s       :     0.877275  s :     0.877275
      pz      :     0.003342  p :     0.020610
      px      :     0.009974
      py      :     0.007294
  4 H s       :     0.882333  s :     0.882333
      pz      :     0.004151  p :     0.018819
      px      :     0.008371
      py      :     0.006296
  5 H s       :     0.861175  s :     0.861175
      pz      :     0.007391  p :     0.020814
      px      :     0.005322
      py      :     0.008101
  6 C s       :     3.219168  s :     3.219168
      pz      :     1.047295  p :     2.839858
      px      :     1.050621
      py      :     0.741942
      dz2     :     0.025198  d :     0.100734
      dxz     :     0.006984
      dyz     :     0.020109
      dx2y2   :     0.011785
      dxy     :     0.036658
      f0      :     0.001078  f :     0.007348
      f+1     :     0.000120
      f-1     :     0.001511
      f+2     :     0.000855
      f-2     :     0.000751
      f+3     :     0.001545
      f-3     :     0.001487
  7 O s       :     3.793259  s :     3.793259
      pz      :     1.472243  p :     4.648599
      px      :     1.742227
      py      :     1.434128
      dz2     :     0.006005  d :     0.028763
      dxz     :     0.005679
      dyz     :     0.004729
      dx2y2   :     0.008120
      dxy     :     0.004230
      f0      :     0.000121  f :     0.001599
      f+1     :     0.000534
      f-1     :     0.000131
      f+2     :     0.000324
      f-2     :     0.000126
      f+3     :     0.000175
      f-3     :     0.000189
  8 H s       :     0.627138  s :     0.627138
      pz      :     0.019651  p :     0.046703
      px      :     0.016764
      py      :     0.010289
  9 H s       :     0.895278  s :     0.895278
      pz      :     0.005429  p :     0.020251
      px      :     0.009226
      py      :     0.005596
 10 H s       :     0.877297  s :     0.877297
      pz      :     0.004138  p :     0.019323
      px      :     0.009758
      py      :     0.005428
 11 H s       :     0.860001  s :     0.860001
      pz      :     0.012736  p :     0.020647
      px      :     0.004985
      py      :     0.002925


                     *******************************
                     * LOEWDIN POPULATION ANALYSIS *
                     *******************************

----------------------
LOEWDIN ATOMIC CHARGES
----------------------
   0 C :   -0.388741
   1 O :   -0.065705
   2 H :    0.179749
   3 H :    0.094005
   4 H :    0.104433
   5 H :    0.094219
   6 C :   -0.379786
   7 O :   -0.090304
   8 H :    0.170390
   9 H :    0.085798
  10 H :    0.096318
  11 H :    0.099624

-------------------------------
LOEWDIN REDUCED ORBITAL CHARGES
-------------------------------
  0 C s       :     2.858274  s :     2.858274
      pz      :     0.900109  p :     3.052100
      px      :     1.081134
      py      :     1.070857
      dz2     :     0.126002  d :     0.418751
      dxz     :     0.074357
      dyz     :     0.124607
      dx2y2   :     0.017553
      dxy     :     0.076232
      f0      :     0.018174  f :     0.059615
      f+1     :     0.011556
      f-1     :     0.011280
      f+2     :     0.008766
      f-2     :     0.005087
      f+3     :     0.001428
      f-3     :     0.003325
  1 O s       :     3.371119  s :     3.371119
      pz      :     1.477569  p :     4.616598
      px      :     1.428829
      py      :     1.710200
      dz2     :     0.024349  d :     0.073020
      dxz     :     0.013459
      dyz     :     0.016903
      dx2y2   :     0.008390
      dxy     :     0.009919
      f0      :     0.000988  f :     0.004969
      f+1     :     0.001128
      f-1     :     0.001071
      f+2     :     0.000354
      f-2     :     0.000504
      f+3     :     0.000092
      f-3     :     0.000832
  2 H s       :     0.664221  s :     0.664221
      pz      :     0.031940  p :     0.156031
      px      :     0.072285
      py      :     0.051805
  3 H s       :     0.843982  s :     0.843982
      pz      :     0.010505  p :     0.062013
      px      :     0.029332
      py      :     0.022176
  4 H s       :     0.839626  s :     0.839626
      pz      :     0.012079  p :     0.055941
      px      :     0.025070
      py      :     0.018792
  5 H s       :     0.840512  s :     0.840512
      pz      :     0.022184  p :     0.065269
      px      :     0.016651
      py      :     0.026433
  6 C s       :     2.855936  s :     2.855936
      pz      :     1.083656  p :     3.061376
      px      :     1.100245
      py      :     0.877475
      dz2     :     0.098896  d :     0.407942
      dxz     :     0.022852
      dyz     :     0.075445
      dx2y2   :     0.072372
      dxy     :     0.138377
      f0      :     0.005099  f :     0.054533
      f+1     :     0.001218
      f-1     :     0.009743
      f+2     :     0.010109
      f-2     :     0.008464
      f+3     :     0.009137
      f-3     :     0.010763
  7 O s       :     3.378719  s :     3.378719
      pz      :     1.460623  p :     4.640565
      px      :     1.676827
      py      :     1.503115
      dz2     :     0.013888  d :     0.066761
      dxz     :     0.011757
      dyz     :     0.012935
      dx2y2   :     0.016655
      dxy     :     0.011528
      f0      :     0.000264  f :     0.004259
      f+1     :     0.000903
      f-1     :     0.000700
      f+2     :     0.000798
      f-2     :     0.000288
      f+3     :     0.000719
      f-3     :     0.000587
  8 H s       :     0.674363  s :     0.674363
      pz      :     0.071177  p :     0.155247
      px      :     0.054484
      py      :     0.029586
  9 H s       :     0.851986  s :     0.851986
      pz      :     0.017636  p :     0.062217
      px      :     0.027938
      py      :     0.016642
 10 H s       :     0.843139  s :     0.843139
      pz      :     0.014029  p :     0.060543
      px      :     0.030014
      py      :     0.016499
 11 H s       :     0.836709  s :     0.836709
      pz      :     0.038507  p :     0.063667
      px      :     0.015592
      py      :     0.009568


                      *****************************
                      * MAYER POPULATION ANALYSIS *
                      *****************************

  NA   - Mulliken gross atomic population
  ZA   - Total nuclear charge
  QA   - Mulliken gross atomic charge
  VA   - Mayer's total valence
  BVA  - Mayer's bonded valence
  FA   - Mayer's free valence

  ATOM       NA         ZA         QA         VA         BVA        FA
  0 C      6.1661     6.0000    -0.1661     3.9509     3.9509     0.0000
  1 O      8.4740     8.0000    -0.4740     1.8903     1.8903    -0.0000
  2 H      0.6729     1.0000     0.3271     0.9061     0.9061     0.0000
  3 H      0.8979     1.0000     0.1021     0.9542     0.9542    -0.0000
  4 H      0.9012     1.0000     0.0988     0.9691     0.9691     0.0000
  5 H      0.8820     1.0000     0.1180     0.9511     0.9511    -0.0000
  6 C      6.1671     6.0000    -0.1671     3.9789     3.9789    -0.0000
  7 O      8.4722     8.0000    -0.4722     1.8889     1.8889    -0.0000
  8 H      0.6738     1.0000     0.3262     0.9140     0.9140     0.0000
  9 H      0.9155     1.0000     0.0845     0.9470     0.9470    -0.0000
 10 H      0.8966     1.0000     0.1034     0.9646     0.9646    -0.0000
 11 H      0.8806     1.0000     0.1194     0.9556     0.9556    -0.0000

  Mayer bond orders larger than 0.1
B(  0-C ,  1-O ) :   0.9909 B(  0-C ,  3-H ) :   0.9817 B(  0-C ,  4-H ) :   0.9946 
B(  0-C ,  5-H ) :   0.9711 B(  1-O ,  2-H ) :   0.8939 B(  6-C ,  7-O ) :   1.0237 
B(  6-C ,  9-H ) :   0.9687 B(  6-C , 10-H ) :   0.9933 B(  6-C , 11-H ) :   0.9741 
B(  7-O ,  8-H ) :   0.8773 

-------
TIMINGS
-------

Total SCF time: 0 days 0 hours 0 min 19 sec 

Total time                  ....      19.182 sec
Sum of individual times     ....      18.843 sec  ( 98.2%)

Fock matrix formation       ....      18.284 sec  ( 95.3%)
  XC integration            ....       8.463 sec  ( 46.3% of F)
    Basis function eval.    ....       0.062 sec  (  0.7% of XC)
    Density eval.           ....       0.073 sec  (  0.9% of XC)
    XC-Functional eval.     ....       0.096 sec  (  1.1% of XC)
    XC-Potential eval.      ....       0.074 sec  (  0.9% of XC)
Diagonalization             ....       0.069 sec  (  0.4%)
Density matrix formation    ....       0.007 sec  (  0.0%)
Population analysis         ....       0.016 sec  (  0.1%)
Initial guess               ....       0.105 sec  (  0.5%)
Orbital Transformation      ....       0.000 sec  (  0.0%)
Orbital Orthonormalization  ....       0.000 sec  (  0.0%)
DIIS solution               ....       0.037 sec  (  0.2%)
SOSCF solution              ....       0.043 sec  (  0.2%)
Grid generation             ....       0.283 sec  (  1.5%)


-------------------------------------------------------------------------------
                          DFT DISPERSION CORRECTION                            
                                                                               
                              DFTD3 V3.1  Rev 1                                
                              USING zero damping                               
-------------------------------------------------------------------------------
The omegaB97X-D3 functional is recognized. Fit by Chai et al.
Active option DFTDOPT                   ...         3   

molecular C6(AA) [au] = 834.685905 


            DFT-D V3
 parameters
 s6 scaling factor         :     1.0000 
 rs6 scaling factor        :     1.2810 
 s8 scaling factor         :     1.0000 
 rs8 scaling factor        :     1.0940 
 Damping factor alpha6     :    14.0000 
 Damping factor alpha8     :    16.0000 
 ad hoc parameters k1-k3   :    16.0000     1.3333    -4.0000 

 Edisp/kcal,au: -1.057856565382  -0.001685801564 
 E6   /kcal   :  -0.480391714 
 E8   /kcal   :  -0.577464852 
 % E8         :  54.588199425 

-------------------------   ----------------
Dispersion correction           -0.001685802
-------------------------   ----------------


-------------------------   --------------------
FINAL SINGLE POINT ENERGY      -231.467584415805
-------------------------   --------------------


                            ***************************************
                            *     ORCA property calculations      *
                            ***************************************

                                    ---------------------
                                    Active property flags
                                    ---------------------
   (+) Dipole Moment


------------------------------------------------------------------------------
                       ORCA ELECTRIC PROPERTIES CALCULATION
------------------------------------------------------------------------------

Dipole Moment Calculation                       ... on
Quadrupole Moment Calculation                   ... off
Polarizability Calculation                      ... off
GBWName                                         ... 12-133_DFT_AB.gbw
Electron density file                           ... 12-133_DFT_AB.scfp.tmp
The origin for moment calculation is the CENTER OF MASS  = (-14.568220,  2.766003 -15.587369)

-------------
DIPOLE MOMENT
-------------
                                X             Y             Z
Electronic contribution:      0.23309       2.61975      -0.98701
Nuclear contribution   :     -0.06408      -3.53557       1.78310
                        -----------------------------------------
Total Dipole Moment    :      0.16901      -0.91582       0.79610
                        -----------------------------------------
Magnitude (a.u.)       :      1.22518
Magnitude (Debye)      :      3.11416



--------------------
Rotational spectrum 
--------------------
 
Rotational constants in cm-1:     0.649806     0.070113     0.066900 
Rotational constants in MHz : 19480.701880  2101.928240  2005.617537 

 Dipole components along the rotational axes: 
x,y,z [a.u.] :     0.596580    -1.063581    -0.118109 
x,y,z [Debye]:     1.516386    -2.703409    -0.300209 

 
------------------------------------------------------------------------------
                      ORCA CHELPG CHARGES GENERATION
------------------------------------------------------------------------------

GBW file                           ... 12-133_DFT_AB.gbw

Reading the GBW file               ... done

Grid spacing                       ...     0.300000
Point Cut-Off                      ...     2.800000
Van-der-Waals Radii                ...        COSMO
Total charge                       ...            0


Number of points X direction       ...           26
Number of points Y direction       ...           26
Number of points Z direction       ...           39
Maximum number of possible points  ...        26364
Final number of points             ...         9897


CHELPG Charges            
--------------------------------
  0   C   :      -0.047542
  1   O   :      -0.555161
  2   H   :       0.415722
  3   H   :       0.069337
  4   H   :       0.034323
  5   H   :       0.093953
  6   C   :       0.180075
  7   O   :      -0.674171
  8   H   :       0.460374
  9   H   :      -0.007207
 10   H   :      -0.028631
 11   H   :       0.058928
--------------------------------
Total charge:     0.000000
--------------------------------

CHELPG charges calculated...

Timings for individual parts in CHELPG calculation:
Grid generation                 ...        0.001 sec (=   0.000 min)
Potential calculation           ...        2.131 sec (=   0.036 min)
Fit to the potential            ...        0.003 sec (=   0.000 min)
------------------------------------------------------------------------------


Timings for individual modules:

Sum of individual times         ...       29.464 sec (=   0.491 min)
GTO integral calculation        ...        5.597 sec (=   0.093 min)  19.0 %
SCF iterations                  ...       21.700 sec (=   0.362 min)  73.6 %
CHELPG charge generation        ...        2.167 sec (=   0.036 min)   7.4 %


                 $$$$$$$$$$$$$$$$  JOB NUMBER  2 $$$$$$$$$$$$$$


                       ****************************
                       * Single Point Calculation *
                       ****************************

---------------------------------
CARTESIAN COORDINATES (ANGSTROEM)
---------------------------------
  C     -7.696293    1.609487   -5.820513
  O     -7.350262    2.091528   -7.094658
  H     -6.480464    1.701876   -7.237686
  H     -8.568349    0.985886   -5.933055
  H     -6.828819    0.999782   -5.470952
  H     -7.973765    2.364178   -5.127782
  C     -7.819457    0.426416  -10.315546
  O     -7.990569    1.743504   -9.793378
  H     -8.515047    1.698552   -8.973592
  H     -6.998953   -0.118980   -9.874243
  H     -8.737981   -0.115613  -10.095287
  H     -7.639506    0.411101  -11.368478

----------------------------
CARTESIAN COORDINATES (A.U.)
----------------------------
  NO LB      ZA    FRAG     MASS         X           Y           Z
   0 C     6.0000    0    12.011  -14.543886    3.041490  -10.999176
   1 O     8.0000    0    15.999  -13.889982    3.952415  -13.406961
   2 H     1.0000    0     1.008  -12.246302    3.216080  -13.677244
   3 H     1.0000    0     1.008  -16.191833    1.863055  -11.211849
   4 H     1.0000    0     1.008  -12.904598    1.889314  -10.338601
   5 H     1.0000    0     1.008  -15.068232    4.467649   -9.690104
   6 C     0.0000    0     0.000  -14.776632    0.805809  -19.493557
   7 O     0.0000    0     0.000  -15.099987    3.294745  -18.506802
   8 H     0.0000    0     0.000  -16.091107    3.209798  -16.957631
   9 H     0.0000    0     0.000  -13.226104   -0.224840  -18.659615
  10 H     0.0000    0     0.000  -16.512391   -0.218477  -19.077328
  11 H     0.0000    0     0.000  -14.436574    0.776868  -21.483310

--------------------------------
INTERNAL COORDINATES (ANGSTROEM)
--------------------------------
 C      0   0   0     0.000000000000     0.00000000     0.00000000
 O      1   0   0     1.405541340433     0.00000000     0.00000000
 H      2   1   0     0.963760473713   102.59520120     0.00000000
 H      1   2   3     1.077972901376   107.63306957   243.52277887
 H      1   2   3     1.116442663294   106.25045090     1.56309045
 H      1   2   3     1.061331924812   114.34159247   126.62208005
 C      3   2   1     3.590671614789    86.23146435   126.39013501
 O      7   3   2     1.427115810477    53.36241965    44.11351009
 H      8   7   3     0.974241725951   109.25949260   293.93335016
 H      7   3   2     1.079551735046    62.97550109   205.89071536
 H      7   3   2     1.089034344040   108.53909818   306.98008747
 H      7   3   2     1.068308339502   141.91740360   125.31969130

---------------------------
INTERNAL COORDINATES (A.U.)
---------------------------
 C      0   0   0     0.000000000000     0.00000000     0.00000000
 O      1   0   0     2.656088203323     0.00000000     0.00000000
 H      2   1   0     1.821243354016   102.59520120     0.00000000
 H      1   2   3     2.037073563389   107.63306957   243.52277887
 H      1   2   3     2.109770877850   106.25045090     1.56309045
 H      1   2   3     2.005626675083   114.34159247   126.62208005
 C      3   2   1     6.785385988795    86.23146435   126.39013501
 O      7   3   2     2.696858043190    53.36241965    44.11351009
 H      8   7   3     1.841050050286   109.25949260   293.93335016
 H      7   3   2     2.040057126637    62.97550109   205.89071536
 H      7   3   2     2.057976660670   108.53909818   306.98008747
 H      7   3   2     2.018810188243   141.91740360   125.31969130

---------------------
BASIS SET INFORMATION
---------------------
There are 3 groups of distinct atoms

 Group   1 Type C   : 11s6p2d1f contracted to 5s3p2d1f pattern {62111/411/11/1}
 Group   2 Type O   : 11s6p2d1f contracted to 5s3p2d1f pattern {62111/411/11/1}
 Group   3 Type H   : 5s1p contracted to 3s1p pattern {311/1}

Atom   0C    basis set group =>   1
Atom   1O    basis set group =>   2
Atom   2H    basis set group =>   3
Atom   3H    basis set group =>   3
Atom   4H    basis set group =>   3
Atom   5H    basis set group =>   3
Atom   6C    basis set group =>   1
Atom   7O    basis set group =>   2
Atom   8H    basis set group =>   3
Atom   9H    basis set group =>   3
Atom  10H    basis set group =>   3
Atom  11H    basis set group =>   3


           ************************************************************
           *        Program running with 8 parallel MPI-processes     *
           *              working on a common directory               *
           ************************************************************
------------------------------------------------------------------------------
                           ORCA GTO INTEGRAL CALCULATION
------------------------------------------------------------------------------

                         BASIS SET STATISTICS AND STARTUP INFO

 # of primitive gaussian shells          ...  128
 # of primitive gaussian functions       ...  248
 # of contracted shells                  ...   76
 # of contracted basis functions         ...  172
 Highest angular momentum                ...    3
 Maximum contraction depth               ...    6
 Integral package used                   ... LIBINT
 Integral threshhold            Thresh   ...  2.500e-11
 Primitive cut-off              TCut     ...  2.500e-12


------------------------------ INTEGRAL EVALUATION ----------------------------


 * One electron integrals 
 Pre-screening matrix                    ... done
 Shell pair data                         ... done (   0.001 sec)



           ************************************************************
           *        Program running with 8 parallel MPI-processes     *
           *              working on a common directory               *
           ************************************************************
-------------------------------------------------------------------------------
                                 ORCA SCF
-------------------------------------------------------------------------------

------------
SCF SETTINGS
------------
Hamiltonian:
 Density Functional     Method          .... DFT(GTOs)
 Exchange Functional    Exchange        .... WB97X-D3
 Correlation Functional Correlation     .... WB97X-D3
 Gradients option       PostSCFGGA      .... off
 Hybrid DFT is turned on
   Fraction HF Exchange ScalHFX         ....  0.195728
   Scaling of DF-GGA-X  ScalDFX         ....  0.000000
   Scaling of DF-GGA-C  ScalDFC         ....  1.000000
   Scaling of DF-LDA-C  ScalLDAC        ....  1.000000
   Perturbative correction              ....  0.000000
   Density functional embedding theory  .... OFF
 Long-range corrected/Screened/Range-Separated Hybrid DFT is turned on
   Amount of maximum screened exact exchange              ....  0.804272
   Range separation parameter mu (erf(mu*r12)/r12)        ....  0.250000


General Settings:
 Integral files         IntName         .... 12-133_DFT_A
 Hartree-Fock type      HFTyp           .... RHF
 Total Charge           Charge          ....    0
 Multiplicity           Mult            ....    1
 Number of Electrons    NEL             ....   18
 Basis Dimension        Dim             ....  172
 Nuclear Repulsion      ENuc            ....     40.7452932893 Eh

Convergence Acceleration:
 DIIS                   CNVDIIS         .... on
   Start iteration      DIISMaxIt       ....    12
   Startup error        DIISStart       ....  0.200000
   # of expansion vecs  DIISMaxEq       ....     5
   Bias factor          DIISBfac        ....   1.050
   Max. coefficient     DIISMaxC        ....  10.000
 Newton-Raphson         CNVNR           .... off
 SOSCF                  CNVSOSCF        .... on
   Start iteration      SOSCFMaxIt      ....   150
   Startup grad/error   SOSCFStart      ....  0.003300
 Level Shifting         CNVShift        .... on
   Level shift para.    LevelShift      ....    0.2500
   Turn off err/grad.   ShiftErr        ....    0.0010
 Zerner damping         CNVZerner       .... off
 Static damping         CNVDamp         .... on
   Fraction old density DampFac         ....    0.7000
   Max. Damping (<1)    DampMax         ....    0.9800
   Min. Damping (>=0)   DampMin         ....    0.0000
   Turn off err/grad.   DampErr         ....    0.1000
 Fernandez-Rico         CNVRico         .... off

SCF Procedure:
 Maximum # iterations   MaxIter         ....  1000
 SCF integral mode      SCFMode         .... Direct
   Integral package                     .... LIBINT
 Reset frequency        DirectResetFreq ....    20
 Integral Threshold     Thresh          ....  2.500e-11 Eh
 Primitive CutOff       TCut            ....  2.500e-12 Eh

Convergence Tolerance:
 Convergence Check Mode ConvCheckMode   .... Total+1el-Energy
 Convergence forced     ConvForced      .... 0
 Energy Change          TolE            ....  1.000e-08 Eh
 1-El. energy change                    ....  1.000e-05 Eh
 Orbital Gradient       TolG            ....  1.000e-05
 Orbital Rotation angle TolX            ....  1.000e-05
 DIIS Error             TolErr          ....  5.000e-07


Diagonalization of the overlap matrix:
Smallest eigenvalue                        ... 1.565e-03
Time for diagonalization                   ...    0.004 sec
Threshold for overlap eigenvalues          ... 1.000e-08
Number of eigenvalues below threshold      ... 0
Time for construction of square roots      ...    0.006 sec
Total time needed                          ...    0.010 sec

-------------------
DFT GRID GENERATION
-------------------

General Integration Accuracy     IntAcc      ...  4.340
Radial Grid Type                 RadialGrid  ... Gauss-Chebyshev
Angular Grid (max. acc.)         AngularGrid ... Lebedev-110
Angular grid pruning method      GridPruning ... 3 (G Style)
Weight generation scheme         WeightScheme... Becke
Basis function cutoff            BFCut       ...    1.0000e-11
Integration weight cutoff        WCut        ...    1.0000e-14
Grids for H and He will be reduced by one unit

# of grid points (after initial pruning)     ...  13096 (   0.0 sec)
# of grid points (after weights+screening)   ...  12502 (   0.0 sec)
nearest neighbour list constructed           ...    0.0 sec
Grid point re-assignment to atoms done       ...    0.0 sec
Grid point division into batches done        ...    0.0 sec
Reduced shell lists constructed in    0.0 sec

Total number of grid points                  ...    12502
Total number of batches                      ...      200
Average number of points per batch           ...       62
Average number of grid points per atom       ...     1042
Average number of shells per batch           ...    55.58 (73.13%)
Average number of basis functions per batch  ...   124.35 (72.29%)
Average number of large shells per batch     ...    45.92 (82.63%)
Average number of large basis fcns per batch ...   101.69 (81.78%)
Maximum spatial batch extension              ...  10.76, 15.83,  7.20 au
Average spatial batch extension              ...   0.26,  0.27,  0.24 au

Time for grid setup =    0.042 sec

------------------------------
INITIAL GUESS: MODEL POTENTIAL
------------------------------
Loading Hartree-Fock densities                     ... done
Calculating cut-offs                               ... done
Setting up the integral package                    ... done
Initializing the effective Hamiltonian             ... done
Starting the Coulomb interaction                   ... done (   0.0 sec)
Reading the grid                                   ... done
Mapping shells                                     ... done
Starting the XC term evaluation                    ... done (   0.0 sec)
  promolecular density results
     # of electrons  =     17.998687000
     EX              =    -14.438177036
     EC              =     -0.576922885
     EX+EC           =    -15.015099921
Transforming the Hamiltonian                       ... done (   0.0 sec)
Diagonalizing the Hamiltonian                      ... done (   0.0 sec)
Back transforming the eigenvectors                 ... done (   0.0 sec)
Now organizing SCF variables                       ... done
                      ------------------
                      INITIAL GUESS DONE (   0.2 sec)
                      ------------------
--------------
SCF ITERATIONS
--------------
ITER       Energy         Delta-E        Max-DP      RMS-DP      [F,P]     Damp
               ***  Starting incremental Fock matrix formation  ***
  0   -115.6423870832   0.000000000000 0.03627376  0.00076621  0.2479888 0.7000
  1   -115.6802389899  -0.037851906654 0.02180566  0.00054437  0.1241159 0.7000
                               ***Turning on DIIS***
  2   -115.6976818394  -0.017442849538 0.03194727  0.00097714  0.0485439 0.0000
  3   -115.7259960558  -0.028314216342 0.01761809  0.00036068  0.0600853 0.0000
  4   -115.7306380224  -0.004641966642 0.00425186  0.00007170  0.0064645 0.0000
                      *** Initiating the SOSCF procedure ***
                           *** Shutting down DIIS ***
                      *** Re-Reading the Fockian *** 
                      *** Removing any level shift *** 
ITER      Energy       Delta-E        Grad      Rot      Max-DP    RMS-DP
  5   -115.73073872  -0.0001007025  0.000435  0.000435  0.000745  0.000025
               *** Restarting incremental Fock matrix formation ***
  6   -115.73074779  -0.0000090669  0.000154  0.000274  0.000525  0.000016
  7   -115.73074874  -0.0000009507  0.000058  0.000155  0.000274  0.000007
  8   -115.73074884  -0.0000000928  0.000019  0.000016  0.000031  0.000001
  9   -115.73074884  -0.0000000060  0.000007  0.000006  0.000012  0.000000
                  ***Gradient check signals convergence***
              ***Rediagonalizing the Fockian in SOSCF/NRSCF***

               *****************************************************
               *                     SUCCESS                       *
               *           SCF CONVERGED AFTER  10 CYCLES          *
               *****************************************************

Setting up the final grid:

General Integration Accuracy     IntAcc      ...  4.670
Radial Grid Type                 RadialGrid  ... Gauss-Chebyshev
Angular Grid (max. acc.)         AngularGrid ... Lebedev-302
Angular grid pruning method      GridPruning ... 3 (G Style)
Weight generation scheme         WeightScheme... Becke
Basis function cutoff            BFCut       ...    1.0000e-11
Integration weight cutoff        WCut        ...    1.0000e-14
Grids for H and He will be reduced by one unit

# of grid points (after initial pruning)     ...  52000 (   0.0 sec)
# of grid points (after weights+screening)   ...  49141 (   0.0 sec)
nearest neighbour list constructed           ...    0.0 sec
Grid point re-assignment to atoms done       ...    0.0 sec
Grid point division into batches done        ...    0.2 sec
Reduced shell lists constructed in    0.2 sec

Total number of grid points                  ...    49141
Total number of batches                      ...      775
Average number of points per batch           ...       63
Average number of grid points per atom       ...     4095
Average number of shells per batch           ...    54.92 (72.26%)
Average number of basis functions per batch  ...   122.51 (71.23%)
Average number of large shells per batch     ...    45.21 (82.33%)
Average number of large basis fcns per batch ...   100.62 (82.13%)
Maximum spatial batch extension              ...  10.81, 13.16,  7.43 au
Average spatial batch extension              ...   0.16,  0.17,  0.16 au

Final grid set up in    0.2 sec
Final integration                            ... done (   0.1 sec)
Change in XC energy                          ...    -0.000101766
Integrated number of electrons               ...    17.999966809
Previous integrated no of electrons          ...    18.000692355

----------------
TOTAL SCF ENERGY
----------------

Total Energy       :         -115.73085061 Eh           -3149.19655 eV

Components:
Nuclear Repulsion  :           40.74529329 Eh            1108.73580 eV
Electronic Energy  :         -156.47614390 Eh           -4257.93234 eV
One Electron Energy:         -237.86127202 Eh           -6472.53427 eV
Two Electron Energy:           81.38512812 Eh            2214.60192 eV

Virial components:
Potential Energy   :         -231.04949681 Eh           -6287.17644 eV
Kinetic Energy     :          115.31864620 Eh            3137.97989 eV
Virial Ratio       :            2.00357448


DFT components:
N(Alpha)           :        8.999983404292 electrons
N(Beta)            :        8.999983404292 electrons
N(Total)           :       17.999966808584 electrons
E(XC)              :      -10.665813470939 Eh       
DFET-embed. en.    :        0.000000000000 Eh       

---------------
SCF CONVERGENCE
---------------

  Last Energy change         ...   -1.0037e-09  Tolerance :   1.0000e-08
  Last MAX-Density change    ...    2.9734e-06  Tolerance :   1.0000e-07
  Last RMS-Density change    ...    7.7828e-08  Tolerance :   5.0000e-09
  Last Orbital Gradient      ...    1.5620e-06  Tolerance :   1.0000e-05
  Last Orbital Rotation      ...    1.8011e-06  Tolerance :   1.0000e-05

             **** THE GBW FILE WAS UPDATED (12-133_DFT_A.gbw) ****
             **** DENSITY FILE WAS UPDATED (12-133_DFT_A.scfp.tmp) ****
             **** ENERGY FILE WAS UPDATED (12-133_DFT_A.en.tmp) ****
----------------
ORBITAL ENERGIES
----------------

  NO   OCC          E(Eh)            E(eV) 
   0   2.0000     -19.230093      -523.2774 
   1   2.0000     -10.309663      -280.5402 
   2   2.0000      -1.142118       -31.0786 
   3   2.0000      -0.793820       -21.6009 
   4   2.0000      -0.611384       -16.6366 
   5   2.0000      -0.545079       -14.8323 
   6   2.0000      -0.536144       -14.5892 
   7   2.0000      -0.436187       -11.8692 
   8   2.0000      -0.372174       -10.1274 
   9   0.0000       0.089075         2.4239 
  10   0.0000       0.121507         3.3064 
  11   0.0000       0.157681         4.2907 
  12   0.0000       0.179486         4.8841 
  13   0.0000       0.201435         5.4813 
  14   0.0000       0.207809         5.6548 
  15   0.0000       0.216698         5.8966 
  16   0.0000       0.223631         6.0853 
  17   0.0000       0.249767         6.7965 
  18   0.0000       0.289501         7.8777 
  19   0.0000       0.295059         8.0290 
  20   0.0000       0.316620         8.6157 
  21   0.0000       0.337251         9.1771 
  22   0.0000       0.342166         9.3108 
  23   0.0000       0.376599        10.2478 
  24   0.0000       0.403310        10.9746 
  25   0.0000       0.441726        12.0200 
  26   0.0000       0.461733        12.5644 
  27   0.0000       0.500049        13.6070 
  28   0.0000       0.533776        14.5248 
  29   0.0000       0.549775        14.9601 
  30   0.0000       0.569023        15.4839 
  31   0.0000       0.582290        15.8449 
  32   0.0000       0.591430        16.0936 
  33   0.0000       0.620448        16.8833 
  34   0.0000       0.664663        18.0864 
  35   0.0000       0.698287        19.0014 
  36   0.0000       0.709558        19.3081 
  37   0.0000       0.738364        20.0919 
  38   0.0000       0.765459        20.8292 
  39   0.0000       0.805686        21.9238 
  40   0.0000       0.809539        22.0287 
  41   0.0000       0.850833        23.1523 
  42   0.0000       0.889737        24.2110 
  43   0.0000       0.947520        25.7833 
  44   0.0000       1.007029        27.4026 
  45   0.0000       1.056906        28.7599 
  46   0.0000       1.075142        29.2561 
  47   0.0000       1.122580        30.5469 
  48   0.0000       1.163112        31.6499 
  49   0.0000       1.168017        31.7834 
  50   0.0000       1.196090        32.5473 
  51   0.0000       1.216202        33.0946 
  52   0.0000       1.270437        34.5703 
  53   0.0000       1.369228        37.2586 
  54   0.0000       1.390982        37.8505 
  55   0.0000       1.418592        38.6019 
  56   0.0000       1.467174        39.9238 
  57   0.0000       1.480250        40.2796 
  58   0.0000       1.535415        41.7808 
  59   0.0000       1.563531        42.5458 
  60   0.0000       1.621106        44.1125 
  61   0.0000       1.634767        44.4843 
  62   0.0000       1.643613        44.7250 
  63   0.0000       1.707425        46.4614 
  64   0.0000       1.732923        47.1552 
  65   0.0000       1.787760        48.6474 
  66   0.0000       1.870045        50.8865 
  67   0.0000       1.931946        52.5709 
  68   0.0000       1.950929        53.0875 
  69   0.0000       1.970495        53.6199 
  70   0.0000       2.041200        55.5439 
  71   0.0000       2.071775        56.3759 
  72   0.0000       2.080069        56.6015 
  73   0.0000       2.150367        58.5145 
  74   0.0000       2.196940        59.7818 
  75   0.0000       2.221842        60.4594 
  76   0.0000       2.229808        60.6762 
  77   0.0000       2.269887        61.7668 
  78   0.0000       2.286253        62.2121 
  79   0.0000       2.340284        63.6824 
  80   0.0000       2.356879        64.1339 
  81   0.0000       2.363686        64.3192 
  82   0.0000       2.397281        65.2333 
  83   0.0000       2.482222        67.5447 
  84   0.0000       2.488136        67.7056 
  85   0.0000       2.534891        68.9779 
  86   0.0000       2.556492        69.5657 
  87   0.0000       2.612945        71.1018 
  88   0.0000       2.637877        71.7803 
  89   0.0000       2.676560        72.8329 
  90   0.0000       2.699317        73.4522 
  91   0.0000       2.716830        73.9287 
  92   0.0000       2.843789        77.3834 
  93   0.0000       2.856224        77.7218 
  94   0.0000       2.883753        78.4709 
  95   0.0000       2.934677        79.8566 
  96   0.0000       2.944592        80.1264 
  97   0.0000       3.007186        81.8297 
  98   0.0000       3.094200        84.1975 
  99   0.0000       3.136260        85.3420 
 100   0.0000       3.164451        86.1091 
 101   0.0000       3.203103        87.1609 
 102   0.0000       3.218611        87.5829 
 103   0.0000       3.258764        88.6755 
 104   0.0000       3.299362        89.7802 
 105   0.0000       3.328476        90.5724 
 106   0.0000       3.355492        91.3076 
 107   0.0000       3.373434        91.7958 
 108   0.0000       3.430540        93.3497 
 109   0.0000       3.503789        95.3430 
 110   0.0000       3.547528        96.5332 
 111   0.0000       3.583362        97.5082 
 112   0.0000       3.635866        98.9370 
 113   0.0000       3.656364        99.4947 
 114   0.0000       3.667881        99.8081 
 115   0.0000       3.692177       100.4693 
 116   0.0000       3.760129       102.3183 
 117   0.0000       4.000724       108.8652 
 118   0.0000       4.102277       111.6286 
 119   0.0000       4.184758       113.8731 
 120   0.0000       4.269398       116.1762 
 121   0.0000       4.277261       116.3902 
 122   0.0000       4.288884       116.7065 
 123   0.0000       4.306961       117.1984 
 124   0.0000       4.365246       118.7844 
 125   0.0000       4.495545       122.3300 
 126   0.0000       4.528276       123.2207 
 127   0.0000       4.559226       124.0628 
 128   0.0000       4.564446       124.2049 
 129   0.0000       4.586456       124.8038 
 130   0.0000       4.610627       125.4615 
 131   0.0000       5.003122       136.1419 
 132   0.0000       5.088372       138.4616 
 133   0.0000       5.126730       139.5054 
 134   0.0000       5.348039       145.5275 
 135   0.0000       5.381107       146.4274 
 136   0.0000       5.453546       148.3985 
 137   0.0000       5.499717       149.6549 
 138   0.0000       5.545509       150.9010 
 139   0.0000       5.773461       157.1039 
 140   0.0000       5.847793       159.1265 
 141   0.0000       5.866342       159.6313 
 142   0.0000       6.021873       163.8635 
 143   0.0000       6.029449       164.0696 
 144   0.0000       6.116891       166.4491 
 145   0.0000       6.303684       171.5320 
 146   0.0000       6.543384       178.0545 
 147   0.0000       6.623769       180.2419 
 148   0.0000       6.697483       182.2478 
 149   0.0000       6.820841       185.6045 
 150   0.0000       6.846660       186.3071 
 151   0.0000       6.865997       186.8333 
 152   0.0000       7.029573       191.2844 
 153   0.0000       7.108797       193.4402 
 154   0.0000       7.231381       196.7759 
 155   0.0000       7.247182       197.2058 
 156   0.0000       7.408541       201.5966 
 157   0.0000       8.040425       218.7911 
 158   0.0000       8.959903       243.8114 
 159   0.0000       9.343834       254.2586 
 160   0.0000       9.578398       260.6414 
 161   0.0000       9.613593       261.5992 
 162   0.0000       9.801880       266.7227 
 163   0.0000       9.930380       270.2194 
 164   0.0000       9.947887       270.6958 
[...]
  82   0.0000       2.443027        66.4781 
  83   0.0000       2.458336        66.8947 
  84   0.0000       2.464814        67.0710 
  85   0.0000       2.532762        68.9200 
  86   0.0000       2.579297        70.1863 
  87   0.0000       2.628333        71.5206 
  88   0.0000       2.651834        72.1601 
  89   0.0000       2.681083        72.9560 
  90   0.0000       2.700533        73.4853 
  91   0.0000       2.711732        73.7900 
  92   0.0000       2.825020        76.8727 
  93   0.0000       2.856988        77.7426 
  94   0.0000       2.882065        78.4250 
  95   0.0000       2.942731        80.0758 
  96   0.0000       2.950846        80.2966 
  97   0.0000       3.019543        82.1660 
  98   0.0000       3.078551        83.7716 
  99   0.0000       3.089727        84.0757 
 100   0.0000       3.144436        85.5644 
 101   0.0000       3.161783        86.0365 
 102   0.0000       3.173275        86.3492 
 103   0.0000       3.220694        87.6396 
 104   0.0000       3.276710        89.1638 
 105   0.0000       3.287672        89.4621 
 106   0.0000       3.334974        90.7493 
 107   0.0000       3.407844        92.7321 
 108   0.0000       3.410940        92.8164 
 109   0.0000       3.475066        94.5613 
 110   0.0000       3.523972        95.8921 
 111   0.0000       3.595363        97.8348 
 112   0.0000       3.602211        98.0211 
 113   0.0000       3.654654        99.4482 
 114   0.0000       3.661326        99.6297 
 115   0.0000       3.665917        99.7547 
 116   0.0000       3.788706       103.0959 
 117   0.0000       3.988579       108.5348 
 118   0.0000       4.112417       111.9046 
 119   0.0000       4.194323       114.1333 
 120   0.0000       4.253622       115.7470 
 121   0.0000       4.275305       116.3370 
 122   0.0000       4.285420       116.6122 
 123   0.0000       4.340671       118.1157 
 124   0.0000       4.352045       118.4252 
 125   0.0000       4.443134       120.9038 
 126   0.0000       4.523444       123.0892 
 127   0.0000       4.545646       123.6933 
 128   0.0000       4.562872       124.1621 
 129   0.0000       4.601665       125.2177 
 130   0.0000       4.644076       126.3717 
 131   0.0000       5.011022       136.3568 
 132   0.0000       5.084274       138.3501 
 133   0.0000       5.113431       139.1435 
 134   0.0000       5.349240       145.5602 
 135   0.0000       5.354218       145.6957 
 136   0.0000       5.410457       147.2260 
 137   0.0000       5.445445       148.1781 
 138   0.0000       5.563036       151.3779 
 139   0.0000       5.806566       158.0047 
 140   0.0000       5.824115       158.4822 
 141   0.0000       5.883825       160.1070 
 142   0.0000       5.913343       160.9102 
 143   0.0000       5.951237       161.9414 
 144   0.0000       6.118041       166.4803 
 145   0.0000       6.311923       171.7562 
 146   0.0000       6.537637       177.8981 
 147   0.0000       6.643010       180.7655 
 148   0.0000       6.754052       183.7871 
 149   0.0000       6.760600       183.9653 
 150   0.0000       6.803537       185.1336 
 151   0.0000       6.826051       185.7463 
 152   0.0000       7.043676       191.6682 
 153   0.0000       7.075751       192.5410 
 154   0.0000       7.208649       196.1573 
 155   0.0000       7.291272       198.4056 
 156   0.0000       7.458659       202.9604 
 157   0.0000       8.087108       220.0614 
 158   0.0000       8.924383       242.8448 
 159   0.0000       9.371837       255.0207 
 160   0.0000       9.529844       259.3202 
 161   0.0000       9.568662       260.3765 
 162   0.0000       9.806801       266.8566 
 163   0.0000       9.868285       268.5297 
 164   0.0000       9.971365       271.3346 
 165   0.0000      10.166478       276.6439 
 166   0.0000      11.215220       305.1816 
 167   0.0000      19.127152       520.4763 
 168   0.0000      22.443184       610.7101 
 169   0.0000      43.700633      1189.1547 
 170   0.0000      65.958382      1794.8188 
 171   0.0000     126.459712      3441.1437 

                    ********************************
                    * MULLIKEN POPULATION ANALYSIS *
                    ********************************

-----------------------
MULLIKEN ATOMIC CHARGES
-----------------------
   0 C :   -0.001855
   1 O :   -0.006530
   2 H :   -0.002691
   3 H :   -0.000202
   4 H :    0.000166
   5 H :    0.000053
   6 C :   -0.168443
   7 O :   -0.474885
   8 H :    0.320849
   9 H :    0.103787
  10 H :    0.106294
  11 H :    0.123458
Sum of atomic charges:   -0.0000000

--------------------------------
MULLIKEN REDUCED ORBITAL CHARGES
--------------------------------
  0 C s       :     0.001040  s :     0.001040
      pz      :     0.000741  p :     0.000808
      px      :     0.000050
      py      :     0.000017
      dz2     :    -0.000010  d :     0.000008
      dxz     :     0.000015
      dyz     :     0.000003
      dx2y2   :     0.000000
      dxy     :    -0.000000
      f0      :    -0.000001  f :    -0.000000
      f+1     :     0.000000
      f-1     :     0.000000
      f+2     :    -0.000000
      f-2     :     0.000000
      f+3     :     0.000000
      f-3     :     0.000000
  1 O s       :     0.000419  s :     0.000419
      pz      :     0.005927  p :     0.006205
      px      :    -0.000256
      py      :     0.000533
      dz2     :    -0.000068  d :    -0.000093
      dxz     :    -0.000013
      dyz     :    -0.000008
      dx2y2   :    -0.000002
      dxy     :    -0.000003
      f0      :     0.000000  f :    -0.000000
      f+1     :    -0.000000
      f-1     :     0.000000
      f+2     :    -0.000000
      f-2     :    -0.000000
      f+3     :    -0.000000
      f-3     :    -0.000000
  2 H s       :     0.002727  s :     0.002727
      pz      :    -0.000010  p :    -0.000035
      px      :    -0.000024
      py      :    -0.000002
  3 H s       :     0.000202  s :     0.000202
      pz      :     0.000000  p :     0.000000
      px      :     0.000000
      py      :    -0.000000
  4 H s       :    -0.000167  s :    -0.000167
      pz      :     0.000000  p :     0.000000
      px      :     0.000000
      py      :     0.000000
  5 H s       :    -0.000053  s :    -0.000053
      pz      :     0.000000  p :     0.000000
      px      :     0.000000
      py      :     0.000000
  6 C s       :     3.223251  s :     3.223251
      pz      :     1.046302  p :     2.839002
      px      :     1.058898
      py      :     0.733801
      dz2     :     0.024824  d :     0.098830
      dxz     :     0.006820
      dyz     :     0.019527
      dx2y2   :     0.011943
      dxy     :     0.035717
      f0      :     0.001090  f :     0.007360
      f+1     :     0.000118
      f-1     :     0.001478
      f+2     :     0.000875
      f-2     :     0.000749
      f+3     :     0.001560
      f-3     :     0.001491
  7 O s       :     3.795010  s :     3.795010
      pz      :     1.458270  p :     4.648986
      px      :     1.745371
      py      :     1.445345
      dz2     :     0.006473  d :     0.029264
      dxz     :     0.005858
      dyz     :     0.004579
      dx2y2   :     0.008084
      dxy     :     0.004270
      f0      :     0.000127  f :     0.001625
      f+1     :     0.000547
      f-1     :     0.000130
      f+2     :     0.000327
      f-2     :     0.000126
      f+3     :     0.000177
      f-3     :     0.000190
  8 H s       :     0.633006  s :     0.633006
      pz      :     0.017667  p :     0.046145
      px      :     0.017791
      py      :     0.010686
  9 H s       :     0.875984  s :     0.875984
      pz      :     0.005418  p :     0.020229
      px      :     0.009287
      py      :     0.005524
 10 H s       :     0.874422  s :     0.874422
      pz      :     0.004124  p :     0.019284
      px      :     0.009742
      py      :     0.005419
 11 H s       :     0.855831  s :     0.855831
      pz      :     0.012795  p :     0.020710
      px      :     0.005036
      py      :     0.002879


                     *******************************
                     * LOEWDIN POPULATION ANALYSIS *
                     *******************************

----------------------
LOEWDIN ATOMIC CHARGES
----------------------
   0 C :   -0.002195
   1 O :   -0.016625
   2 H :   -0.003811
   3 H :   -0.000346
   4 H :   -0.000027
   5 H :   -0.000049
   6 C :   -0.369281
   7 O :   -0.079689
   8 H :    0.179958
   9 H :    0.092383
  10 H :    0.097833
  11 H :    0.101850

-------------------------------
LOEWDIN REDUCED ORBITAL CHARGES
-------------------------------
  0 C s       :     0.000419  s :     0.000419
      pz      :     0.001606  p :     0.001753
      px      :     0.000072
      py      :     0.000075
      dz2     :     0.000007  d :     0.000021
      dxz     :     0.000002
      dyz     :     0.000003
      dx2y2   :     0.000002
      dxy     :     0.000008
      f0      :     0.000000  f :     0.000002
      f+1     :     0.000000
      f-1     :     0.000001
      f+2     :     0.000000
      f-2     :     0.000000
      f+3     :     0.000000
      f-3     :     0.000000
  1 O s       :     0.002148  s :     0.002148
      pz      :     0.011385  p :     0.014139
      px      :     0.002066
      py      :     0.000688
      dz2     :     0.000181  d :     0.000330
      dxz     :     0.000092
      dyz     :     0.000041
      dx2y2   :     0.000007
      dxy     :     0.000010
      f0      :     0.000003  f :     0.000007
      f+1     :     0.000002
      f-1     :     0.000001
      f+2     :     0.000001
      f-2     :     0.000000
      f+3     :     0.000000
      f-3     :     0.000000
  2 H s       :     0.003785  s :     0.003785
      pz      :     0.000017  p :     0.000026
      px      :     0.000008
      py      :     0.000001
  3 H s       :     0.000345  s :     0.000345
      pz      :     0.000000  p :     0.000001
      px      :     0.000000
      py      :     0.000000
  4 H s       :     0.000025  s :     0.000025
      pz      :     0.000000  p :     0.000002
      px      :     0.000000
      py      :     0.000001
  5 H s       :     0.000047  s :     0.000047
      pz      :     0.000001  p :     0.000002
      px      :     0.000000
      py      :     0.000000
  6 C s       :     2.855813  s :     2.855813
      pz      :     1.082984  p :     3.056430
      px      :     1.103210
      py      :     0.870236
      dz2     :     0.097551  d :     0.402593
      dxz     :     0.022485
      dyz     :     0.073746
      dx2y2   :     0.072704
      dxy     :     0.136106
      f0      :     0.005070  f :     0.054444
      f+1     :     0.001215
      f-1     :     0.009644
      f+2     :     0.010121
      f-2     :     0.008434
      f+3     :     0.009183
      f-3     :     0.010779
  7 O s       :     3.378115  s :     3.378115
      pz      :     1.441774  p :     4.629711
      px      :     1.678187
      py      :     1.509750
      dz2     :     0.014474  d :     0.067564
      dxz     :     0.012234
      dyz     :     0.012707
      dx2y2   :     0.016462
      dxy     :     0.011687
      f0      :     0.000263  f :     0.004299
      f+1     :     0.000938
      f-1     :     0.000703
      f+2     :     0.000801
      f-2     :     0.000289
      f+3     :     0.000725
      f-3     :     0.000580
  8 H s       :     0.667728  s :     0.667728
      pz      :     0.067453  p :     0.152313
      px      :     0.054771
      py      :     0.030090
  9 H s       :     0.844995  s :     0.844995
      pz      :     0.017651  p :     0.062622
      px      :     0.028341
      py      :     0.016629
 10 H s       :     0.841497  s :     0.841497
      pz      :     0.014055  p :     0.060671
      px      :     0.030156
      py      :     0.016460
 11 H s       :     0.834256  s :     0.834256
      pz      :     0.038796  p :     0.063894
      px      :     0.015700
      py      :     0.009397


                      *****************************
                      * MAYER POPULATION ANALYSIS *
                      *****************************

  NA   - Mulliken gross atomic population
  ZA   - Total nuclear charge
  QA   - Mulliken gross atomic charge
  VA   - Mayer's total valence
  BVA  - Mayer's bonded valence
  FA   - Mayer's free valence

  ATOM       NA         ZA         QA         VA         BVA        FA
  0 C      0.0019     0.0000    -0.0019     0.0037     0.0037    -0.0000
  1 O      0.0065     0.0000    -0.0065     0.0130     0.0130    -0.0000
  2 H      0.0027     0.0000    -0.0027     0.0054     0.0054    -0.0000
  3 H      0.0002     0.0000    -0.0002     0.0004     0.0004    -0.0000
  4 H     -0.0002     0.0000     0.0002    -0.0003    -0.0003     0.0000
  5 H     -0.0001     0.0000     0.0001    -0.0001    -0.0001     0.0000
  6 C      6.1684     6.0000    -0.1684     3.9518     3.9518    -0.0000
  7 O      8.4749     8.0000    -0.4749     1.9031     1.9031    -0.0000
  8 H      0.6792     1.0000     0.3208     0.9063     0.9063    -0.0000
  9 H      0.8962     1.0000     0.1038     0.9474     0.9474    -0.0000
 10 H      0.8937     1.0000     0.1063     0.9651     0.9651    -0.0000
 11 H      0.8765     1.0000     0.1235     0.9558     0.9558    -0.0000

  Mayer bond orders larger than 0.1
B(  6-C ,  7-O ) :   1.0062 B(  6-C ,  9-H ) :   0.9693 B(  6-C , 10-H ) :   0.9919 
B(  6-C , 11-H ) :   0.9731 B(  7-O ,  8-H ) :   0.8945 

-------
TIMINGS
-------

Total SCF time: 0 days 0 hours 0 min 12 sec 

Total time                  ....      12.059 sec
Sum of individual times     ....      11.782 sec  ( 97.7%)

Fock matrix formation       ....      11.266 sec  ( 93.4%)
  XC integration            ....       3.886 sec  ( 34.5% of F)
    Basis function eval.    ....       0.058 sec  (  1.5% of XC)
    Density eval.           ....       0.054 sec  (  1.4% of XC)
    XC-Functional eval.     ....       0.077 sec  (  2.0% of XC)
    XC-Potential eval.      ....       0.068 sec  (  1.7% of XC)
Diagonalization             ....       0.051 sec  (  0.4%)
Density matrix formation    ....       0.004 sec  (  0.0%)
Population analysis         ....       0.023 sec  (  0.2%)
Initial guess               ....       0.096 sec  (  0.8%)
Orbital Transformation      ....       0.000 sec  (  0.0%)
Orbital Orthonormalization  ....       0.000 sec  (  0.0%)
DIIS solution               ....       0.030 sec  (  0.2%)
SOSCF solution              ....       0.025 sec  (  0.2%)
Grid generation             ....       0.285 sec  (  2.4%)


-------------------------------------------------------------------------------
                          DFT DISPERSION CORRECTION                            
                                                                               
                              DFTD3 V3.1  Rev 1                                
                              USING zero damping                               
-------------------------------------------------------------------------------
The omegaB97X-D3 functional is recognized. Fit by Chai et al.
Active option DFTDOPT                   ...         3   

molecular C6(AA) [au] = 208.715166 


            DFT-D V3
 parameters
 s6 scaling factor         :     1.0000 
 rs6 scaling factor        :     1.2810 
 s8 scaling factor         :     1.0000 
 rs8 scaling factor        :     1.0940 
 Damping factor alpha6     :    14.0000 
 Damping factor alpha8     :    16.0000 
 ad hoc parameters k1-k3   :    16.0000     1.3333    -4.0000 

 Edisp/kcal,au: -0.152145013920  -0.000242458487 
 E6   /kcal   :  -0.031766084 
 E8   /kcal   :  -0.120378930 
 % E8         :  79.121179671 

-------------------------   ----------------
Dispersion correction           -0.000242458
-------------------------   ----------------


-------------------------   --------------------
FINAL SINGLE POINT ENERGY      -115.734411923802
-------------------------   --------------------


                            ***************************************
                            *     ORCA property calculations      *
                            ***************************************

                                    ---------------------
                                    Active property flags
                                    ---------------------
   (+) Dipole Moment


------------------------------------------------------------------------------
                       ORCA ELECTRIC PROPERTIES CALCULATION
------------------------------------------------------------------------------

Dipole Moment Calculation                       ... on
Quadrupole Moment Calculation                   ... off
Polarizability Calculation                      ... off
GBWName                                         ... 12-133_DFT_B.gbw
Electron density file                           ... 12-133_DFT_B.scfp.tmp
The origin for moment calculation is the CENTER OF MASS  = (-14.974569,  2.058639 -18.944346)

-------------
DIPOLE MOMENT
-------------
                                X             Y             Z
Electronic contribution:     -0.08614       1.74125       0.47249
Nuclear contribution   :     -0.18363      -2.31933      -0.19541
                        -----------------------------------------
Total Dipole Moment    :     -0.26977      -0.57808       0.27708
                        -----------------------------------------
Magnitude (a.u.)       :      0.69550
Magnitude (Debye)      :      1.76783



--------------------
Rotational spectrum 
--------------------
 
Rotational constants in cm-1:     4.416994     0.819239     0.787651 
Rotational constants in MHz : 132418.147112 24560.161472 23613.191530 

 Dipole components along the rotational axes: 
x,y,z [a.u.] :    -0.366457    -0.591080     0.007756 
x,y,z [Debye]:    -0.931459    -1.502405     0.019713 

 
------------------------------------------------------------------------------
                      ORCA CHELPG CHARGES GENERATION
------------------------------------------------------------------------------

GBW file                           ... 12-133_DFT_B.gbw

Reading the GBW file               ... done

Grid spacing                       ...     0.300000
Point Cut-Off                      ...     2.800000
Van-der-Waals Radii                ...        COSMO
Total charge                       ...            0


Number of points X direction       ...           26
Number of points Y direction       ...           26
Number of points Z direction       ...           39
Maximum number of possible points  ...        26364
Final number of points             ...         5988


CHELPG Charges            
--------------------------------
  0   C   :       0.003843
  1   O   :      -0.002336
  2   H   :      -0.002351
  3   H   :       0.005271
  4   H   :      -0.007751
  5   H   :      -0.007898
  6   C   :       0.142992
  7   O   :      -0.612584
  8   H   :       0.403241
  9   H   :       0.017318
 10   H   :      -0.006917
 11   H   :       0.067173
--------------------------------
Total charge:    -0.000000
--------------------------------

CHELPG charges calculated...

Timings for individual parts in CHELPG calculation:
Grid generation                 ...        0.001 sec (=   0.000 min)
Potential calculation           ...        1.241 sec (=   0.021 min)
Fit to the potential            ...        0.002 sec (=   0.000 min)
------------------------------------------------------------------------------


Timings for individual modules:

Sum of individual times         ...       14.550 sec (=   0.242 min)
GTO integral calculation        ...        0.718 sec (=   0.012 min)   4.9 %
SCF iterations                  ...       12.558 sec (=   0.209 min)  86.3 %
CHELPG charge generation        ...        1.274 sec (=   0.021 min)   8.8 %



                             ****ORCA TERMINATED NORMALLY****
TOTAL RUN TIME: 0 days 0 hours 1 minutes 9 seconds 225 msec
