LAMMPS data file via vdw_self_gen.py, on 2021-08-05 13:22:30.539092

11000 atoms
5 atom types
10500 bonds
4 bond types
19500 angles
7 angle types
22500 dihedrals
4 dihedral types

-52.4332573652041702  52.4332573652041702 xlo xhi
-52.4332573652041702  52.4332573652041702 ylo yhi
-52.4332573652041702  52.4332573652041702 zlo zhi

Masses

1  1.007940
2  1.007940
3  12.011000
4  12.011000
5  14.006740

Atoms

1         0    4   -0.1530020000000000   17.2439257779340522 -38.3447859488752556 -6.7583883231708688  0 0 0
2         0    3    0.3044790000000000   18.0286126359617001 -39.3375522316486368 -5.9066281284405591  0 0 0
3         0    5   -0.4010280000000000   17.8323730726696397 -40.7538626220678495 -6.2602062388907527  0 0 0
4         0    3    0.3044790000000000   18.7375708002764192 -41.5877697117355680 -5.4495677510693055  0 0 0
5         0    4   -0.1530020000000000   18.8186990867584960 -43.0447125265352000 -5.8898992078563461  0 0 0
6         0    3    0.3044790000000000   16.4281598937751596 -41.1924743258146862 -6.2247749228644942  0 0 0
7         0    4   -0.1530020000000000   15.7413249066497087 -41.1649004914882752 -4.8620506969402157  0 0 0
8         0    1    0.0285690000000000   17.6169984131574751 -37.3305575378160412 -6.5796767047803835  0 0 0
9         0    1    0.0285690000000000   16.1790628324698318 -38.3504500688318046 -6.5095180426583346  0 0 0
10        0    1    0.0285690000000000   17.3579742654655789 -38.5571676205866751 -7.8270166947822704  0 0 0
11        0    2   -0.0517540000000000   17.8027485106063210 -39.1579701582914126 -4.8464171962170850  0 0 0
12        0    2   -0.0517540000000000   19.0889618948895041 -39.0927824446480443 -6.0448975417717179  0 0 0
13        0    2   -0.0517540000000000   18.4766591883491031 -41.5392033568550332 -4.3871258780074855  0 0 0
14        0    2   -0.0517540000000000   19.7570361427699872 -41.1873696349064815 -5.5344252924533102  0 0 0
15        0    1    0.0285690000000000   17.8757292466336253 -43.5769935304400420 -5.7301906551832609  0 0 0
16        0    1    0.0285690000000000   19.5867420358918878 -43.5621871100159055 -5.3044101729992024  0 0 0
17        0    1    0.0285690000000000   19.0942793030150106 -43.1250131457795618 -6.9456202987970288  0 0 0
18        0    2   -0.0517540000000000   16.3552605571771679 -42.2084456282193443 -6.6312149060277594  0 0 0
19        0    2   -0.0517540000000000   15.8366354706423476 -40.5902113823130506 -6.9272259672954437  0 0 0
20        0    1    0.0285690000000000   16.2486648315758906 -41.8045099389791659 -4.1352454536622867  0 0 0
21        0    1    0.0285690000000000   14.7141971978293000 -41.5331521383005580 -4.9579979162505250  0 0 0
22        0    1    0.0285690000000000   15.6889379469990438 -40.1492211393449807 -4.4576866803804531  0 0 0
23        1    4   -0.1530020000000000  -39.6533934261291989  42.8663133973743484  28.0150677509020412 0 0 0
24        1    3    0.3044790000000000  -39.4907628876431360  41.5700650000257781  28.8025353292968447 0 0 0
25        1    5   -0.4010280000000000  -40.5851424981077145  40.5983409887893458  28.6365585761475359 0 0 0
26        1    3    0.3044790000000000  -40.2416702009106118  39.3527655440177995  29.3454219696446899 0 0 0
27        1    4   -0.1530020000000000  -41.1682217540974520  38.1798201709182194  29.0473325077186821 0 0 0
28        1    3    0.3044790000000000  -41.9152875476287221  41.1284462692254564  28.9759002851791720 0 0 0
29        1    4   -0.1530020000000000  -42.1371895350456072  41.5269045755349637  30.4324408503243369 0 0 0
30        1    1    0.0285690000000000  -38.7083934619206147  43.4201606339563142  28.0180019758912948 0 0 0
31        1    1    0.0285690000000000  -40.4147112896246341  43.5156091661300053  28.4563292457084174 0 0 0
32        1    1    0.0285690000000000  -39.9195582111317648  42.6690715314926265  26.9708783130278391 0 0 0
33        1    2   -0.0517540000000000  -39.3315434854664829  41.8115989117879323  29.8625457520943662 0 0 0
34        1    2   -0.0517540000000000  -38.5627238415035833  41.1063606058300337  28.4460342860389765 0 0 0
35        1    2   -0.0517540000000000  -40.1892669338885256  39.5136282426610279  30.4273616091304753 0 0 0
36        1    2   -0.0517540000000000  -39.2378254941461861  39.0341764758317140  29.0329681030765805 0 0 0
37        1    1    0.0285690000000000  -42.1795166289997780  38.3449119529608708  29.4321043723323399 0 0 0
38        1    1    0.0285690000000000  -40.7810777583711399  37.2753579081182806  29.5295512007863294 0 0 0
39        1    1    0.0285690000000000  -41.2276070569107986  37.9847694438115440  27.9724519252515300 0 0 0
40        1    2   -0.0517540000000000  -42.6804940331975544  40.3948240740016473  28.6948967805419528 0 0 0
41        1    2   -0.0517540000000000  -42.1403636784515712  41.9936360462903693  28.3380549660804313 0 0 0
42        1    1    0.0285690000000000  -41.9940375010709630  40.6840297944400433  31.1134764624351199 0 0 0
43        1    1    0.0285690000000000  -43.1646613375538024  41.8821226106877873  30.5663375159016582 0 0 0
44        1    1    0.0285690000000000  -41.4678441316937523  42.3383793496074929  30.7346735749847895 0 0 0
45        2    4   -0.1530020000000000  -30.2997057766162605 -3.8146617255446400  -27.9266546490464194 0 0 0
46        2    3    0.3044790000000000  -29.8730818379064900 -4.4728326454293370  -29.2349424009717644 0 0 0
47        2    5   -0.4010280000000000  -29.6798184433013361 -5.9313328051049696  -29.1650202089876807 0 0 0
48        2    3    0.3044790000000000  -29.3953584996738684 -6.4498259011451617  -30.5148965618548971 0 0 0
49        2    4   -0.1530020000000000  -29.4238219085185051 -7.9696096721349541  -30.6271600024443806 0 0 0
50        2    3    0.3044790000000000  -28.7083505580945513 -6.3600335664261429  -28.1462385533545891 0 0 0
51        2    4   -0.1530020000000000  -27.2636057624817667 -5.9138264863919936  -28.3539201584070852 0 0 0
52        2    1    0.0285690000000000  -30.6336777367912951 -2.7898512014156136  -28.1216070097687911 0 0 0
53        2    1    0.0285690000000000  -29.4732701432980484 -3.7593642098942270  -27.2126182913272672 0 0 0
54        2    1    0.0285690000000000  -31.1328938426984863 -4.3527222184449634  -27.4615007163337843 0 0 0
55        2    2   -0.0517540000000000  -28.9716520042811183 -3.9704535453846641  -29.6122367686589101 0 0 0
56        2    2   -0.0517540000000000  -30.6707760375731127 -4.2664140105767805  -29.9591292147179367 0 0 0
57        2    2   -0.0517540000000000  -28.4392625901663543 -6.0715832589499481  -30.8917644553509909 0 0 0
58        2    2   -0.0517540000000000  -30.1659324775507898 -6.0795943793372134  -31.2048059568327467 0 0 0
59        2    1    0.0285690000000000  -28.6093243510516686 -8.4398828313577337  -30.0672860051064248 0 0 0
60        2    1    0.0285690000000000  -29.3072365720650119 -8.2617064860052842  -31.6767097329721032 0 0 0
61        2    1    0.0285690000000000  -30.3757541898834340 -8.3755664700192529  -30.2722463835920017 0 0 0
62        2    2   -0.0517540000000000  -28.7270234523004682 -7.4535274623079912  -28.0648267409984165 0 0 0
63        2    2   -0.0517540000000000  -29.0403498503324293 -6.0215757040654161  -27.1556417577511802 0 0 0
64        2    1    0.0285690000000000  -26.8536610461530820 -6.2814217970530013  -29.2981441379448988 0 0 0
65        2    1    0.0285690000000000  -26.6345970329693920 -6.3109912123586334  -27.5499209835660466 0 0 0
66        2    1    0.0285690000000000  -27.1717692387879488 -4.8234070811511582  -28.3336526625070739 0 0 0
67        3    4   -0.1530020000000000  -15.6179252176583461 -6.8932250962005126   27.6251702421470675 0 0 0
68        3    3    0.3044790000000000  -15.9765907072808915 -5.9630101333005303   28.7796714227661177 0 0 0
69        3    5   -0.4010280000000000  -17.2656905353148247 -6.2481936216308380   29.4326297520235478 0 0 0
70        3    3    0.3044790000000000  -17.4262468192234685 -5.3631122237641247   30.6000077186854753 0 0 0
71        3    4   -0.1530020000000000  -18.5948936576652883 -5.7228868820930892   31.5099432760323808 0 0 0
72        3    3    0.3044790000000000  -18.4174507667987797 -6.2395606171741367   28.5167563453749651 0 0 0
73        3    4   -0.1530020000000000  -18.7489615216414762 -4.9054232178748567   27.8536591043804123 0 0 0
74        3    1    0.0285690000000000  -14.5656977271242383 -6.7550864369162351   27.3540331504841419 0 0 0
75        3    1    0.0285690000000000  -16.2159354548068606 -6.6823572315670772   26.7342044227518869 0 0 0
76        3    1    0.0285690000000000  -15.7544892233421017 -7.9444522254606138   27.9014878558802160 0 0 0
77        3    2   -0.0517540000000000  -15.9302482169940873 -4.9224237195147831   28.4298945881436111 0 0 0
78        3    2   -0.0517540000000000  -15.1809305114323312 -6.0762627697694827   29.5263105077831440 0 0 0
79        3    2   -0.0517540000000000  -17.5078336613921337 -4.3146383114326179   30.2946188910489518 0 0 0
80        3    2   -0.0517540000000000  -16.5237307114120320 -5.4327145234467284   31.2224631816864644 0 0 0
81        3    1    0.0285690000000000  -19.5615720395519688 -5.5689188793855919   31.0201997018680942 0 0 0
82        3    1    0.0285690000000000  -18.5764739596253214 -5.0840457057404693   32.3998927084837405 0 0 0
83        3    1    0.0285690000000000  -18.5311164143927911 -6.7624603885616823   31.8448448358811760 0 0 0
84        3    2   -0.0517540000000000  -19.3075878015599542 -6.5942207239852531   29.0502146178605649 0 0 0
85        3    2   -0.0517540000000000  -18.2692428178222350 -6.9933305126584457   27.7319476969633136 0 0 0
86        3    1    0.0285690000000000  -18.9748256313016981 -4.1283682004471700   28.5884453387764061 0 0 0
87        3    1    0.0285690000000000  -19.6334959567360627 -5.0182266359081682   27.2175139192914273 0 0 0
88        3    1    0.0285690000000000  -17.9296146584203626 -4.5572666136666928   27.2170140741822912 0 0 0
89        4    4   -0.1530020000000000  -18.4444292216578596  6.4969992047405389  -38.4412174245013958 0 0 0
90        4    3    0.3044790000000000  -17.2345107352717761  6.3999161685408552  -39.3650604453027881 0 0 0
91        4    5   -0.4010280000000000  -17.5486782982321508  6.3823196031994147  -40.8039668604916770 0 0 0
92        4    3    0.3044790000000000  -16.2940136117979328  6.4138455020587495  -41.5764572232250984 0 0 0
93        4    4   -0.1530020000000000  -16.4775272017014771  6.6531492836682142  -43.0705162644708395 0 0 0
94        4    3    0.3044790000000000  -18.4670661055090655  5.3046596359804798  -41.2047948623812488 0 0 0
95        4    4   -0.1530020000000000  -17.9571700972390680  3.8766927629109320  -41.0303339728778766 0 0 0
96        4    1    0.0285690000000000  -18.1130212282374039  6.7290114383605468  -37.4233179359232437 0 0 0
97        4    1    0.0285690000000000  -18.9981296667621464  5.5549331444925230  -38.3984512390260804 0 0 0
98        4    1    0.0285690000000000  -19.1265500240687416  7.2934733703880861  -38.7581081674624173 0 0 0
99        4    2   -0.0517540000000000  -16.6337561220382106  5.5254988976429953  -39.0790536690996078 0 0 0
100       4    2   -0.0517540000000000  -16.6169262523172030  7.2828413721957768  -39.1591388064091319 0 0 0
101       4    2   -0.0517540000000000  -15.7087167525343929  5.5016484627170419  -41.4198033319473566 0 0 0
102       4    2   -0.0517540000000000  -15.6744217303627096  7.2435098566160612  -41.2095872631076929 0 0 0
103       4    1    0.0285690000000000  -16.9831853339598666  5.8167102938200701  -43.5631638848271834 0 0 0
104       4    1    0.0285690000000000  -15.4971828540835901  6.7657085061587479  -43.5466703442874135 0 0 0
105       4    1    0.0285690000000000  -17.0461432351575475  7.5687370975221864  -43.2584376004569080 0 0 0
106       4    2   -0.0517540000000000  -18.7560758322617609  5.4457906938422003  -42.2532512815275894 0 0 0
107       4    2   -0.0517540000000000  -19.4148653730634813  5.4070425321372486  -40.6595852172924523 0 0 0
108       4    1    0.0285690000000000  -17.0477684187835905  3.6935690775517305  -41.6084293019394593 0 0 0
109       4    1    0.0285690000000000  -18.7144311489166739  3.1679094637929182  -41.3824538516173561 0 0 0
110       4    1    0.0285690000000000  -17.7559847675406246  3.6462183021617651  -39.9794937453187487 0 0 0
111       5    4   -0.1530020000000000  -38.6755263437752603 -16.0312545108012650  6.4040346602499714  0 0 0
112       5    3    0.3044790000000000  -39.9440337299844686 -16.2010135938533644  5.5740439063532898  0 0 0
113       5    5   -0.4010280000000000  -40.9672995254350809 -17.0760908642302560  6.1712285102494162  0 0 0
114       5    3    0.3044790000000000  -42.1790108011450471 -17.0505232349492530  5.3327651545502830  0 0 0
115       5    4   -0.1530020000000000  -43.3989116762847544 -17.7105713622148109  5.9646941702052292  0 0 0
116       5    3    0.3044790000000000  -40.4890979688778643 -18.4321007212365089  6.4842952692771636  0 0 0
117       5    4   -0.1530020000000000  -40.0662294659333611 -19.2947272163346000  5.2983029881166708  0 0 0
118       5    1    0.0285690000000000  -38.0801631393665687 -15.2043859907336625  6.0020254453588144  0 0 0
119       5    1    0.0285690000000000  -38.0504757052201654 -16.9281766856261164  6.3767600759389058  0 0 0
120       5    1    0.0285690000000000  -38.9093509369058097 -15.7953720045641983  7.4479528234690342  0 0 0
121       5    2   -0.0517540000000000  -39.6703663791437577 -16.5408330064018578  4.5656092317515924  0 0 0
122       5    2   -0.0517540000000000  -40.3742672933377378 -15.1985284498813158  5.4587449589179995  0 0 0
123       5    2   -0.0517540000000000  -41.9901520174813285 -17.4932547289769929  4.3491303250891526  0 0 0
124       5    2   -0.0517540000000000  -42.4598804074071268 -16.0042806606143877  5.1502292722495051  0 0 0
125       5    1    0.0285690000000000  -43.2699461713187787 -18.7913996957602265  6.0795855111944794  0 0 0
126       5    1    0.0285690000000000  -44.2734168789581304 -17.5543697432514740  5.3233603796324864  0 0 0
127       5    1    0.0285690000000000  -43.6220573851080076 -17.2762439917809481  6.9437270577150283  0 0 0
128       5    2   -0.0517540000000000  -41.2626327685041190 -18.9684662229616094  7.0470220438546249  0 0 0
129       5    2   -0.0517540000000000  -39.6503055901298893 -18.3726083571024681  7.1906572657520833  0 0 0
130       5    1    0.0285690000000000  -40.8853575111772329 -19.4474241839751123  4.5908761099389030  0 0 0
131       5    1    0.0285690000000000  -39.7541003615434434 -20.2831308492428946  5.6524783050804954  0 0 0
132       5    1    0.0285690000000000  -39.2187106364556257 -18.8557979370039241  4.7626612055539699  0 0 0
133       6    4   -0.1530020000000000   41.5113706616312328  16.8076275793076384  31.5543517702518557 0 0 0
134       6    3    0.3044790000000000   40.8548492182463647  16.4012151706399187  30.2388205713984277 0 0 0
135       6    5   -0.4010280000000000   41.2625233570039640  17.1953117191395002  29.0672084185725375 0 0 0
136       6    3    0.3044790000000000   40.6550962201535526  16.6198833236549746  27.8540171091378745 0 0 0
137       6    4   -0.1530020000000000   41.1935810013089068  17.1890982370974967  26.5466592854802812 0 0 0
138       6    3    0.3044790000000000   41.0390161059994796  18.6422170005556005  29.2153970549743249 0 0 0
139       6    4   -0.1530020000000000   39.5877931251276820  19.0960838514065188  29.3475964244442871 0 0 0
140       6    1    0.0285690000000000   41.3286871838372178  16.0367941469113369  32.3108059129077034 0 0 0
141       6    1    0.0285690000000000   41.1023693278078923  17.7463888230804940  31.9382095922651459 0 0 0
142       6    1    0.0285690000000000   42.5960489348827167  16.9140362326912239  31.4437630247969508 0 0 0
143       6    2   -0.0517540000000000   39.7633215469670773  16.4104567723049648  30.3644926869622829 0 0 0
144       6    2   -0.0517540000000000   41.1390305393991795  15.3566294718379979  30.0614708469375707 0 0 0
145       6    2   -0.0517540000000000   39.5642274301946983  16.7138582303487482  27.8737729615769574 0 0 0
146       6    2   -0.0517540000000000   40.8705092541690647  15.5429605278376979  27.8282270911983147 0 0 0
147       6    1    0.0285690000000000   40.9244474528171978  18.2416066568344952  26.4131858133632171 0 0 0
148       6    1    0.0285690000000000   40.7671105876937432  16.6354675420405016  25.7028089634434949 0 0 0
149       6    1    0.0285690000000000   42.2820806721383420  17.0939420343523132  26.4914014300809484 0 0 0
150       6    2   -0.0517540000000000   41.4925817192762167  19.1679924814677527  28.3665485180582913 0 0 0
151       6    2   -0.0517540000000000   41.6026547338011312  19.0149201735638549  30.0811124286274811 0 0 0
152       6    1    0.0285690000000000   38.9895309753839925  18.8120446890739821  28.4780309807625081 0 0 0
153       6    1    0.0285690000000000   39.5474599232585220  20.1877891527074311  29.4273412828268803 0 0 0
154       6    1    0.0285690000000000   39.1170027223954264  18.6842301946428186  30.2457011844280999 0 0 0
155       7    4   -0.1530020000000000  -16.3751028560988416 -27.8070691618473447  3.8519663064181322  0 0 0
156       7    3    0.3044790000000000  -17.6466551798019928 -28.2142804790075417  4.5896297920006575  0 0 0
157       7    5   -0.4010280000000000  -17.4545066971764484 -28.5961324436934099  5.9991441076747689  0 0 0
158       7    3    0.3044790000000000  -18.7682080398241844 -28.8418510837907824  6.6202156417464995  0 0 0
159       7    4   -0.1530020000000000  -18.7313740076689932 -28.9984963892819110  8.1358875912932369  0 0 0
160       7    3    0.3044790000000000  -16.4885105318611771 -29.6880891039149688  6.1989748295219789  0 0 0
161       7    4   -0.1530020000000000  -16.8639516665207942 -31.0446214524694994  5.6087343077593301  0 0 0
162       7    1    0.0285690000000000  -16.6373136007107973 -27.3317910284327574  2.9005796737561194  0 0 0
163       7    1    0.0285690000000000  -15.7449279317163757 -28.6711193988638620  3.6234967373476112  0 0 0
164       7    1    0.0285690000000000  -15.7892254554748526 -27.0864306880242225  4.4329202547513695  0 0 0
165       7    2   -0.0517540000000000  -18.1479856122967895 -29.0135581661212463  4.0264828117754572  0 0 0
166       7    2   -0.0517540000000000  -18.3144977799356994 -27.3446153095059685  4.5573809997371875  0 0 0
167       7    2   -0.0517540000000000  -19.2620152381074163 -29.7110110949437107  6.1730785043531764  0 0 0
168       7    2   -0.0517540000000000  -19.4201422541612700 -27.9807581854490337  6.4193888282925160  0 0 0
169       7    1    0.0285690000000000  -18.2026391162693173 -29.9059691235475711  8.4440347306292658  0 0 0
170       7    1    0.0285690000000000  -19.7542624544249250 -29.0719886716456877  8.5215888177965571  0 0 0
171       7    1    0.0285690000000000  -18.2570442954688907 -28.1353266465559919  8.6122162449208002  0 0 0
172       7    2   -0.0517540000000000  -16.3013555264502159 -29.8147839596856841  7.2721136266823736  0 0 0
173       7    2   -0.0517540000000000  -15.5096184825552470 -29.3912170170091152  5.7993542770953406  0 0 0
174       7    1    0.0285690000000000  -17.8009103233108732 -31.4257769541054870  6.0229430298291948  0 0 0
175       7    1    0.0285690000000000  -16.0838931375901133 -31.7777097105470219  5.8408910905836979  0 0 0
176       7    1    0.0285690000000000  -16.9564138240720155 -30.9983272840525999  4.5191624665338086  0 0 0
177       8    4   -0.1530020000000000   31.3499563653094810 -18.6876746233524536 -18.1614366412243946 0 0 0
178       8    3    0.3044790000000000   30.3920065540726370 -18.2650702970570222 -17.0521343698629444 0 0 0
179       8    5   -0.4010280000000000   29.0046033317033505 -18.0249778576374062 -17.4844889552357330 0 0 0
180       8    3    0.3044790000000000   28.1674944189780376 -17.7495893902570607 -16.3032486839658581 0 0 0
181       8    4   -0.1530020000000000   26.6688702854639281 -17.7325477361767234 -16.5807216462078024 0 0 0
182       8    3    0.3044790000000000   28.8738842869994734 -17.0217806501264342 -18.5531133751297830 0 0 0
183       8    4   -0.1530020000000000   29.2894218918606910 -15.5958257492435663 -18.2016862114182238 0 0 0
184       8    1    0.0285690000000000   32.2826845137352336 -19.0571323404642321 -17.7217782512205311 0 0 0
185       8    1    0.0285690000000000   31.6060180623363820 -17.8502339660557112 -18.8164382780331252 0 0 0
186       8    1    0.0285690000000000   30.9266795894106892 -19.4948129585741086 -18.7692557815945875 0 0 0
187       8    2   -0.0517540000000000   30.8048600078495802 -17.3869839296547433 -16.5365493602993112 0 0 0
188       8    2   -0.0517540000000000   30.3871329682245275 -19.0821700947040966 -16.3202222173158660 0 0 0
189       8    2   -0.0517540000000000   28.4618350436499590 -16.8129793459247416 -15.8181285800497875 0 0 0
190       8    2   -0.0517540000000000   28.3304041105477040 -18.5440771854654578 -15.5622492345345087 0 0 0
191       8    1    0.0285690000000000   26.3773103664215434 -16.8934530458512491 -17.2202018433801562 0 0 0
192       8    1    0.0285690000000000   26.1226883628339905 -17.6264221903075473 -15.6368519506956503 0 0 0
193       8    1    0.0285690000000000   26.3422614142771465 -18.6645378041833112 -17.0515303390960931 0 0 0
194       8    2   -0.0517540000000000   27.8368824525198022 -17.0046962045502497 -18.9095411763815164 0 0 0
195       8    2   -0.0517540000000000   29.4444010500969604 -17.3457253299027272 -19.4338118102194422 0 0 0
196       8    1    0.0285690000000000   28.7045122921408122 -15.1922124987380496 -17.3711941822139089 0 0 0
197       8    1    0.0285690000000000   29.1258522229235091 -14.9398436402998520 -19.0635092272686570 0 0 0
198       8    1    0.0285690000000000   30.3511637611399721 -15.5378071729705098 -17.9424618961493891 0 0 0
199       9    4   -0.1530020000000000   38.6284623669127001 -41.9848019375923371  41.6634738357905832 0 0 0
200       9    3    0.3044790000000000   39.7814672858464249 -41.9567087828371328  40.6651731705245965 0 0 0
201       9    5   -0.4010280000000000   40.9675757313615421 -41.2015861172496685  41.1038063701274226 0 0 0
202       9    3    0.3044790000000000   42.0419340058314575 -41.3612691042598541  40.1077268753392318 0 0 0
203       9    4   -0.1530020000000000   43.4026219237083239 -40.8417727727653670  40.5569572260589126 0 0 0
204       9    3    0.3044790000000000   40.6897945446718268 -39.8010111601674481  41.4597244204078166 0 0 0
205       9    4   -0.1530020000000000   40.2054937680484201 -38.8956320827039406  40.3304496904801013 0 0 0
206       9    1    0.0285690000000000   37.8957429870389220 -42.7398531607422996  41.3588424777902759 0 0 0
207       9    1    0.0285690000000000   38.1085488643770631 -41.0238062918839574  41.7090689036233684 0 0 0
208       9    1    0.0285690000000000   38.9763497577178626 -42.2461568940663383  42.6688332633811669 0 0 0
209       9    2   -0.0517540000000000   39.4107315532804279 -41.5876555819269811  39.6989090780029201 0 0 0
210       9    2   -0.0517540000000000   40.0783254820606558 -43.0007848647071640  40.5065806839201841 0 0 0
211       9    2   -0.0517540000000000   41.7694581119823738 -40.8994137591001063  39.1529165166194986 0 0 0
212       9    2   -0.0517540000000000   42.1776800129349638 -42.4321328930087418  39.9036328384302124 0 0 0
213       9    1    0.0285690000000000   43.4108963245083643 -39.7534036286518955  40.6727421505227866 0 0 0
214       9    1    0.0285690000000000   44.1577951296764653 -41.0938784517564599  39.8042132577614538 0 0 0
215       9    1    0.0285690000000000   43.7091405105328761 -41.2990921164344016  41.5023910104865763 0 0 0
216       9    2   -0.0517540000000000   41.5879349964080234 -39.3546409751964532  41.9033490899473335 0 0 0
217       9    2   -0.0517540000000000   39.9549046724446555 -39.7672908396504852  42.2751133348419970 0 0 0
218       9    1    0.0285690000000000   40.9311769515901673 -38.8345364097469670  39.5153477690796819 0 0 0
219       9    1    0.0285690000000000   40.0562325254318452 -37.8789113123217831  40.7096678744139311 0 0 0
220       9    1    0.0285690000000000   39.2490251871281970 -39.2369535567237904  39.9223728559435429 0 0 0
221       10   4   -0.1530020000000000  -3.8953515265601393   4.0587420874903017   40.6747446342362338 0 0 0
222       10   3    0.3044790000000000  -4.3210720965232952   5.5000048021991770   40.9361591904495867 0 0 0
223       10   5   -0.4010280000000000  -5.7340504190539514   5.6738968858450960   41.3139373948284998 0 0 0
224       10   3    0.3044790000000000  -5.9756679941668587   7.0865369465473611   41.6574308074227204 0 0 0
225       10   4   -0.1530020000000000  -7.3283674930724700   7.3569013550391791   42.3057078381599041 0 0 0
226       10   3    0.3044790000000000  -6.6885090976441921   5.1278903958932620   40.3360131644331901 0 0 0
227       10   4   -0.1530020000000000  -6.7024452688200951   5.7859514635704379   38.9589578474104670 0 0 0
228       10   1    0.0285690000000000  -2.8026864851536399   4.0006588121122482   40.6248473005452482 0 0 0
229       10   1    0.0285690000000000  -4.2866825489155511   3.6868698527509984   39.7237069570791803 0 0 0
230       10   1    0.0285690000000000  -4.2270912291950822   3.3918908873353870   41.4780738787852243 0 0 0
231       10   2   -0.0517540000000000  -4.0653922448984439   6.1140531700089431   40.0615827441264187 0 0 0
232       10   2   -0.0517540000000000  -3.6974809076867898   5.8611706721509611   41.7632410931578164 0 0 0
233       10   2   -0.0517540000000000  -5.8513990930038995   7.7341930248583903   40.7831796203314383 0 0 0
234       10   2   -0.0517540000000000  -5.2194697010972622   7.4066320918483992   42.3871799752285696 0 0 0
235       10   1    0.0285690000000000  -8.1590209940413025   7.1846252819213383   41.6140737410685944 0 0 0
236       10   1    0.0285690000000000  -7.3805892100543780   8.4048881069657462   42.6210869532925187 0 0 0
237       10   1    0.0285690000000000  -7.4740375550647684   6.7342945715689257   43.1934469288368845 0 0 0
238       10   2   -0.0517540000000000  -7.7014423991859804   5.1728189682613293   40.7539282401514527 0 0 0
239       10   2   -0.0517540000000000  -6.5093705188012576   4.0519701645876802   40.2080901737807466 0 0 0
240       10   1    0.0285690000000000  -6.9448380832016490   6.8502173436519991   39.0166099629867205 0 0 0
241       10   1    0.0285690000000000  -7.4645135522279613   5.3125852842501748   38.3304812239792270 0 0 0
242       10   1    0.0285690000000000  -5.7407062521301118   5.6733925016417235   38.4488130232029448 0 0 0
243       11   4   -0.1530020000000000   4.8359176475931918  -15.9590873407209379  38.8906737226356043 0 0 0
244       11   3    0.3044790000000000   5.4747296932261280  -17.2865137616807054  39.2864919308981655 0 0 0
245       11   5   -0.4010280000000000   5.3027753665979054  -17.6642200565527610  40.6997266009964775 0 0 0
246       11   3    0.3044790000000000   5.8539260947302587  -19.0142520949325942  40.9131864061756474 0 0 0
247       11   4   -0.1530020000000000   5.5172669536697336  -19.6275237674690928  42.2673335306435618 0 0 0
248       11   3    0.3044790000000000   5.8004647829169835  -16.6608072407980004  41.6541469605147938 0 0 0
249       11   4   -0.1530020000000000   7.3026207699804546  -16.3911589533793638  41.6357860394706876 0 0 0
250       11   1    0.0285690000000000   4.8168237011749477  -15.8704494742554125  37.7990881541442434 0 0 0
251       11   1    0.0285690000000000   5.4001439683020962  -15.1063636358833548  39.2785042702042233 0 0 0
252       11   1    0.0285690000000000   3.8024924382401766  -15.8905338419803233  39.2476224347555913 0 0 0
253       11   2   -0.0517540000000000   6.5369684906310477  -17.2714648562296880  39.0058964699005202 0 0 0
254       11   2   -0.0517540000000000   4.9994141678400092  -18.0555476621709659  38.6651761968114869 0 0 0
255       11   2   -0.0517540000000000   6.9386031197166327  -19.0281608639758559  40.7631911018811550 0 0 0
256       11   2   -0.0517540000000000   5.4305361466175297  -19.6916179034558994  40.1590331580352853 0 0 0
257       11   1    0.0285690000000000   5.9977233052504308  -19.0932497102484326  43.0930059440780511 0 0 0
258       11   1    0.0285690000000000   5.8740023487068189  -20.6629824454516324  42.2994662292285710 0 0 0
259       11   1    0.0285690000000000   4.4367611836813339  -19.6420664345135663  42.4383173274110206 0 0 0
260       11   2   -0.0517540000000000   5.5112650402569070  -16.9527350301355355  42.6709296979556996 0 0 0
261       11   2   -0.0517540000000000   5.2722745674769538  -15.7106855720295151  41.4981239591656532 0 0 0
262       11   1    0.0285690000000000   7.8825416349562243  -17.2915068606855868  41.8544303684048487 0 0 0
263       11   1    0.0285690000000000   7.5545034932586068  -15.6485663865518898  42.4005852601205078 0 0 0
264       11   1    0.0285690000000000   7.6284297556746914  -15.9910601183961099  40.6705769300617774 0 0 0
265       12   4   -0.1530020000000000  -6.6866728074818660  -19.4249945333045844 -39.2554071547706585 0 0 0
266       12   3    0.3044790000000000  -5.8676479794014540  -18.9924712569231851 -40.4674037443187160 0 0 0
267       12   5   -0.4010280000000000  -5.3988370056251904  -17.5964932431113397 -40.4370026880720772 0 0 0
268       12   3    0.3044790000000000  -4.5224350793507533  -17.3520836643547476 -41.5963569650877076 0 0 0
269       12   4   -0.1530020000000000  -3.7694139638147934  -16.0276640503851553 -41.5513253984964166 0 0 0
270       12   3    0.3044790000000000  -6.4754551987034290  -16.6048050941584542 -40.2856813803875866 0 0 0
271       12   4   -0.1530020000000000  -7.4849238909625608  -16.5175168565768935 -41.4271162908089181 0 0 0