
                                 *****************
                                 * O   R   C   A *
                                 *****************

           --- An Ab Initio, DFT and Semiempirical electronic structure package ---

                  #######################################################
                  #                        -***-                        #
                  #          Department of theory and spectroscopy      #
                  #               Directorship: Frank Neese             #
                  #        Max Planck Institute fuer Kohlenforschung    #
                  #                Kaiser Wilhelm Platz 1               #
                  #                 D-45470 Muelheim/Ruhr               #
                  #                      Germany                        #
                  #                                                     #
                  #                  All rights reserved                #
                  #                        -***-                        #
                  #######################################################


                         Program Version 4.1.2  - RELEASE  -


 With contributions from (in alphabetic order):
   Daniel Aravena         : Magnetic Properties
   Michael Atanasov       : Ab Initio Ligand Field Theory
   Alexander A. Auer      : GIAO ZORA
   Ute Becker             : Parallelization
   Giovanni Bistoni       : ED, Open-shell LED
   Martin Brehm           : Molecular dynamics
   Dmytro Bykov           : SCF Hessian
   Vijay G. Chilkuri      : MRCI spin determinant printing
   Dipayan Datta          : RHF DLPNO-CCSD density
   Achintya Kumar Dutta   : EOM-CC, STEOM-CC
   Dmitry Ganyushin       : Spin-Orbit,Spin-Spin,Magnetic field MRCI
   Miquel Garcia          : C-PCM Hessian
   Yang Guo               : DLPNO-NEVPT2, CIM, IAO-localization
   Andreas Hansen         : Spin unrestricted coupled pair/coupled cluster methods
   Benjamin Helmich-Paris : CASSCF linear response (MC-RPA)
   Lee Huntington         : MR-EOM, pCC
   Robert Izsak           : Overlap fitted RIJCOSX, COSX-SCS-MP3, EOM
   Christian Kollmar      : KDIIS, OOCD, Brueckner-CCSD(T), CCSD density
   Simone Kossmann        : Meta GGA functionals, TD-DFT gradient, OOMP2, MP2 Hessian
   Martin Krupicka        : AUTO-CI
   Lucas Lang             : DCDCAS
   Dagmar Lenk            : GEPOL surface, SMD
   Dimitrios Liakos       : Extrapolation schemes; parallel MDCI
   Dimitrios Manganas     : ROCIS; embedding schemes
   Dimitrios Pantazis     : SARC Basis sets
   Taras Petrenko         : DFT Hessian,TD-DFT gradient, ASA, ECA, R-Raman, ABS, FL, XAS/XES, NRVS
   Peter Pinski           : DLPNO-MP2, DLPNO-MP2 Gradient
   Christoph Reimann      : Effective Core Potentials
   Marius Retegan         : Local ZFS, SOC
   Christoph Riplinger    : Optimizer, TS searches, QM/MM, DLPNO-CCSD(T), (RO)-DLPNO pert. Triples
   Tobias Risthaus        : Range-separated hybrids, TD-DFT gradient, RPA, STAB
   Michael Roemelt        : Restricted open shell CIS
   Masaaki Saitow         : Open-shell DLPNO
   Barbara Sandhoefer     : DKH picture change effects
   Avijit Sen             : IP-ROCIS
   Kantharuban Sivalingam : CASSCF convergence, NEVPT2, FIC-MRCI
   Bernardo de Souza      : ESD, SOC TD-DFT
   Georgi Stoychev        : AutoAux, RI-MP2 NMR
   Willem Van den Heuvel  : Paramagnetic NMR
   Boris Wezisla          : Elementary symmetry handling
   Frank Wennmohs         : Technical directorship


 We gratefully acknowledge several colleagues who have allowed us to
 interface, adapt or use parts of their codes:
   Stefan Grimme, W. Hujo, H. Kruse,             : VdW corrections, initial TS optimization,
                  C. Bannwarth                     DFT functionals, gCP, sTDA/sTD-DF
   Ed Valeev                                     : LibInt (2-el integral package), F12 methods
   Garnet Chan, S. Sharma, J. Yang, R. Olivares  : DMRG
   Ulf Ekstrom                                   : XCFun DFT Library
   Mihaly Kallay                                 : mrcc  (arbitrary order and MRCC methods)
   Andreas Klamt, Michael Diedenhofen            : otool_cosmo (COSMO solvation model)
   Jiri Pittner, Ondrej Demel                    : Mk-CCSD
   Frank Weinhold                                : gennbo (NPA and NBO analysis)
   Christopher J. Cramer and Donald G. Truhlar   : smd solvation model
   Lars Goerigk                                  : TD-DFT with DH, B97 family of functionals
   V. Asgeirsson, H. Jonsson                     : NEB implementation
   FAccTs GmbH                                   : IRC, NEB, NEB-TS, Multilevel


 Your calculation uses the libint2 library for the computation of 2-el integrals
 For citations please refer to: http://libint.valeyev.net

 This ORCA versions uses:
   CBLAS   interface :  Fast vector & matrix operations
   LAPACKE interface :  Fast linear algebra routines
   SCALAPACK package :  Parallel linear algebra routines


Your calculation utilizes the atom-pairwise dispersion correction
with the zero-damping scheme (D30)
Cite in your paper:
S.Grimme, J.Antony, S.Ehrlich and H.Krieg, J.Chem.Phys., 132, (2010), 154104 
   

XCFun DFT library Copyright 2009-2010 Ulf Ekstrom and contributors.
See http://admol.org/xcfun for more information. This is free soft-
ware; see the source code for copying conditions. There is ABSOLUTELY
NO WARRANTY; not even for MERCHANTABILITY or FITNESS FOR A PARTICULAR
PURPOSE. For details see the documentation. Scientific users of this 
library should cite U. Ekstrom, L. Visscher, R. Bast, A. J. Thorvald-
sen and K. Ruud; J.Chem.Theor.Comp. 2010, DOI: 10.1021/ct100117s
XCFun Version 0.99 
----- Orbital basis set information -----
Your calculation utilizes the basis: def2-TZVP
   F. Weigend and R. Ahlrichs, Phys. Chem. Chem. Phys. 7, 3297 (2005).

================================================================================
                                        WARNINGS
                       Please study these warnings very carefully!
================================================================================


INFO   : the flag for use of LIBINT has been found!

================================================================================
                                       INPUT FILE
================================================================================
NAME = 99.in
|  1> #Run DFT-D3 single point of the dimer
|  2> ! wB97X-D3 def2-TZVP TIGHTSCF  CHELPG PAL8
|  3> 
|  4> %base "99_charges"
|  5> 
|  6> %scf
|  7> MaxIter 1000
|  8> end
|  9> %output
| 10>   Print[ P_Mayer ] 1
| 11>   Print[ P_NatPop ] 1
| 12>   Print[ P_Hirshfeld ] 1
| 13>   Print[ P_Mulliken ] 1
| 14>   Print [ P_Loewdin ] 1
| 15> end
| 16> 
| 17> * xyz 0 1
| 18>   C                      -3.993958            -0.705394            -4.450815           
| 19>   O                      -5.159962            -0.121369            -5.009932           
| 20>   H                      -5.361612            -0.513829            -5.881007           
| 21>   H                      -4.100488            -1.583717            -3.860684           
| 22>   H                      -3.242868            -0.844641            -5.215061           
| 23>   H                      -3.585811            0.041612             -3.825818           
| 24> *
| 25> 
| 26>                          ****END OF INPUT****
================================================================================

                       ****************************
                       * Single Point Calculation *
                       ****************************

---------------------------------
CARTESIAN COORDINATES (ANGSTROEM)
---------------------------------
  C     -3.993958   -0.705394   -4.450815
  O     -5.159962   -0.121369   -5.009932
  H     -5.361612   -0.513829   -5.881007
  H     -4.100488   -1.583717   -3.860684
  H     -3.242868   -0.844641   -5.215061
  H     -3.585811    0.041612   -3.825818

----------------------------
CARTESIAN COORDINATES (A.U.)
----------------------------
  NO LB      ZA    FRAG     MASS         X           Y           Z
   0 C     6.0000    0    12.011   -7.547487   -1.333001   -8.410821
   1 O     8.0000    0    15.999   -9.750915   -0.229354   -9.467399
   2 H     1.0000    0     1.008  -10.131978   -0.970996  -11.113493
   3 H     1.0000    0     1.008   -7.748799   -2.992791   -7.295635
   4 H     1.0000    0     1.008   -6.128132   -1.596140   -9.855037
   5 H     1.0000    0     1.008   -6.776201    0.078635   -7.229748

--------------------------------
INTERNAL COORDINATES (ANGSTROEM)
--------------------------------
 C      0   0   0     0.000000000000     0.00000000     0.00000000
 O      1   0   0     1.418894762951     0.00000000     0.00000000
 H      2   1   0     0.976452369409   110.84231390     0.00000000
 H      1   2   3     1.063510474979   118.44226749   271.88801520
 H      1   2   3     1.080554424185   110.21536931    40.97390848
 H      1   2   3     1.056041281226   105.04988030   152.38498610

---------------------------
INTERNAL COORDINATES (A.U.)
---------------------------
 C      0   0   0     0.000000000000     0.00000000     0.00000000
 O      1   0   0     2.681322514833     0.00000000     0.00000000
 H      2   1   0     1.845227561002   110.84231390     0.00000000
 H      1   2   3     2.009743538267   118.44226749   271.88801520
 H      1   2   3     2.041951934506   110.21536931    40.97390848
 H      1   2   3     1.995628807633   105.04988030   152.38498610

---------------------
BASIS SET INFORMATION
---------------------
There are 3 groups of distinct atoms

 Group   1 Type C   : 11s6p2d1f contracted to 5s3p2d1f pattern {62111/411/11/1}
 Group   2 Type O   : 11s6p2d1f contracted to 5s3p2d1f pattern {62111/411/11/1}
 Group   3 Type H   : 5s1p contracted to 3s1p pattern {311/1}

Atom   0C    basis set group =>   1
Atom   1O    basis set group =>   2
Atom   2H    basis set group =>   3
Atom   3H    basis set group =>   3
Atom   4H    basis set group =>   3
Atom   5H    basis set group =>   3


           ************************************************************
           *        Program running with 8 parallel MPI-processes     *
           *              working on a common directory               *
           ************************************************************
------------------------------------------------------------------------------
                           ORCA GTO INTEGRAL CALCULATION
------------------------------------------------------------------------------

                         BASIS SET STATISTICS AND STARTUP INFO

 # of primitive gaussian shells          ...   64
 # of primitive gaussian functions       ...  124
 # of contracted shells                  ...   38
 # of contracted basis functions         ...   86
 Highest angular momentum                ...    3
 Maximum contraction depth               ...    6
 Integral package used                   ... LIBINT
 Integral threshhold            Thresh   ...  2.500e-11
 Primitive cut-off              TCut     ...  2.500e-12


------------------------------ INTEGRAL EVALUATION ----------------------------


 * One electron integrals 
 Pre-screening matrix                    ... done
 Shell pair data                         ... done (   0.000 sec)



           ************************************************************
           *        Program running with 8 parallel MPI-processes     *
           *              working on a common directory               *
           ************************************************************
-------------------------------------------------------------------------------
                                 ORCA SCF
-------------------------------------------------------------------------------

------------
SCF SETTINGS
------------
Hamiltonian:
 Density Functional     Method          .... DFT(GTOs)
 Exchange Functional    Exchange        .... WB97X-D3
 Correlation Functional Correlation     .... WB97X-D3
 Gradients option       PostSCFGGA      .... off
 Hybrid DFT is turned on
   Fraction HF Exchange ScalHFX         ....  0.195728
   Scaling of DF-GGA-X  ScalDFX         ....  0.000000
   Scaling of DF-GGA-C  ScalDFC         ....  1.000000
   Scaling of DF-LDA-C  ScalLDAC        ....  1.000000
   Perturbative correction              ....  0.000000
   Density functional embedding theory  .... OFF
 Long-range corrected/Screened/Range-Separated Hybrid DFT is turned on
   Amount of maximum screened exact exchange              ....  0.804272
   Range separation parameter mu (erf(mu*r12)/r12)        ....  0.250000


General Settings:
 Integral files         IntName         .... 99_charges
 Hartree-Fock type      HFTyp           .... RHF
 Total Charge           Charge          ....    0
 Multiplicity           Mult            ....    1
 Number of Electrons    NEL             ....   18
 Basis Dimension        Dim             ....   86
 Nuclear Repulsion      ENuc            ....     40.4937009452 Eh

Convergence Acceleration:
 DIIS                   CNVDIIS         .... on
   Start iteration      DIISMaxIt       ....    12
   Startup error        DIISStart       ....  0.200000
   # of expansion vecs  DIISMaxEq       ....     5
   Bias factor          DIISBfac        ....   1.050
   Max. coefficient     DIISMaxC        ....  10.000
 Newton-Raphson         CNVNR           .... off
 SOSCF                  CNVSOSCF        .... on
   Start iteration      SOSCFMaxIt      ....   150
   Startup grad/error   SOSCFStart      ....  0.003300
 Level Shifting         CNVShift        .... on
   Level shift para.    LevelShift      ....    0.2500
   Turn off err/grad.   ShiftErr        ....    0.0010
 Zerner damping         CNVZerner       .... off
 Static damping         CNVDamp         .... on
   Fraction old density DampFac         ....    0.7000
   Max. Damping (<1)    DampMax         ....    0.9800
   Min. Damping (>=0)   DampMin         ....    0.0000
   Turn off err/grad.   DampErr         ....    0.1000
 Fernandez-Rico         CNVRico         .... off

SCF Procedure:
 Maximum # iterations   MaxIter         ....  1000
 SCF integral mode      SCFMode         .... Direct
   Integral package                     .... LIBINT
 Reset frequency        DirectResetFreq ....    20
 Integral Threshold     Thresh          ....  2.500e-11 Eh
 Primitive CutOff       TCut            ....  2.500e-12 Eh

Convergence Tolerance:
 Convergence Check Mode ConvCheckMode   .... Total+1el-Energy
 Convergence forced     ConvForced      .... 0
 Energy Change          TolE            ....  1.000e-08 Eh
 1-El. energy change                    ....  1.000e-05 Eh
 Orbital Gradient       TolG            ....  1.000e-05
 Orbital Rotation angle TolX            ....  1.000e-05
 DIIS Error             TolErr          ....  5.000e-07


Diagonalization of the overlap matrix:
Smallest eigenvalue                        ... 1.494e-03
Time for diagonalization                   ...    0.154 sec
Threshold for overlap eigenvalues          ... 1.000e-08
Number of eigenvalues below threshold      ... 0
Time for construction of square roots      ...    0.005 sec
Total time needed                          ...    0.159 sec

-------------------
DFT GRID GENERATION
-------------------

General Integration Accuracy     IntAcc      ...  4.340
Radial Grid Type                 RadialGrid  ... Gauss-Chebyshev
Angular Grid (max. acc.)         AngularGrid ... Lebedev-110
Angular grid pruning method      GridPruning ... 3 (G Style)
Weight generation scheme         WeightScheme... Becke
Basis function cutoff            BFCut       ...    1.0000e-11
Integration weight cutoff        WCut        ...    1.0000e-14
Grids for H and He will be reduced by one unit

# of grid points (after initial pruning)     ...   6548 (   0.0 sec)
# of grid points (after weights+screening)   ...   6379 (   0.0 sec)
nearest neighbour list constructed           ...    0.0 sec
Grid point re-assignment to atoms done       ...    0.0 sec
Grid point division into batches done        ...    0.0 sec
Reduced shell lists constructed in    0.0 sec

Total number of grid points                  ...     6379
Total number of batches                      ...      103
Average number of points per batch           ...       61
Average number of grid points per atom       ...     1063
Average number of shells per batch           ...    32.36 (85.15%)
Average number of basis functions per batch  ...    74.50 (86.63%)
Average number of large shells per batch     ...    30.71 (94.92%)
Average number of large basis fcns per batch ...    70.86 (95.11%)
Maximum spatial batch extension              ...  17.85, 16.66, 19.49 au
Average spatial batch extension              ...   0.47,  0.40,  0.45 au

Time for grid setup =    0.043 sec

------------------------------
INITIAL GUESS: MODEL POTENTIAL
------------------------------
Loading Hartree-Fock densities                     ... done
Calculating cut-offs                               ... done
Setting up the integral package                    ... done
Initializing the effective Hamiltonian             ... done
Starting the Coulomb interaction                   ... done (   0.0 sec)
Reading the grid                                   ... done
Mapping shells                                     ... done
Starting the XC term evaluation                    ... done (   0.0 sec)
  promolecular density results
     # of electrons  =     18.000912816
     EX              =    -14.437594964
     EC              =     -0.575810009
     EX+EC           =    -15.013404973
Transforming the Hamiltonian                       ... done (   0.0 sec)
Diagonalizing the Hamiltonian                      ... done (   0.0 sec)
Back transforming the eigenvectors                 ... done (   0.0 sec)
Now organizing SCF variables                       ... done
                      ------------------
                      INITIAL GUESS DONE (   0.2 sec)
                      ------------------
--------------
SCF ITERATIONS
--------------
ITER       Energy         Delta-E        Max-DP      RMS-DP      [F,P]     Damp
               ***  Starting incremental Fock matrix formation  ***
  0   -115.6440474671   0.000000000000 0.03475228  0.00148405  0.2410059 0.7000
  1   -115.6817295609  -0.037682093796 0.02090250  0.00105723  0.1208537 0.7000
                               ***Turning on DIIS***
  2   -115.6992933296  -0.017563768710 0.03074093  0.00192283  0.0476037 0.0000
  3   -115.7279542106  -0.028660881057 0.01698411  0.00069943  0.0580990 0.0000
  4   -115.7325027527  -0.004548542033 0.00409497  0.00013552  0.0062135 0.0000
                      *** Initiating the SOSCF procedure ***
                           *** Shutting down DIIS ***
                      *** Re-Reading the Fockian *** 
                      *** Removing any level shift *** 
ITER      Energy       Delta-E        Grad      Rot      Max-DP    RMS-DP
  5   -115.73260032  -0.0000975716  0.000431  0.000431  0.000741  0.000047
               *** Restarting incremental Fock matrix formation ***
  6   -115.73260895  -0.0000086306  0.000141  0.000190  0.000494  0.000029
  7   -115.73260974  -0.0000007895  0.000050  0.000098  0.000248  0.000013
  8   -115.73260981  -0.0000000672  0.000022  0.000018  0.000032  0.000001
  9   -115.73260982  -0.0000000087  0.000011  0.000009  0.000018  0.000001
 10   -115.73260982  -0.0000000019  0.000003  0.000004  0.000004  0.000000
                  ***Gradient check signals convergence***
              ***Rediagonalizing the Fockian in SOSCF/NRSCF***

               *****************************************************
               *                     SUCCESS                       *
               *           SCF CONVERGED AFTER  11 CYCLES          *
               *****************************************************

Setting up the final grid:

General Integration Accuracy     IntAcc      ...  4.670
Radial Grid Type                 RadialGrid  ... Gauss-Chebyshev
Angular Grid (max. acc.)         AngularGrid ... Lebedev-302
Angular grid pruning method      GridPruning ... 3 (G Style)
Weight generation scheme         WeightScheme... Becke
Basis function cutoff            BFCut       ...    1.0000e-11
Integration weight cutoff        WCut        ...    1.0000e-14
Grids for H and He will be reduced by one unit

# of grid points (after initial pruning)     ...  26000 (   0.0 sec)
# of grid points (after weights+screening)   ...  25203 (   0.0 sec)
nearest neighbour list constructed           ...    0.0 sec
Grid point re-assignment to atoms done       ...    0.0 sec
Grid point division into batches done        ...    0.1 sec
Reduced shell lists constructed in    0.1 sec

Total number of grid points                  ...    25203
Total number of batches                      ...      397
Average number of points per batch           ...       63
Average number of grid points per atom       ...     4200
Average number of shells per batch           ...    31.29 (82.35%)
Average number of basis functions per batch  ...    71.41 (83.04%)
Average number of large shells per batch     ...    29.82 (95.30%)
Average number of large basis fcns per batch ...    68.61 (96.07%)
Maximum spatial batch extension              ...  16.20, 16.94, 13.48 au
Average spatial batch extension              ...   0.31,  0.32,  0.29 au

Final grid set up in    0.2 sec
Final integration                            ... done (   0.1 sec)
Change in XC energy                          ...     0.000155107
Integrated number of electrons               ...    18.000007314
Previous integrated no of electrons          ...    18.001974748

----------------
TOTAL SCF ENERGY
----------------

Total Energy       :         -115.73245472 Eh           -3149.24020 eV

Components:
Nuclear Repulsion  :           40.49370095 Eh            1101.88962 eV
Electronic Energy  :         -156.22615566 Eh           -4251.12982 eV
One Electron Energy:         -237.40890182 Eh           -6460.22465 eV
Two Electron Energy:           81.18274616 Eh            2209.09483 eV

Virial components:
Potential Energy   :         -231.04806272 Eh           -6287.13742 eV
Kinetic Energy     :          115.31560800 Eh            3137.89722 eV
Virial Ratio       :            2.00361483


DFT components:
N(Alpha)           :        9.000003656962 electrons
N(Beta)            :        9.000003656962 electrons
N(Total)           :       18.000007313924 electrons
E(XC)              :      -10.667926375112 Eh       
DFET-embed. en.    :        0.000000000000 Eh       

---------------
SCF CONVERGENCE
---------------

  Last Energy change         ...   -2.9230e-10  Tolerance :   1.0000e-08
  Last MAX-Density change    ...    2.2227e-06  Tolerance :   1.0000e-07
  Last RMS-Density change    ...    1.1590e-07  Tolerance :   5.0000e-09
  Last Orbital Gradient      ...    1.4194e-06  Tolerance :   1.0000e-05
  Last Orbital Rotation      ...    1.8061e-06  Tolerance :   1.0000e-05

             **** THE GBW FILE WAS UPDATED (99_charges.gbw) ****
             **** DENSITY FILE WAS UPDATED (99_charges.scfp.tmp) ****
             **** ENERGY FILE WAS UPDATED (99_charges.en.tmp) ****
----------------
ORBITAL ENERGIES
----------------

  NO   OCC          E(Eh)            E(eV) 
   0   2.0000     -19.230021      -523.2755 
   1   2.0000     -10.303478      -280.3719 
   2   2.0000      -1.128984       -30.7212 
   3   2.0000      -0.802575       -21.8392 
   4   2.0000      -0.609433       -16.5835 
   5   2.0000      -0.547468       -14.8974 
   6   2.0000      -0.525802       -14.3078 
   7   2.0000      -0.428571       -11.6620 
   8   2.0000      -0.376112       -10.2345 
   9   0.0000       0.115066         3.1311 
  10   0.0000       0.155710         4.2371 
  11   0.0000       0.203324         5.5327 
  12   0.0000       0.213948         5.8218 
  13   0.0000       0.228875         6.2280 
  14   0.0000       0.298716         8.1285 
  15   0.0000       0.318802         8.6751 
  16   0.0000       0.401573        10.9274 
  17   0.0000       0.449356        12.2276 
  18   0.0000       0.480621        13.0784 
  19   0.0000       0.547803        14.9065 
  20   0.0000       0.551850        15.0166 
  21   0.0000       0.562862        15.3163 
  22   0.0000       0.602279        16.3889 
  23   0.0000       0.632830        17.2202 
  24   0.0000       0.680059        18.5053 
  25   0.0000       0.756646        20.5894 
  26   0.0000       0.832890        22.6641 
  27   0.0000       0.861753        23.4495 
  28   0.0000       0.989059        26.9137 
  29   0.0000       1.042926        28.3795 
  30   0.0000       1.103485        30.0274 
  31   0.0000       1.377208        37.4757 
  32   0.0000       1.500103        40.8199 
  33   0.0000       1.536038        41.7977 
  34   0.0000       1.594451        43.3872 
  35   0.0000       1.633809        44.4582 
  36   0.0000       1.657433        45.1010 
  37   0.0000       1.677159        45.6378 
  38   0.0000       1.701784        46.3079 
  39   0.0000       1.780418        48.4476 
  40   0.0000       1.943823        52.8941 
  41   0.0000       1.985925        54.0398 
  42   0.0000       2.066125        56.2221 
  43   0.0000       2.119142        57.6648 
  44   0.0000       2.144395        58.3520 
  45   0.0000       2.272363        61.8341 
  46   0.0000       2.294626        62.4399 
  47   0.0000       2.360777        64.2400 
  48   0.0000       2.410896        65.6038 
  49   0.0000       2.457642        66.8758 
  50   0.0000       2.524153        68.6857 
  51   0.0000       2.612562        71.0914 
  52   0.0000       2.672694        72.7277 
  53   0.0000       2.685654        73.0804 
  54   0.0000       2.831885        77.0595 
  55   0.0000       2.876394        78.2707 
  56   0.0000       2.922456        79.5241 
  57   0.0000       2.964590        80.6706 
  58   0.0000       3.103640        84.4543 
  59   0.0000       3.192036        86.8597 
  60   0.0000       3.297361        89.7258 
  61   0.0000       3.415966        92.9532 
  62   0.0000       3.470655        94.4413 
  63   0.0000       3.543124        96.4133 
  64   0.0000       3.597206        97.8850 
  65   0.0000       3.642659        99.1218 
  66   0.0000       3.707810       100.8946 
  67   0.0000       3.961559       107.7995 
  68   0.0000       4.275548       116.3436 
  69   0.0000       4.360654       118.6594 
  70   0.0000       4.480135       121.9107 
  71   0.0000       4.567652       124.2921 
  72   0.0000       5.345573       145.4604 
  73   0.0000       5.401275       146.9762 
  74   0.0000       5.564303       151.4124 
  75   0.0000       5.826068       158.5354 
  76   0.0000       5.852327       159.2499 
  77   0.0000       5.950414       161.9190 
  78   0.0000       6.316477       171.8801 
  79   0.0000       6.524293       177.5350 
  80   0.0000       6.739379       183.3878 
  81   0.0000       6.797320       184.9645 
  82   0.0000       7.040145       191.5721 
  83   0.0000       7.193767       195.7524 
  84   0.0000      22.500700       612.2752 
  85   0.0000      43.676341      1188.4937 

                    ********************************
                    * MULLIKEN POPULATION ANALYSIS *
                    ********************************

-----------------------
MULLIKEN ATOMIC CHARGES
-----------------------
   0 C :   -0.156567
   1 O :   -0.486440
   2 H :    0.316951
   3 H :    0.103870
   4 H :    0.101052
   5 H :    0.121134
Sum of atomic charges:   -0.0000000

--------------------------------
MULLIKEN REDUCED ORBITAL CHARGES
--------------------------------
  0 C s       :     3.209982  s :     3.209982
      pz      :     1.031097  p :     2.843529
      px      :     0.786118
      py      :     1.026314
      dz2     :     0.014308  d :     0.095601
      dxz     :     0.018645
      dyz     :     0.018522
      dx2y2   :     0.022785
      dxy     :     0.021341
      f0      :     0.000175  f :     0.007456
      f+1     :     0.001424
      f-1     :     0.000264
      f+2     :     0.001589
      f-2     :     0.001212
      f+3     :     0.001879
      f-3     :     0.000913
  1 O s       :     3.795269  s :     3.795269
      pz      :     1.412042  p :     4.659748
      px      :     1.539000
      py      :     1.708707
      dz2     :     0.007094  d :     0.029771
      dxz     :     0.004005
      dyz     :     0.006846
      dx2y2   :     0.004701
      dxy     :     0.007126
      f0      :     0.000216  f :     0.001652
      f+1     :     0.000256
      f-1     :     0.000375
      f+2     :     0.000231
      f-2     :     0.000207
      f+3     :     0.000145
      f-3     :     0.000223
  2 H s       :     0.637531  s :     0.637531
      pz      :     0.017816  p :     0.045519
      px      :     0.013025
      py      :     0.014678
  3 H s       :     0.875452  s :     0.875452
      pz      :     0.007608  p :     0.020678
      px      :     0.002978
      py      :     0.010092
  4 H s       :     0.878876  s :     0.878876
      pz      :     0.007932  p :     0.020072
      px      :     0.007792
      py      :     0.004348
  5 H s       :     0.857584  s :     0.857584
      pz      :     0.007705  p :     0.021282
      px      :     0.005297
      py      :     0.008279


                     *******************************
                     * LOEWDIN POPULATION ANALYSIS *
                     *******************************

----------------------
LOEWDIN ATOMIC CHARGES
----------------------
   0 C :   -0.374435
   1 O :   -0.088086
   2 H :    0.175880
   3 H :    0.089044
   4 H :    0.095143
   5 H :    0.102453

-------------------------------
LOEWDIN REDUCED ORBITAL CHARGES
-------------------------------
  0 C s       :     2.845511  s :     2.845511
      pz      :     1.070331  p :     3.064112
      px      :     0.903918
      py      :     1.089863
      dz2     :     0.039221  d :     0.408747
      dxz     :     0.094028
      dyz     :     0.087453
      dx2y2   :     0.101360
      dxy     :     0.086686
      f0      :     0.005486  f :     0.056066
      f+1     :     0.011719
      f-1     :     0.003169
      f+2     :     0.006271
      f-2     :     0.007860
      f+3     :     0.012271
      f-3     :     0.009289
  1 O s       :     3.376406  s :     3.376406
      pz      :     1.410195  p :     4.637575
      px      :     1.550480
      py      :     1.676900
      dz2     :     0.017295  d :     0.069706
      dxz     :     0.013487
      dyz     :     0.012281
      dx2y2   :     0.011852
      dxy     :     0.014790
      f0      :     0.000435  f :     0.004398
      f+1     :     0.000609
      f-1     :     0.000966
      f+2     :     0.000594
      f-2     :     0.000559
      f+3     :     0.000644
      f-3     :     0.000591
  2 H s       :     0.673002  s :     0.673002
      pz      :     0.069299  p :     0.151118
      px      :     0.033701
      py      :     0.048117
  3 H s       :     0.845698  s :     0.845698
      pz      :     0.023040  p :     0.065257
      px      :     0.010213
      py      :     0.032004
  4 H s       :     0.842609  s :     0.842609
      pz      :     0.024325  p :     0.062247
      px      :     0.023653
      py      :     0.014269
  5 H s       :     0.832290  s :     0.832290
      pz      :     0.022903  p :     0.065257
      px      :     0.015504
      py      :     0.026850


                      *****************************
                      * MAYER POPULATION ANALYSIS *
                      *****************************

  NA   - Mulliken gross atomic population
  ZA   - Total nuclear charge
  QA   - Mulliken gross atomic charge
  VA   - Mayer's total valence
  BVA  - Mayer's bonded valence
  FA   - Mayer's free valence

  ATOM       NA         ZA         QA         VA         BVA        FA
  0 C      6.1566     6.0000    -0.1566     3.9463     3.9463    -0.0000
  1 O      8.4864     8.0000    -0.4864     1.8824     1.8824     0.0000
  2 H      0.6830     1.0000     0.3170     0.9094     0.9094    -0.0000
  3 H      0.8961     1.0000     0.1039     0.9513     0.9513    -0.0000
  4 H      0.8989     1.0000     0.1011     0.9639     0.9639     0.0000
  5 H      0.8789     1.0000     0.1211     0.9537     0.9537    -0.0000

  Mayer bond orders larger than 0.1
B(  0-C ,  1-O ) :   1.0034 B(  0-C ,  3-H ) :   0.9675 B(  0-C ,  4-H ) :   0.9859 
B(  0-C ,  5-H ) :   0.9790 B(  1-O ,  2-H ) :   0.8960 


------------------
HIRSHFELD ANALYSIS
------------------

Total integrated alpha density =      9.000987374
Total integrated beta density  =      9.000987374

  ATOM     CHARGE      SPIN    
   0 C    0.001037    0.000000
   1 O   -0.254119    0.000000
   2 H    0.161983    0.000000
   3 H    0.029816    0.000000
   4 H    0.026990    0.000000
   5 H    0.032318    0.000000

  TOTAL  -0.001975    0.000000

-------
TIMINGS
-------

Total SCF time: 0 days 0 hours 0 min 5 sec 

Total time                  ....       5.779 sec
Sum of individual times     ....       5.249 sec  ( 90.8%)

Fock matrix formation       ....       4.798 sec  ( 83.0%)
  XC integration            ....       0.602 sec  ( 12.6% of F)
    Basis function eval.    ....       0.045 sec  (  7.6% of XC)
    Density eval.           ....       0.043 sec  (  7.1% of XC)
    XC-Functional eval.     ....       0.079 sec  ( 13.2% of XC)
    XC-Potential eval.      ....       0.041 sec  (  6.9% of XC)
Diagonalization             ....       0.022 sec  (  0.4%)
Density matrix formation    ....       0.003 sec  (  0.0%)
Population analysis         ....       0.028 sec  (  0.5%)
Initial guess               ....       0.175 sec  (  3.0%)
Orbital Transformation      ....       0.000 sec  (  0.0%)
Orbital Orthonormalization  ....       0.000 sec  (  0.0%)
DIIS solution               ....       0.016 sec  (  0.3%)
SOSCF solution              ....       0.011 sec  (  0.2%)
Grid generation             ....       0.196 sec  (  3.4%)


-------------------------------------------------------------------------------
                          DFT DISPERSION CORRECTION                            
                                                                               
                              DFTD3 V3.1  Rev 1                                
                              USING zero damping                               
-------------------------------------------------------------------------------
The omegaB97X-D3 functional is recognized. Fit by Chai et al.
Active option DFTDOPT                   ...         3   

molecular C6(AA) [au] = 208.686185 


            DFT-D V3
 parameters
 s6 scaling factor         :     1.0000 
 rs6 scaling factor        :     1.2810 
 s8 scaling factor         :     1.0000 
 rs8 scaling factor        :     1.0940 
 Damping factor alpha6     :    14.0000 
 Damping factor alpha8     :    16.0000 
 ad hoc parameters k1-k3   :    16.0000     1.3333    -4.0000 

 Edisp/kcal,au: -0.156869064438  -0.000249986740 
 E6   /kcal   :  -0.031410575 
 E8   /kcal   :  -0.125458489 
 % E8         :  79.976564783 

-------------------------   ----------------
Dispersion correction           -0.000249987
-------------------------   ----------------


-------------------------   --------------------
FINAL SINGLE POINT ENERGY      -115.732704702183
-------------------------   --------------------


                            ***************************************
                            *     ORCA property calculations      *
                            ***************************************

                                    ---------------------
                                    Active property flags
                                    ---------------------
   (+) Dipole Moment


------------------------------------------------------------------------------
                       ORCA ELECTRIC PROPERTIES CALCULATION
------------------------------------------------------------------------------

Dipole Moment Calculation                       ... on
Quadrupole Moment Calculation                   ... off
Polarizability Calculation                      ... off
GBWName                                         ... 99_charges.gbw
Electron density file                           ... 99_charges.scfp.tmp
The origin for moment calculation is the CENTER OF MASS  = (-8.666411, -0.786632 -8.996603)

-------------
DIPOLE MOMENT
-------------
                                X             Y             Z
Electronic contribution:     -1.54880       0.68623      -0.57011
Nuclear contribution   :      1.91805      -1.15476       0.24082
                        -----------------------------------------
Total Dipole Moment    :      0.36925      -0.46853      -0.32928
                        -----------------------------------------
Magnitude (a.u.)       :      0.68139
Magnitude (Debye)      :      1.73195



--------------------
Rotational spectrum 
--------------------
 
Rotational constants in cm-1:     4.524207     0.823764     0.798989 
Rotational constants in MHz : 135632.314869 24695.825684 23953.079367 

 Dipole components along the rotational axes: 
x,y,z [a.u.] :    -0.332340    -0.594438     0.021991 
x,y,z [Debye]:    -0.844741    -1.510941     0.055897 

 
------------------------------------------------------------------------------
                      ORCA CHELPG CHARGES GENERATION
------------------------------------------------------------------------------

GBW file                           ... 99_charges.gbw

Reading the GBW file               ... done

Grid spacing                       ...     0.300000
Point Cut-Off                      ...     2.800000
Van-der-Waals Radii                ...        COSMO
Total charge                       ...            0


Number of points X direction       ...           25
Number of points Y direction       ...           24
Number of points Z direction       ...           25
Maximum number of possible points  ...        15000
Final number of points             ...         5902


CHELPG Charges            
--------------------------------
  0   C   :       0.122276
  1   O   :      -0.613702
  2   H   :       0.397222
  3   H   :       0.020220
  4   H   :       0.003076
  5   H   :       0.070907
--------------------------------
Total charge:    -0.000000
--------------------------------

CHELPG charges calculated...

Timings for individual parts in CHELPG calculation:
Grid generation                 ...        0.002 sec (=   0.000 min)
Potential calculation           ...        0.738 sec (=   0.012 min)
Fit to the potential            ...        0.001 sec (=   0.000 min)
------------------------------------------------------------------------------


Timings for individual modules:

Sum of individual times         ...       16.200 sec (=   0.270 min)
GTO integral calculation        ...        3.642 sec (=   0.061 min)  22.5 %
SCF iterations                  ...        9.494 sec (=   0.158 min)  58.6 %
CHELPG charge generation        ...        3.064 sec (=   0.051 min)  18.9 %
                             ****ORCA TERMINATED NORMALLY****
TOTAL RUN TIME: 0 days 0 hours 0 minutes 21 seconds 33 msec
