
                                 *****************
                                 * O   R   C   A *
                                 *****************

           --- An Ab Initio, DFT and Semiempirical electronic structure package ---

                  #######################################################
                  #                        -***-                        #
                  #          Department of theory and spectroscopy      #
                  #               Directorship: Frank Neese             #
                  #        Max Planck Institute fuer Kohlenforschung    #
                  #                Kaiser Wilhelm Platz 1               #
                  #                 D-45470 Muelheim/Ruhr               #
                  #                      Germany                        #
                  #                                                     #
                  #                  All rights reserved                #
                  #                        -***-                        #
                  #######################################################


                         Program Version 4.1.2  - RELEASE  -


 With contributions from (in alphabetic order):
   Daniel Aravena         : Magnetic Properties
   Michael Atanasov       : Ab Initio Ligand Field Theory
   Alexander A. Auer      : GIAO ZORA
   Ute Becker             : Parallelization
   Giovanni Bistoni       : ED, Open-shell LED
   Martin Brehm           : Molecular dynamics
   Dmytro Bykov           : SCF Hessian
   Vijay G. Chilkuri      : MRCI spin determinant printing
   Dipayan Datta          : RHF DLPNO-CCSD density
   Achintya Kumar Dutta   : EOM-CC, STEOM-CC
   Dmitry Ganyushin       : Spin-Orbit,Spin-Spin,Magnetic field MRCI
   Miquel Garcia          : C-PCM Hessian
   Yang Guo               : DLPNO-NEVPT2, CIM, IAO-localization
   Andreas Hansen         : Spin unrestricted coupled pair/coupled cluster methods
   Benjamin Helmich-Paris : CASSCF linear response (MC-RPA)
   Lee Huntington         : MR-EOM, pCC
   Robert Izsak           : Overlap fitted RIJCOSX, COSX-SCS-MP3, EOM
   Christian Kollmar      : KDIIS, OOCD, Brueckner-CCSD(T), CCSD density
   Simone Kossmann        : Meta GGA functionals, TD-DFT gradient, OOMP2, MP2 Hessian
   Martin Krupicka        : AUTO-CI
   Lucas Lang             : DCDCAS
   Dagmar Lenk            : GEPOL surface, SMD
   Dimitrios Liakos       : Extrapolation schemes; parallel MDCI
   Dimitrios Manganas     : ROCIS; embedding schemes
   Dimitrios Pantazis     : SARC Basis sets
   Taras Petrenko         : DFT Hessian,TD-DFT gradient, ASA, ECA, R-Raman, ABS, FL, XAS/XES, NRVS
   Peter Pinski           : DLPNO-MP2, DLPNO-MP2 Gradient
   Christoph Reimann      : Effective Core Potentials
   Marius Retegan         : Local ZFS, SOC
   Christoph Riplinger    : Optimizer, TS searches, QM/MM, DLPNO-CCSD(T), (RO)-DLPNO pert. Triples
   Tobias Risthaus        : Range-separated hybrids, TD-DFT gradient, RPA, STAB
   Michael Roemelt        : Restricted open shell CIS
   Masaaki Saitow         : Open-shell DLPNO
   Barbara Sandhoefer     : DKH picture change effects
   Avijit Sen             : IP-ROCIS
   Kantharuban Sivalingam : CASSCF convergence, NEVPT2, FIC-MRCI
   Bernardo de Souza      : ESD, SOC TD-DFT
   Georgi Stoychev        : AutoAux, RI-MP2 NMR
   Willem Van den Heuvel  : Paramagnetic NMR
   Boris Wezisla          : Elementary symmetry handling
   Frank Wennmohs         : Technical directorship


 We gratefully acknowledge several colleagues who have allowed us to
 interface, adapt or use parts of their codes:
   Stefan Grimme, W. Hujo, H. Kruse,             : VdW corrections, initial TS optimization,
                  C. Bannwarth                     DFT functionals, gCP, sTDA/sTD-DF
   Ed Valeev                                     : LibInt (2-el integral package), F12 methods
   Garnet Chan, S. Sharma, J. Yang, R. Olivares  : DMRG
   Ulf Ekstrom                                   : XCFun DFT Library
   Mihaly Kallay                                 : mrcc  (arbitrary order and MRCC methods)
   Andreas Klamt, Michael Diedenhofen            : otool_cosmo (COSMO solvation model)
   Jiri Pittner, Ondrej Demel                    : Mk-CCSD
   Frank Weinhold                                : gennbo (NPA and NBO analysis)
   Christopher J. Cramer and Donald G. Truhlar   : smd solvation model
   Lars Goerigk                                  : TD-DFT with DH, B97 family of functionals
   V. Asgeirsson, H. Jonsson                     : NEB implementation
   FAccTs GmbH                                   : IRC, NEB, NEB-TS, Multilevel


 Your calculation uses the libint2 library for the computation of 2-el integrals
 For citations please refer to: http://libint.valeyev.net

 This ORCA versions uses:
   CBLAS   interface :  Fast vector & matrix operations
   LAPACKE interface :  Fast linear algebra routines
   SCALAPACK package :  Parallel linear algebra routines


Your calculation utilizes the atom-pairwise dispersion correction
with the zero-damping scheme (D30)
Cite in your paper:
S.Grimme, J.Antony, S.Ehrlich and H.Krieg, J.Chem.Phys., 132, (2010), 154104 
   

XCFun DFT library Copyright 2009-2010 Ulf Ekstrom and contributors.
See http://admol.org/xcfun for more information. This is free soft-
ware; see the source code for copying conditions. There is ABSOLUTELY
NO WARRANTY; not even for MERCHANTABILITY or FITNESS FOR A PARTICULAR
PURPOSE. For details see the documentation. Scientific users of this 
library should cite U. Ekstrom, L. Visscher, R. Bast, A. J. Thorvald-
sen and K. Ruud; J.Chem.Theor.Comp. 2010, DOI: 10.1021/ct100117s
XCFun Version 0.99 
----- Orbital basis set information -----
Your calculation utilizes the basis: def2-TZVP
   F. Weigend and R. Ahlrichs, Phys. Chem. Chem. Phys. 7, 3297 (2005).

================================================================================
                                        WARNINGS
                       Please study these warnings very carefully!
================================================================================


INFO   : the flag for use of LIBINT has been found!

Your calculation utilizes the atom-pairwise dispersion correction
with the zero-damping scheme (D30)
Cite in your paper:
S.Grimme, J.Antony, S.Ehrlich and H.Krieg, J.Chem.Phys., 132, (2010), 154104 
   

XCFun DFT library Copyright 2009-2010 Ulf Ekstrom and contributors.
See http://admol.org/xcfun for more information. This is free soft-
ware; see the source code for copying conditions. There is ABSOLUTELY
NO WARRANTY; not even for MERCHANTABILITY or FITNESS FOR A PARTICULAR
PURPOSE. For details see the documentation. Scientific users of this 
library should cite U. Ekstrom, L. Visscher, R. Bast, A. J. Thorvald-
sen and K. Ruud; J.Chem.Theor.Comp. 2010, DOI: 10.1021/ct100117s
XCFun Version 0.99 
----- Orbital basis set information -----
Your calculation utilizes the basis: def2-TZVP
   F. Weigend and R. Ahlrichs, Phys. Chem. Chem. Phys. 7, 3297 (2005).

================================================================================
                                        WARNINGS
                       Please study these warnings very carefully!
================================================================================


WARNING: MOInp is set but Guess=PModel. MOInp will be ignored!
         To read the initial guess from a file you must also specify
         'MORead' in the simple input or 'Guess MORead' in the %scf block


INFO   : the flag for use of LIBINT has been found!

Your calculation utilizes the atom-pairwise dispersion correction
with the zero-damping scheme (D30)
Cite in your paper:
S.Grimme, J.Antony, S.Ehrlich and H.Krieg, J.Chem.Phys., 132, (2010), 154104 
   

XCFun DFT library Copyright 2009-2010 Ulf Ekstrom and contributors.
See http://admol.org/xcfun for more information. This is free soft-
ware; see the source code for copying conditions. There is ABSOLUTELY
NO WARRANTY; not even for MERCHANTABILITY or FITNESS FOR A PARTICULAR
PURPOSE. For details see the documentation. Scientific users of this 
library should cite U. Ekstrom, L. Visscher, R. Bast, A. J. Thorvald-
sen and K. Ruud; J.Chem.Theor.Comp. 2010, DOI: 10.1021/ct100117s
XCFun Version 0.99 
----- Orbital basis set information -----
Your calculation utilizes the basis: def2-TZVP
   F. Weigend and R. Ahlrichs, Phys. Chem. Chem. Phys. 7, 3297 (2005).

================================================================================
                                        WARNINGS
                       Please study these warnings very carefully!
================================================================================


WARNING: MOInp is set but Guess=PModel. MOInp will be ignored!
         To read the initial guess from a file you must also specify
         'MORead' in the simple input or 'Guess MORead' in the %scf block


INFO   : the flag for use of LIBINT has been found!

================================================================================
                                       INPUT FILE
================================================================================
NAME = 13-11.in
|  1> #Run DFT-D3 single point of the dimer
|  2> ! wB97X-D3 def2-TZVP TIGHTSCF CHELPG PMODEL PAL8
|  3> 
|  4> %base "13-11_DFT_AB"
|  5> 
|  6> %scf
|  7> MaxIter 1000
|  8> end
|  9> 
| 10> * xyz 0 1
| 11>   C                      -2.257604            -6.993449            -0.918277           
| 12>   O                      -2.080523            -8.395982            -0.827367           
| 13>   H                      -2.059170            -8.743386            0.111713            
| 14>   H                      -1.423130            -6.407729            -0.539471           
| 15>   H                      -2.370768            -6.724110            -2.003700           
| 16>   H                      -3.147931            -6.621619            -0.383193           
| 17>   C                      -1.708168            -6.745225            3.942439            
| 18>   O                      -2.101679            -5.421923            4.243975            
| 19>   H                      -1.984440            -5.247799            5.187823            
| 20>   H                      -2.537170            -7.464061            4.247987            
| 21>   H                      -1.615068            -6.857520            2.852533            
| 22>   H                      -0.770799            -7.131770            4.409028            
| 23> *
| 24> 
| 25> #Run DFT-D3 single point of the molecule with dimer basis set
| 26> $new_job
| 27> %base "13-11_DFT_A"
| 28> ! wB97X-D3 def2-TZVP TIGHTSCF CHELPG PMODEL
| 29> 
| 30> %scf
| 31> MaxIter 1000
| 32> end
| 33> 
| 34> * xyz 0 1
| 35>   C                      -2.257604            -6.993449            -0.918277           
| 36>   O                      -2.080523            -8.395982            -0.827367           
| 37>   H                      -2.059170            -8.743386            0.111713            
| 38>   H                      -1.423130            -6.407729            -0.539471           
| 39>   H                      -2.370768            -6.724110            -2.003700           
| 40>   H                      -3.147931            -6.621619            -0.383193           
| 41>   C                    : -1.708168            -6.745225            3.942439            
| 42>   O                    : -2.101679            -5.421923            4.243975            
| 43>   H                    : -1.984440            -5.247799            5.187823            
| 44>   H                    : -2.537170            -7.464061            4.247987            
| 45>   H                    : -1.615068            -6.857520            2.852533            
| 46>   H                    : -0.770799            -7.131770            4.409028            
| 47> *
| 48> 
| 49> #Run DFT-D3 single point of the particle with dimer basis set
| 50> $new_job
| 51> %base "13-11_DFT_B"
| 52> ! wB97X-D3 def2-TZVP TIGHTSCF CHELPG PMODEL
| 53> 
| 54> %scf
| 55> MaxIter 1000
| 56> end
| 57> 
| 58> * xyz 0 1
| 59>   C                    : -2.257604            -6.993449            -0.918277           
| 60>   O                    : -2.080523            -8.395982            -0.827367           
| 61>   H                    : -2.059170            -8.743386            0.111713            
| 62>   H                    : -1.423130            -6.407729            -0.539471           
| 63>   H                    : -2.370768            -6.724110            -2.003700           
| 64>   H                    : -3.147931            -6.621619            -0.383193           
| 65>   C                      -1.708168            -6.745225            3.942439            
| 66>   O                      -2.101679            -5.421923            4.243975            
| 67>   H                      -1.984440            -5.247799            5.187823            
| 68>   H                      -2.537170            -7.464061            4.247987            
| 69>   H                      -1.615068            -6.857520            2.852533            
| 70>   H                      -0.770799            -7.131770            4.409028            
| 71> *
| 72> 
| 73>                          ****END OF INPUT****
================================================================================


                 $$$$$$$$$$$$$$$$$$$$$$$$$$$$$$$$$$$$$$$$$$$$$$ 
                 $ THERE ARE  3 JOBS TO BE PROCESSED THIS RUN $
                 $$$$$$$$$$$$$$$$$$$$$$$$$$$$$$$$$$$$$$$$$$$$$$ 




                 $$$$$$$$$$$$$$$$  JOB NUMBER  1 $$$$$$$$$$$$$$


                       ****************************
                       * Single Point Calculation *
                       ****************************

---------------------------------
CARTESIAN COORDINATES (ANGSTROEM)
---------------------------------
  C     -2.257604   -6.993449   -0.918277
  O     -2.080523   -8.395982   -0.827367
  H     -2.059170   -8.743386    0.111713
  H     -1.423130   -6.407729   -0.539471
  H     -2.370768   -6.724110   -2.003700
  H     -3.147931   -6.621619   -0.383193
  C     -1.708168   -6.745225    3.942439
  O     -2.101679   -5.421923    4.243975
  H     -1.984440   -5.247799    5.187823
  H     -2.537170   -7.464061    4.247987
  H     -1.615068   -6.857520    2.852533
  H     -0.770799   -7.131770    4.409028

----------------------------
CARTESIAN COORDINATES (A.U.)
----------------------------
  NO LB      ZA    FRAG     MASS         X           Y           Z
   0 C     6.0000    0    12.011   -4.266253  -13.215703   -1.735292
   1 O     8.0000    0    15.999   -3.931619  -15.866107   -1.563497
   2 H     1.0000    0     1.008   -3.891267  -16.522605    0.211107
   3 H     1.0000    0     1.008   -2.689326  -12.108853   -1.019452
   4 H     1.0000    0     1.008   -4.480102  -12.706726   -3.786444
   5 H     1.0000    0     1.008   -5.948727  -12.513046   -0.724130
   6 C     6.0000    0    12.011   -3.227970  -12.746628    7.450130
   7 O     8.0000    0    15.999   -3.971598  -10.245950    8.019950
   8 H     1.0000    0     1.008   -3.750048   -9.916903    9.803565
   9 H     1.0000    0     1.008   -4.794556  -14.105031    8.027532
  10 H     1.0000    0     1.008   -3.052036  -12.958835    5.390506
  11 H     1.0000    0     1.008   -1.456599  -13.477092    8.331855

--------------------------------
INTERNAL COORDINATES (ANGSTROEM)
--------------------------------
 C      0   0   0     0.000000000000     0.00000000     0.00000000
 O      1   0   0     1.416587845758     0.00000000     0.00000000
 H      2   1   0     1.001507232238   113.97135363     0.00000000
 H      1   2   3     1.087616090683   114.51493629    67.01020846
 H      1   2   3     1.124051901269   108.16724810   185.61527516
 H      1   2   3     1.103292618884   113.79254801   305.41839354
 C      3   2   1     4.334779287692   132.10270955   347.52597355
 O      7   3   2     1.413118200867   126.70423588    26.70000004
 H      8   7   3     0.966909094797   110.06991478   175.16457367
 H      7   3   2     1.139003551884    83.52406844   136.02838824
 H      7   3   2     1.099623965663    23.63369604   339.13047009
 H      7   3   2     1.116146484162   106.12830934   241.16305809

---------------------------
INTERNAL COORDINATES (A.U.)
---------------------------
 C      0   0   0     0.000000000000     0.00000000     0.00000000
 O      1   0   0     2.676963073125     0.00000000     0.00000000
 H      2   1   0     1.892574390071   113.97135363     0.00000000
 H      1   2   3     2.055296550236   114.51493629    67.01020846
 H      1   2   3     2.124150253712   108.16724810   185.61527516
 H      1   2   3     2.084920895268   113.79254801   305.41839354
 C      3   2   1     8.191545704732   132.10270955   347.52597355
 O      7   3   2     2.670406394498   126.70423588    26.70000004
 H      8   7   3     1.827193385564   110.06991478   175.16457367
 H      7   3   2     2.152404778624    83.52406844   136.02838824
 H      7   3   2     2.077988145400    23.63369604   339.13047009
 H      7   3   2     2.109211180405   106.12830934   241.16305809

---------------------
BASIS SET INFORMATION
---------------------
There are 3 groups of distinct atoms

 Group   1 Type C   : 11s6p2d1f contracted to 5s3p2d1f pattern {62111/411/11/1}
 Group   2 Type O   : 11s6p2d1f contracted to 5s3p2d1f pattern {62111/411/11/1}
 Group   3 Type H   : 5s1p contracted to 3s1p pattern {311/1}

Atom   0C    basis set group =>   1
Atom   1O    basis set group =>   2
Atom   2H    basis set group =>   3
Atom   3H    basis set group =>   3
Atom   4H    basis set group =>   3
Atom   5H    basis set group =>   3
Atom   6C    basis set group =>   1
Atom   7O    basis set group =>   2
Atom   8H    basis set group =>   3
Atom   9H    basis set group =>   3
Atom  10H    basis set group =>   3
Atom  11H    basis set group =>   3


           ************************************************************
           *        Program running with 8 parallel MPI-processes     *
           *              working on a common directory               *
           ************************************************************
------------------------------------------------------------------------------
                           ORCA GTO INTEGRAL CALCULATION
------------------------------------------------------------------------------

                         BASIS SET STATISTICS AND STARTUP INFO

 # of primitive gaussian shells          ...  128
 # of primitive gaussian functions       ...  248
 # of contracted shells                  ...   76
 # of contracted basis functions         ...  172
 Highest angular momentum                ...    3
 Maximum contraction depth               ...    6
 Integral package used                   ... LIBINT
 Integral threshhold            Thresh   ...  2.500e-11
 Primitive cut-off              TCut     ...  2.500e-12


------------------------------ INTEGRAL EVALUATION ----------------------------


 * One electron integrals 
 Pre-screening matrix                    ... done
 Shell pair data                         ... done (   0.001 sec)



           ************************************************************
           *        Program running with 8 parallel MPI-processes     *
           *              working on a common directory               *
           ************************************************************
-------------------------------------------------------------------------------
                                 ORCA SCF
-------------------------------------------------------------------------------

------------
SCF SETTINGS
------------
Hamiltonian:
 Density Functional     Method          .... DFT(GTOs)
 Exchange Functional    Exchange        .... WB97X-D3
 Correlation Functional Correlation     .... WB97X-D3
 Gradients option       PostSCFGGA      .... off
 Hybrid DFT is turned on
   Fraction HF Exchange ScalHFX         ....  0.195728
   Scaling of DF-GGA-X  ScalDFX         ....  0.000000
   Scaling of DF-GGA-C  ScalDFC         ....  1.000000
   Scaling of DF-LDA-C  ScalLDAC        ....  1.000000
   Perturbative correction              ....  0.000000
   Density functional embedding theory  .... OFF
 Long-range corrected/Screened/Range-Separated Hybrid DFT is turned on
   Amount of maximum screened exact exchange              ....  0.804272
   Range separation parameter mu (erf(mu*r12)/r12)        ....  0.250000


General Settings:
 Integral files         IntName         .... 13-11_DFT_AB
 Hartree-Fock type      HFTyp           .... RHF
 Total Charge           Charge          ....    0
 Multiplicity           Mult            ....    1
 Number of Electrons    NEL             ....   36
 Basis Dimension        Dim             ....  172
 Nuclear Repulsion      ENuc            ....    112.6380531586 Eh

Convergence Acceleration:
 DIIS                   CNVDIIS         .... on
   Start iteration      DIISMaxIt       ....    12
   Startup error        DIISStart       ....  0.200000
   # of expansion vecs  DIISMaxEq       ....     5
   Bias factor          DIISBfac        ....   1.050
   Max. coefficient     DIISMaxC        ....  10.000
 Newton-Raphson         CNVNR           .... off
 SOSCF                  CNVSOSCF        .... on
   Start iteration      SOSCFMaxIt      ....   150
   Startup grad/error   SOSCFStart      ....  0.003300
 Level Shifting         CNVShift        .... on
   Level shift para.    LevelShift      ....    0.2500
   Turn off err/grad.   ShiftErr        ....    0.0010
 Zerner damping         CNVZerner       .... off
 Static damping         CNVDamp         .... on
   Fraction old density DampFac         ....    0.7000
   Max. Damping (<1)    DampMax         ....    0.9800
   Min. Damping (>=0)   DampMin         ....    0.0000
   Turn off err/grad.   DampErr         ....    0.1000
 Fernandez-Rico         CNVRico         .... off

SCF Procedure:
 Maximum # iterations   MaxIter         ....  1000
 SCF integral mode      SCFMode         .... Direct
   Integral package                     .... LIBINT
 Reset frequency        DirectResetFreq ....    20
 Integral Threshold     Thresh          ....  2.500e-11 Eh
 Primitive CutOff       TCut            ....  2.500e-12 Eh

Convergence Tolerance:
 Convergence Check Mode ConvCheckMode   .... Total+1el-Energy
 Convergence forced     ConvForced      .... 0
 Energy Change          TolE            ....  1.000e-08 Eh
 1-El. energy change                    ....  1.000e-05 Eh
 Orbital Gradient       TolG            ....  1.000e-05
 Orbital Rotation angle TolX            ....  1.000e-05
 DIIS Error             TolErr          ....  5.000e-07


Diagonalization of the overlap matrix:
Smallest eigenvalue                        ... 1.395e-03
Time for diagonalization                   ...    0.004 sec
Threshold for overlap eigenvalues          ... 1.000e-08
Number of eigenvalues below threshold      ... 0
Time for construction of square roots      ...    0.006 sec
Total time needed                          ...    0.010 sec

-------------------
DFT GRID GENERATION
-------------------

General Integration Accuracy     IntAcc      ...  4.340
Radial Grid Type                 RadialGrid  ... Gauss-Chebyshev
Angular Grid (max. acc.)         AngularGrid ... Lebedev-110
Angular grid pruning method      GridPruning ... 3 (G Style)
Weight generation scheme         WeightScheme... Becke
Basis function cutoff            BFCut       ...    1.0000e-11
Integration weight cutoff        WCut        ...    1.0000e-14
Grids for H and He will be reduced by one unit

# of grid points (after initial pruning)     ...  13096 (   0.0 sec)
# of grid points (after weights+screening)   ...  12583 (   0.0 sec)
nearest neighbour list constructed           ...    0.0 sec
Grid point re-assignment to atoms done       ...    0.0 sec
Grid point division into batches done        ...    0.0 sec
Reduced shell lists constructed in    0.0 sec

Total number of grid points                  ...    12583
Total number of batches                      ...      201
Average number of points per batch           ...       62
Average number of grid points per atom       ...     1049
Average number of shells per batch           ...    44.52 (58.58%)
Average number of basis functions per batch  ...    97.26 (56.55%)
Average number of large shells per batch     ...    35.85 (80.53%)
Average number of large basis fcns per batch ...    80.52 (82.79%)
Maximum spatial batch extension              ...  25.60, 15.05, 13.63 au
Average spatial batch extension              ...   0.49,  0.39,  0.36 au

Time for grid setup =    0.039 sec

------------------------------
INITIAL GUESS: MODEL POTENTIAL
------------------------------
Loading Hartree-Fock densities                     ... done
Calculating cut-offs                               ... done
Setting up the integral package                    ... done
Initializing the effective Hamiltonian             ... done
Starting the Coulomb interaction                   ... done (   0.0 sec)
Reading the grid                                   ... done
Mapping shells                                     ... done
Starting the XC term evaluation                    ... done (   0.0 sec)
  promolecular density results
     # of electrons  =     35.994106842
     EX              =    -28.827867387
     EC              =     -1.146402702
     EX+EC           =    -29.974270088
Transforming the Hamiltonian                       ... done (   0.0 sec)
Diagonalizing the Hamiltonian                      ... done (   0.0 sec)
Back transforming the eigenvectors                 ... done (   0.0 sec)
Now organizing SCF variables                       ... done
                      ------------------
                      INITIAL GUESS DONE (   0.1 sec)
                      ------------------
--------------
SCF ITERATIONS
--------------
ITER       Energy         Delta-E        Max-DP      RMS-DP      [F,P]     Damp
               ***  Starting incremental Fock matrix formation  ***
  0   -231.2997884885   0.000000000000 0.03691513  0.00104313  0.2575686 0.7000
  1   -231.3719929178  -0.072204429293 0.02356846  0.00073765  0.1293066 0.7000
                               ***Turning on DIIS***
  2   -231.4048613556  -0.032868437756 0.03595580  0.00132601  0.0510146 0.0000
  3   -231.4582117695  -0.053350413912 0.01808322  0.00048551  0.0616738 0.0000
  4   -231.4671436473  -0.008931877803 0.00396255  0.00009409  0.0065939 0.0000
                      *** Initiating the SOSCF procedure ***
                           *** Shutting down DIIS ***
                      *** Re-Reading the Fockian *** 
                      *** Removing any level shift *** 
ITER      Energy       Delta-E        Grad      Rot      Max-DP    RMS-DP
  5   -231.46732242  -0.0001787754  0.000447  0.000447  0.000793  0.000032
               *** Restarting incremental Fock matrix formation ***
  6   -231.46733870  -0.0000162769  0.000136  0.000194  0.000450  0.000019
  7   -231.46734022  -0.0000015171  0.000052  0.000107  0.000219  0.000009
  8   -231.46734032  -0.0000001073  0.000046  0.000028  0.000057  0.000001
  9   -231.46734036  -0.0000000333  0.000013  0.000011  0.000022  0.000001
                  ***Gradient check signals convergence***
              ***Rediagonalizing the Fockian in SOSCF/NRSCF***

               *****************************************************
               *                     SUCCESS                       *
               *           SCF CONVERGED AFTER  10 CYCLES          *
               *****************************************************

Setting up the final grid:

General Integration Accuracy     IntAcc      ...  4.670
Radial Grid Type                 RadialGrid  ... Gauss-Chebyshev
Angular Grid (max. acc.)         AngularGrid ... Lebedev-302
Angular grid pruning method      GridPruning ... 3 (G Style)
Weight generation scheme         WeightScheme... Becke
Basis function cutoff            BFCut       ...    1.0000e-11
Integration weight cutoff        WCut        ...    1.0000e-14
Grids for H and He will be reduced by one unit

# of grid points (after initial pruning)     ...  52000 (   0.0 sec)
# of grid points (after weights+screening)   ...  49452 (   0.0 sec)
nearest neighbour list constructed           ...    0.0 sec
Grid point re-assignment to atoms done       ...    0.0 sec
Grid point division into batches done        ...    0.2 sec
Reduced shell lists constructed in    0.2 sec

Total number of grid points                  ...    49452
Total number of batches                      ...      778
Average number of points per batch           ...       63
Average number of grid points per atom       ...     4121
Average number of shells per batch           ...    43.87 (57.72%)
Average number of basis functions per batch  ...    95.63 (55.60%)
Average number of large shells per batch     ...    34.99 (79.76%)
Average number of large basis fcns per batch ...    78.99 (82.60%)
Maximum spatial batch extension              ...  16.88, 15.09, 11.68 au
Average spatial batch extension              ...   0.28,  0.24,  0.23 au

Final grid set up in    0.3 sec
Final integration                            ... done (   0.1 sec)
Change in XC energy                          ...    -0.000313025
Integrated number of electrons               ...    36.000013571
Previous integrated no of electrons          ...    35.999453990

----------------
TOTAL SCF ENERGY
----------------

Total Energy       :         -231.46765339 Eh           -6298.55506 eV

Components:
Nuclear Repulsion  :          112.63805316 Eh            3065.03725 eV
Electronic Energy  :         -344.10570654 Eh           -9363.59231 eV
One Electron Energy:         -538.12025250 Eh          -14642.99651 eV
Two Electron Energy:          194.01454596 Eh            5279.40420 eV

Virial components:
Potential Energy   :         -461.70228747 Eh          -12563.55796 eV
Kinetic Energy     :          230.23463408 Eh            6265.00290 eV
Virial Ratio       :            2.00535549


DFT components:
N(Alpha)           :       18.000006785625 electrons
N(Beta)            :       18.000006785625 electrons
N(Total)           :       36.000013571250 electrons
E(XC)              :      -21.255398103239 Eh       
DFET-embed. en.    :        0.000000000000 Eh       

---------------
SCF CONVERGENCE
---------------

  Last Energy change         ...   -3.3319e-09  Tolerance :   1.0000e-08
  Last MAX-Density change    ...    5.1503e-06  Tolerance :   1.0000e-07
  Last RMS-Density change    ...    1.7119e-07  Tolerance :   5.0000e-09
  Last Orbital Gradient      ...    2.1332e-06  Tolerance :   1.0000e-05
  Last Orbital Rotation      ...    2.8209e-06  Tolerance :   1.0000e-05

             **** THE GBW FILE WAS UPDATED (13-11_DFT_AB.gbw) ****
             **** DENSITY FILE WAS UPDATED (13-11_DFT_AB.scfp.tmp) ****
             **** ENERGY FILE WAS UPDATED (13-11_DFT_AB.en.tmp) ****
----------------
ORBITAL ENERGIES
----------------

  NO   OCC          E(Eh)            E(eV) 
   0   2.0000     -19.238949      -523.5184 
   1   2.0000     -19.232297      -523.3374 
   2   2.0000     -10.327446      -281.0241 
   3   2.0000     -10.314549      -280.6731 
   4   2.0000      -1.141050       -31.0496 
   5   2.0000      -1.123606       -30.5749 
   6   2.0000      -0.798197       -21.7200 
   7   2.0000      -0.790734       -21.5170 
   8   2.0000      -0.617578       -16.8051 
   9   2.0000      -0.608087       -16.5469 
  10   2.0000      -0.538237       -14.6462 
  11   2.0000      -0.533600       -14.5200 
  12   2.0000      -0.533287       -14.5115 
  13   2.0000      -0.520948       -14.1757 
  14   2.0000      -0.440657       -11.9909 
  15   2.0000      -0.425284       -11.5726 
  16   2.0000      -0.377285       -10.2665 
  17   2.0000      -0.371261       -10.1025 
  18   0.0000       0.093207         2.5363 
  19   0.0000       0.112613         3.0643 
  20   0.0000       0.148200         4.0327 
  21   0.0000       0.157916         4.2971 
  22   0.0000       0.190777         5.1913 
  23   0.0000       0.198752         5.4083 
  24   0.0000       0.200541         5.4570 
  25   0.0000       0.212968         5.7952 
  26   0.0000       0.219083         5.9616 
  27   0.0000       0.243259         6.6194 
  28   0.0000       0.294992         8.0271 
  29   0.0000       0.308769         8.4020 
  30   0.0000       0.315663         8.5896 
  31   0.0000       0.367530        10.0010 
  32   0.0000       0.392281        10.6745 
  33   0.0000       0.408414        11.1135 
  34   0.0000       0.454596        12.3702 
  35   0.0000       0.463159        12.6032 
  36   0.0000       0.471138        12.8203 
  37   0.0000       0.489134        13.3100 
  38   0.0000       0.518615        14.1122 
  39   0.0000       0.537130        14.6161 
  40   0.0000       0.540170        14.6988 
  41   0.0000       0.555219        15.1083 
  42   0.0000       0.566363        15.4115 
  43   0.0000       0.571960        15.5638 
  44   0.0000       0.588125        16.0037 
  45   0.0000       0.595662        16.2088 
  46   0.0000       0.605412        16.4741 
  47   0.0000       0.643832        17.5196 
  48   0.0000       0.669576        18.2201 
  49   0.0000       0.710504        19.3338 
  50   0.0000       0.765625        20.8337 
  51   0.0000       0.777008        21.1435 
  52   0.0000       0.818005        22.2591 
  53   0.0000       0.843724        22.9589 
  54   0.0000       0.860956        23.4278 
  55   0.0000       0.903073        24.5739 
  56   0.0000       0.988059        26.8864 
  57   0.0000       0.998959        27.1831 
  58   0.0000       1.021890        27.8070 
  59   0.0000       1.063718        28.9452 
  60   0.0000       1.103023        30.0148 
  61   0.0000       1.117778        30.4163 
  62   0.0000       1.374971        37.4149 
  63   0.0000       1.388807        37.7914 
  64   0.0000       1.502428        40.8831 
  65   0.0000       1.526613        41.5413 
  66   0.0000       1.552884        42.2561 
  67   0.0000       1.568647        42.6851 
  68   0.0000       1.584086        43.1052 
  69   0.0000       1.593278        43.3553 
  70   0.0000       1.610336        43.8195 
  71   0.0000       1.620110        44.0854 
  72   0.0000       1.621570        44.1252 
  73   0.0000       1.633054        44.4377 
  74   0.0000       1.664759        45.3004 
  75   0.0000       1.675762        45.5998 
  76   0.0000       1.683851        45.8199 
  77   0.0000       1.698102        46.2077 
  78   0.0000       1.765219        48.0340 
  79   0.0000       1.777809        48.3766 
  80   0.0000       1.933598        52.6159 
  81   0.0000       1.955805        53.2201 
  82   0.0000       2.010097        54.6975 
  83   0.0000       2.013125        54.7799 
  84   0.0000       2.049979        55.7828 
  85   0.0000       2.060794        56.0771 
  86   0.0000       2.081473        56.6398 
  87   0.0000       2.093920        56.9785 
  88   0.0000       2.102454        57.2107 
  89   0.0000       2.137850        58.1739 
  90   0.0000       2.254208        61.3401 
  91   0.0000       2.261710        61.5443 
  92   0.0000       2.309455        62.8435 
  93   0.0000       2.326483        63.3068 
  94   0.0000       2.341476        63.7148 
  95   0.0000       2.349313        63.9280 
  96   0.0000       2.381038        64.7913 
  97   0.0000       2.387715        64.9730 
  98   0.0000       2.432483        66.1912 
  99   0.0000       2.467505        67.1442 
 100   0.0000       2.481653        67.5292 
 101   0.0000       2.512804        68.3769 
 102   0.0000       2.556669        69.5705 
 103   0.0000       2.574167        70.0466 
 104   0.0000       2.618633        71.2566 
 105   0.0000       2.635935        71.7274 
 106   0.0000       2.678670        72.8903 
 107   0.0000       2.685422        73.0740 
 108   0.0000       2.796718        76.1026 
 109   0.0000       2.843426        77.3736 
 110   0.0000       2.861392        77.8624 
 111   0.0000       2.874949        78.2313 
 112   0.0000       2.885410        78.5160 
 113   0.0000       2.895383        78.7874 
 114   0.0000       2.979645        81.0803 
 115   0.0000       3.008561        81.8671 
 116   0.0000       3.083173        83.8974 
 117   0.0000       3.092117        84.1408 
 118   0.0000       3.142246        85.5049 
 119   0.0000       3.151555        85.7582 
 120   0.0000       3.251594        88.4804 
 121   0.0000       3.258063        88.6564 
 122   0.0000       3.342072        90.9424 
 123   0.0000       3.369035        91.6761 
 124   0.0000       3.408030        92.7372 
 125   0.0000       3.467146        94.3458 
 126   0.0000       3.514188        95.6259 
 127   0.0000       3.521238        95.8178 
 128   0.0000       3.576523        97.3221 
 129   0.0000       3.577604        97.3515 
 130   0.0000       3.635789        98.9349 
 131   0.0000       3.653775        99.4243 
 132   0.0000       3.668075        99.8134 
 133   0.0000       3.682667       100.2105 
 134   0.0000       3.941945       107.2658 
 135   0.0000       3.985100       108.4401 
 136   0.0000       4.189545       114.0033 
 137   0.0000       4.226586       115.0113 
 138   0.0000       4.232123       115.1619 
 139   0.0000       4.259630       115.9104 
 140   0.0000       4.372278       118.9757 
 141   0.0000       4.410218       120.0081 
 142   0.0000       4.564888       124.2169 
 143   0.0000       4.572442       124.4225 
 144   0.0000       5.326973       144.9543 
 145   0.0000       5.331838       145.0867 
 146   0.0000       5.378998       146.3700 
 147   0.0000       5.400978       146.9681 
 148   0.0000       5.538471       150.7095 
 149   0.0000       5.546078       150.9165 
 150   0.0000       5.812840       158.1754 
 151   0.0000       5.819322       158.3518 
 152   0.0000       5.824876       158.5029 
 153   0.0000       5.852773       159.2621 
 154   0.0000       5.934941       161.4980 
 155   0.0000       5.962418       162.2456 
 156   0.0000       6.267601       170.5501 
 157   0.0000       6.343139       172.6056 
 158   0.0000       6.511583       177.1892 
 159   0.0000       6.515887       177.3063 
 160   0.0000       6.699003       182.2891 
 161   0.0000       6.731261       183.1669 
 162   0.0000       6.799296       185.0182 
 163   0.0000       6.799536       185.0248 
 164   0.0000       7.028448       191.2538 
 165   0.0000       7.039000       191.5409 
 166   0.0000       7.180162       195.3821 
 167   0.0000       7.192275       195.7118 
 168   0.0000      22.306160       606.9815 
 169   0.0000      22.362378       608.5113 
 170   0.0000      43.651591      1187.8202 
 171   0.0000      43.710472      1189.4224 

                    ********************************
                    * MULLIKEN POPULATION ANALYSIS *
                    ********************************

-----------------------
MULLIKEN ATOMIC CHARGES
-----------------------
   0 C :   -0.163259
   1 O :   -0.488408
   2 H :    0.317337
   3 H :    0.106344
   4 H :    0.122735
   5 H :    0.105135
   6 C :   -0.169324
   7 O :   -0.469841
   8 H :    0.318925
   9 H :    0.100474
  10 H :    0.113093
  11 H :    0.106789
Sum of atomic charges:    0.0000000

--------------------------------
MULLIKEN REDUCED ORBITAL CHARGES
--------------------------------
  0 C s       :     3.224952  s :     3.224952
      pz      :     1.089570  p :     2.834449
      px      :     1.053443
      py      :     0.691436
      dz2     :     0.012318  d :     0.096408
      dxz     :     0.005176
      dyz     :     0.030470
      dx2y2   :     0.011302
      dxy     :     0.037141
      f0      :     0.001244  f :     0.007449
      f+1     :     0.000190
      f-1     :     0.000626
      f+2     :     0.001185
      f-2     :     0.000016
      f+3     :     0.002361
      f-3     :     0.001828
  1 O s       :     3.790879  s :     3.790879
      pz      :     1.425786  p :     4.667066
      px      :     1.901526
      py      :     1.339753
      dz2     :     0.010868  d :     0.028826
      dxz     :     0.001229
      dyz     :     0.005936
      dx2y2   :     0.006609
      dxy     :     0.004185
      f0      :     0.000314  f :     0.001637
      f+1     :     0.000045
      f-1     :     0.000322
      f+2     :     0.000232
      f-2     :     0.000042
      f+3     :     0.000283
      f-3     :     0.000398
  2 H s       :     0.639432  s :     0.639432
      pz      :     0.016436  p :     0.043231
      px      :     0.015569
      py      :     0.011226
  3 H s       :     0.874068  s :     0.874068
      pz      :     0.005160  p :     0.019588
      px      :     0.008857
      py      :     0.005571
  4 H s       :     0.858100  s :     0.858100
      pz      :     0.012046  p :     0.019166
      px      :     0.004151
      py      :     0.002968
  5 H s       :     0.875700  s :     0.875700
      pz      :     0.005834  p :     0.019165
      px      :     0.009592
      py      :     0.003740
  6 C s       :     3.232095  s :     3.232095
      pz      :     1.066971  p :     2.830901
      px      :     1.030387
      py      :     0.733543
      dz2     :     0.018804  d :     0.098649
      dxz     :     0.006447
      dyz     :     0.022267
      dx2y2   :     0.015665
      dxy     :     0.035467
      f0      :     0.001273  f :     0.007679
      f+1     :     0.000154
      f-1     :     0.000887
      f+2     :     0.000783
      f-2     :     0.000542
      f+3     :     0.001712
      f-3     :     0.002328
  7 O s       :     3.792644  s :     3.792644
      pz      :     1.380474  p :     4.645622
      px      :     1.848820
      py      :     1.416327
      dz2     :     0.012449  d :     0.029926
      dxz     :     0.001955
      dyz     :     0.003678
      dx2y2   :     0.006139
      dxy     :     0.005705
      f0      :     0.000509  f :     0.001650
      f+1     :     0.000119
      f-1     :     0.000182
      f+2     :     0.000171
      f-2     :     0.000083
      f+3     :     0.000308
      f-3     :     0.000277
  8 H s       :     0.634375  s :     0.634375
      pz      :     0.018372  p :     0.046700
      px      :     0.016462
      py      :     0.011866
  9 H s       :     0.881304  s :     0.881304
      pz      :     0.004065  p :     0.018223
      px      :     0.007972
      py      :     0.006185
 10 H s       :     0.866869  s :     0.866869
      pz      :     0.012775  p :     0.020038
      px      :     0.004362
      py      :     0.002900
 11 H s       :     0.874368  s :     0.874368
      pz      :     0.005056  p :     0.018843
      px      :     0.010047
      py      :     0.003740


                     *******************************
                     * LOEWDIN POPULATION ANALYSIS *
                     *******************************

----------------------
LOEWDIN ATOMIC CHARGES
----------------------
   0 C :   -0.393048
   1 O :   -0.099361
   2 H :    0.188538
   3 H :    0.091176
   4 H :    0.116445
   5 H :    0.095590
   6 C :   -0.400023
   7 O :   -0.076862
   8 H :    0.173729
   9 H :    0.100728
  10 H :    0.105179
  11 H :    0.097909

-------------------------------
LOEWDIN REDUCED ORBITAL CHARGES
-------------------------------
  0 C s       :     2.868852  s :     2.868852
      pz      :     1.110165  p :     3.057508
      px      :     1.104073
      py      :     0.843271
      dz2     :     0.065537  d :     0.411627
      dxz     :     0.024765
      dyz     :     0.087372
      dx2y2   :     0.085144
      dxy     :     0.148809
      f0      :     0.006584  f :     0.055061
      f+1     :     0.001039
      f-1     :     0.007431
      f+2     :     0.008808
      f-2     :     0.004025
      f+3     :     0.014571
      f-3     :     0.012604
  1 O s       :     3.383268  s :     3.383268
      pz      :     1.434563  p :     4.643199
      px      :     1.800791
      py      :     1.407845
      dz2     :     0.019342  d :     0.068718
      dxz     :     0.000839
      dyz     :     0.020062
      dx2y2   :     0.014977
      dxy     :     0.013498
      f0      :     0.001017  f :     0.004175
      f+1     :     0.000061
      f-1     :     0.000719
      f+2     :     0.000597
      f-2     :     0.000046
      f+3     :     0.000906
      f-3     :     0.000829
  2 H s       :     0.670399  s :     0.670399
      pz      :     0.073577  p :     0.141063
      px      :     0.039769
      py      :     0.027718
  3 H s       :     0.847085  s :     0.847085
      pz      :     0.016827  p :     0.061740
      px      :     0.028044
      py      :     0.016869
  4 H s       :     0.828867  s :     0.828867
      pz      :     0.034484  p :     0.054688
      px      :     0.012000
      py      :     0.008204
  5 H s       :     0.845212  s :     0.845212
      pz      :     0.018314  p :     0.059198
      px      :     0.029377
      py      :     0.011507
  6 C s       :     2.876186  s :     2.876186
      pz      :     1.097763  p :     3.054153
      px      :     1.086059
      py      :     0.870331
      dz2     :     0.087693  d :     0.414134
      dxz     :     0.022615
      dyz     :     0.067711
      dx2y2   :     0.086860
      dxy     :     0.149255
      f0      :     0.006109  f :     0.055550
      f+1     :     0.001106
      f-1     :     0.008079
      f+2     :     0.007888
      f-2     :     0.007137
      f+3     :     0.011580
      f-3     :     0.013650
  7 O s       :     3.370285  s :     3.370285
      pz      :     1.392219  p :     4.631703
      px      :     1.763765
      py      :     1.475718
      dz2     :     0.024713  d :     0.070387
      dxz     :     0.002647
      dyz     :     0.013956
      dx2y2   :     0.014737
      dxy     :     0.014334
      f0      :     0.001342  f :     0.004487
      f+1     :     0.000231
      f-1     :     0.000539
      f+2     :     0.000483
      f-2     :     0.000272
      f+3     :     0.000803
      f-3     :     0.000818
  8 H s       :     0.671243  s :     0.671243
      pz      :     0.079368  p :     0.155028
      px      :     0.044849
      py      :     0.030810
  9 H s       :     0.845764  s :     0.845764
      pz      :     0.012608  p :     0.053507
      px      :     0.023460
      py      :     0.017439
 10 H s       :     0.836174  s :     0.836174
      pz      :     0.037101  p :     0.058647
      px      :     0.013009
      py      :     0.008537
 11 H s       :     0.844315  s :     0.844315
      pz      :     0.015870  p :     0.057776
      px      :     0.030221
      py      :     0.011684


                      *****************************
                      * MAYER POPULATION ANALYSIS *
                      *****************************

  NA   - Mulliken gross atomic population
  ZA   - Total nuclear charge
  QA   - Mulliken gross atomic charge
  VA   - Mayer's total valence
  BVA  - Mayer's bonded valence
  FA   - Mayer's free valence

  ATOM       NA         ZA         QA         VA         BVA        FA
  0 C      6.1633     6.0000    -0.1633     3.9280     3.9280    -0.0000
  1 O      8.4884     8.0000    -0.4884     1.8781     1.8781    -0.0000
  2 H      0.6827     1.0000     0.3173     0.9094     0.9094    -0.0000
  3 H      0.8937     1.0000     0.1063     0.9531     0.9531    -0.0000
  4 H      0.8773     1.0000     0.1227     0.9604     0.9604     0.0000
  5 H      0.8949     1.0000     0.1051     0.9587     0.9587    -0.0000
  6 C      6.1693     6.0000    -0.1693     3.9427     3.9427     0.0000
  7 O      8.4698     8.0000    -0.4698     1.8989     1.8989    -0.0000
  8 H      0.6811     1.0000     0.3189     0.9103     0.9103     0.0000
  9 H      0.8995     1.0000     0.1005     0.9579     0.9579     0.0000
 10 H      0.8869     1.0000     0.1131     0.9539     0.9539     0.0000
 11 H      0.8932     1.0000     0.1068     0.9566     0.9566     0.0000

  Mayer bond orders larger than 0.1
B(  0-C ,  1-O ) :   0.9957 B(  0-C ,  3-H ) :   0.9715 B(  0-C ,  4-H ) :   0.9722 
B(  0-C ,  5-H ) :   0.9746 B(  1-O ,  2-H ) :   0.8891 B(  6-C ,  7-O ) :   1.0128 
B(  6-C ,  9-H ) :   0.9775 B(  6-C , 10-H ) :   0.9729 B(  6-C , 11-H ) :   0.9673 
B(  7-O ,  8-H ) :   0.8947 

-------
TIMINGS
-------

Total SCF time: 0 days 0 hours 0 min 17 sec 

Total time                  ....      17.197 sec
Sum of individual times     ....      16.463 sec  ( 95.7%)

Fock matrix formation       ....      15.398 sec  ( 89.5%)
  XC integration            ....       7.094 sec  ( 46.1% of F)
    Basis function eval.    ....       0.055 sec  (  0.8% of XC)
    Density eval.           ....       0.152 sec  (  2.1% of XC)
    XC-Functional eval.     ....       0.146 sec  (  2.1% of XC)
    XC-Potential eval.      ....       0.057 sec  (  0.8% of XC)
Diagonalization             ....       0.282 sec  (  1.6%)
Density matrix formation    ....       0.006 sec  (  0.0%)
Population analysis         ....       0.066 sec  (  0.4%)
Initial guess               ....       0.091 sec  (  0.5%)
Orbital Transformation      ....       0.000 sec  (  0.0%)
Orbital Orthonormalization  ....       0.000 sec  (  0.0%)
DIIS solution               ....       0.164 sec  (  1.0%)
SOSCF solution              ....       0.143 sec  (  0.8%)
Grid generation             ....       0.313 sec  (  1.8%)


-------------------------------------------------------------------------------
                          DFT DISPERSION CORRECTION                            
                                                                               
                              DFTD3 V3.1  Rev 1                                
                              USING zero damping                               
-------------------------------------------------------------------------------
The omegaB97X-D3 functional is recognized. Fit by Chai et al.
Active option DFTDOPT                   ...         3   

molecular C6(AA) [au] = 835.419496 


            DFT-D V3
 parameters
 s6 scaling factor         :     1.0000 
 rs6 scaling factor        :     1.2810 
 s8 scaling factor         :     1.0000 
 rs8 scaling factor        :     1.0940 
 Damping factor alpha6     :    14.0000 
 Damping factor alpha8     :    16.0000 
 ad hoc parameters k1-k3   :    16.0000     1.3333    -4.0000 

 Edisp/kcal,au: -0.647146637501  -0.001031293702 
 E6   /kcal   :  -0.308180487 
 E8   /kcal   :  -0.338966150 
 % E8         :  52.378569313 

-------------------------   ----------------
Dispersion correction           -0.001031294
-------------------------   ----------------


-------------------------   --------------------
FINAL SINGLE POINT ENERGY      -231.468684678906
-------------------------   --------------------


                            ***************************************
                            *     ORCA property calculations      *
                            ***************************************

                                    ---------------------
                                    Active property flags
                                    ---------------------
   (+) Dipole Moment


------------------------------------------------------------------------------
                       ORCA ELECTRIC PROPERTIES CALCULATION
------------------------------------------------------------------------------

Dipole Moment Calculation                       ... on
Quadrupole Moment Calculation                   ... off
Polarizability Calculation                      ... off
GBWName                                         ... 13-11_DFT_AB.gbw
Electron density file                           ... 13-11_DFT_AB.scfp.tmp
The origin for moment calculation is the CENTER OF MASS  = (-3.850569, -13.025777  3.095658)

-------------
DIPOLE MOMENT
-------------
                                X             Y             Z
Electronic contribution:     -0.18495       0.02985       0.32622
Nuclear contribution   :      0.36674      -0.05155       0.73151
                        -----------------------------------------
Total Dipole Moment    :      0.18179      -0.02170       1.05773
                        -----------------------------------------
Magnitude (a.u.)       :      1.07346
Magnitude (Debye)      :      2.72852



--------------------
Rotational spectrum 
--------------------
 
Rotational constants in cm-1:     0.469759     0.037212     0.034983 
Rotational constants in MHz : 14083.032591  1115.579259  1048.755992 

 Dipole components along the rotational axes: 
x,y,z [a.u.] :     0.996111    -0.396719    -0.051889 
x,y,z [Debye]:     2.531912    -1.008378    -0.131892 

 
------------------------------------------------------------------------------
                      ORCA CHELPG CHARGES GENERATION
------------------------------------------------------------------------------

GBW file                           ... 13-11_DFT_AB.gbw

Reading the GBW file               ... done

Grid spacing                       ...     0.300000
Point Cut-Off                      ...     2.800000
Van-der-Waals Radii                ...        COSMO
Total charge                       ...            0


Number of points X direction       ...           26
Number of points Y direction       ...           30
Number of points Z direction       ...           42
Maximum number of possible points  ...        32760
Final number of points             ...        10995


CHELPG Charges            
--------------------------------
  0   C   :       0.077504
  1   O   :      -0.594030
  2   H   :       0.378882
  3   H   :       0.027126
  4   H   :       0.074785
  5   H   :       0.030164
  6   C   :       0.073725
  7   O   :      -0.607669
  8   H   :       0.410486
  9   H   :       0.019926
 10   H   :       0.092397
 11   H   :       0.016703
--------------------------------
Total charge:     0.000000
--------------------------------

CHELPG charges calculated...

Timings for individual parts in CHELPG calculation:
Grid generation                 ...        0.001 sec (=   0.000 min)
Potential calculation           ...        2.114 sec (=   0.035 min)
Fit to the potential            ...        0.004 sec (=   0.000 min)
------------------------------------------------------------------------------


Timings for individual modules:

Sum of individual times         ...       25.227 sec (=   0.420 min)
GTO integral calculation        ...        4.356 sec (=   0.073 min)  17.3 %
SCF iterations                  ...       18.720 sec (=   0.312 min)  74.2 %
CHELPG charge generation        ...        2.152 sec (=   0.036 min)   8.5 %


                 $$$$$$$$$$$$$$$$  JOB NUMBER  2 $$$$$$$$$$$$$$


                       ****************************
                       * Single Point Calculation *
                       ****************************

---------------------------------
CARTESIAN COORDINATES (ANGSTROEM)
---------------------------------
  C     -2.257604   -6.993449   -0.918277
  O     -2.080523   -8.395982   -0.827367
  H     -2.059170   -8.743386    0.111713
  H     -1.423130   -6.407729   -0.539471
  H     -2.370768   -6.724110   -2.003700
  H     -3.147931   -6.621619   -0.383193
  C     -1.708168   -6.745225    3.942439
  O     -2.101679   -5.421923    4.243975
  H     -1.984440   -5.247799    5.187823
  H     -2.537170   -7.464061    4.247987
  H     -1.615068   -6.857520    2.852533
  H     -0.770799   -7.131770    4.409028

----------------------------
CARTESIAN COORDINATES (A.U.)
----------------------------
  NO LB      ZA    FRAG     MASS         X           Y           Z
   0 C     6.0000    0    12.011   -4.266253  -13.215703   -1.735292
   1 O     8.0000    0    15.999   -3.931619  -15.866107   -1.563497
   2 H     1.0000    0     1.008   -3.891267  -16.522605    0.211107
   3 H     1.0000    0     1.008   -2.689326  -12.108853   -1.019452
   4 H     1.0000    0     1.008   -4.480102  -12.706726   -3.786444
   5 H     1.0000    0     1.008   -5.948727  -12.513046   -0.724130
   6 C     0.0000    0     0.000   -3.227970  -12.746628    7.450130
   7 O     0.0000    0     0.000   -3.971598  -10.245950    8.019950
   8 H     0.0000    0     0.000   -3.750048   -9.916903    9.803565
   9 H     0.0000    0     0.000   -4.794556  -14.105031    8.027532
  10 H     0.0000    0     0.000   -3.052036  -12.958835    5.390506
  11 H     0.0000    0     0.000   -1.456599  -13.477092    8.331855

--------------------------------
INTERNAL COORDINATES (ANGSTROEM)
--------------------------------
 C      0   0   0     0.000000000000     0.00000000     0.00000000
 O      1   0   0     1.416587845758     0.00000000     0.00000000
 H      2   1   0     1.001507232238   113.97135363     0.00000000
 H      1   2   3     1.087616090683   114.51493629    67.01020846
 H      1   2   3     1.124051901269   108.16724810   185.61527516
 H      1   2   3     1.103292618884   113.79254801   305.41839354
 C      3   2   1     4.334779287692   132.10270955   347.52597355
 O      7   3   2     1.413118200867   126.70423588    26.70000004
 H      8   7   3     0.966909094797   110.06991478   175.16457367
 H      7   3   2     1.139003551884    83.52406844   136.02838824
 H      7   3   2     1.099623965663    23.63369604   339.13047009
 H      7   3   2     1.116146484162   106.12830934   241.16305809

---------------------------
INTERNAL COORDINATES (A.U.)
---------------------------
 C      0   0   0     0.000000000000     0.00000000     0.00000000
 O      1   0   0     2.676963073125     0.00000000     0.00000000
 H      2   1   0     1.892574390071   113.97135363     0.00000000
 H      1   2   3     2.055296550236   114.51493629    67.01020846
 H      1   2   3     2.124150253712   108.16724810   185.61527516
 H      1   2   3     2.084920895268   113.79254801   305.41839354
 C      3   2   1     8.191545704732   132.10270955   347.52597355
 O      7   3   2     2.670406394498   126.70423588    26.70000004
 H      8   7   3     1.827193385564   110.06991478   175.16457367
 H      7   3   2     2.152404778624    83.52406844   136.02838824
 H      7   3   2     2.077988145400    23.63369604   339.13047009
 H      7   3   2     2.109211180405   106.12830934   241.16305809

---------------------
BASIS SET INFORMATION
---------------------
There are 3 groups of distinct atoms

 Group   1 Type C   : 11s6p2d1f contracted to 5s3p2d1f pattern {62111/411/11/1}
 Group   2 Type O   : 11s6p2d1f contracted to 5s3p2d1f pattern {62111/411/11/1}
 Group   3 Type H   : 5s1p contracted to 3s1p pattern {311/1}

Atom   0C    basis set group =>   1
Atom   1O    basis set group =>   2
Atom   2H    basis set group =>   3
Atom   3H    basis set group =>   3
Atom   4H    basis set group =>   3
Atom   5H    basis set group =>   3
Atom   6C    basis set group =>   1
Atom   7O    basis set group =>   2
Atom   8H    basis set group =>   3
Atom   9H    basis set group =>   3
Atom  10H    basis set group =>   3
Atom  11H    basis set group =>   3


           ************************************************************
           *        Program running with 8 parallel MPI-processes     *
           *              working on a common directory               *
           ************************************************************
------------------------------------------------------------------------------
                           ORCA GTO INTEGRAL CALCULATION
------------------------------------------------------------------------------

                         BASIS SET STATISTICS AND STARTUP INFO

 # of primitive gaussian shells          ...  128
 # of primitive gaussian functions       ...  248
 # of contracted shells                  ...   76
 # of contracted basis functions         ...  172
 Highest angular momentum                ...    3
 Maximum contraction depth               ...    6
 Integral package used                   ... LIBINT
 Integral threshhold            Thresh   ...  2.500e-11
 Primitive cut-off              TCut     ...  2.500e-12


------------------------------ INTEGRAL EVALUATION ----------------------------


 * One electron integrals 
 Pre-screening matrix                    ... done
 Shell pair data                         ... done (   0.001 sec)



           ************************************************************
           *        Program running with 8 parallel MPI-processes     *
           *              working on a common directory               *
           ************************************************************
-------------------------------------------------------------------------------
                                 ORCA SCF
-------------------------------------------------------------------------------

------------
SCF SETTINGS
------------
Hamiltonian:
 Density Functional     Method          .... DFT(GTOs)
 Exchange Functional    Exchange        .... WB97X-D3
 Correlation Functional Correlation     .... WB97X-D3
 Gradients option       PostSCFGGA      .... off
 Hybrid DFT is turned on
   Fraction HF Exchange ScalHFX         ....  0.195728
   Scaling of DF-GGA-X  ScalDFX         ....  0.000000
   Scaling of DF-GGA-C  ScalDFC         ....  1.000000
   Scaling of DF-LDA-C  ScalLDAC        ....  1.000000
   Perturbative correction              ....  0.000000
   Density functional embedding theory  .... OFF
 Long-range corrected/Screened/Range-Separated Hybrid DFT is turned on
   Amount of maximum screened exact exchange              ....  0.804272
   Range separation parameter mu (erf(mu*r12)/r12)        ....  0.250000


General Settings:
 Integral files         IntName         .... 13-11_DFT_A
 Hartree-Fock type      HFTyp           .... RHF
 Total Charge           Charge          ....    0
 Multiplicity           Mult            ....    1
 Number of Electrons    NEL             ....   18
 Basis Dimension        Dim             ....  172
 Nuclear Repulsion      ENuc            ....     39.8918987253 Eh

Convergence Acceleration:
 DIIS                   CNVDIIS         .... on
   Start iteration      DIISMaxIt       ....    12
   Startup error        DIISStart       ....  0.200000
   # of expansion vecs  DIISMaxEq       ....     5
   Bias factor          DIISBfac        ....   1.050
   Max. coefficient     DIISMaxC        ....  10.000
 Newton-Raphson         CNVNR           .... off
 SOSCF                  CNVSOSCF        .... on
   Start iteration      SOSCFMaxIt      ....   150
   Startup grad/error   SOSCFStart      ....  0.003300
 Level Shifting         CNVShift        .... on
   Level shift para.    LevelShift      ....    0.2500
   Turn off err/grad.   ShiftErr        ....    0.0010
 Zerner damping         CNVZerner       .... off
 Static damping         CNVDamp         .... on
   Fraction old density DampFac         ....    0.7000
   Max. Damping (<1)    DampMax         ....    0.9800
   Min. Damping (>=0)   DampMin         ....    0.0000
   Turn off err/grad.   DampErr         ....    0.1000
 Fernandez-Rico         CNVRico         .... off

SCF Procedure:
 Maximum # iterations   MaxIter         ....  1000
 SCF integral mode      SCFMode         .... Direct
   Integral package                     .... LIBINT
 Reset frequency        DirectResetFreq ....    20
 Integral Threshold     Thresh          ....  2.500e-11 Eh
 Primitive CutOff       TCut            ....  2.500e-12 Eh

Convergence Tolerance:
 Convergence Check Mode ConvCheckMode   .... Total+1el-Energy
 Convergence forced     ConvForced      .... 0
 Energy Change          TolE            ....  1.000e-08 Eh
 1-El. energy change                    ....  1.000e-05 Eh
 Orbital Gradient       TolG            ....  1.000e-05
 Orbital Rotation angle TolX            ....  1.000e-05
 DIIS Error             TolErr          ....  5.000e-07


Diagonalization of the overlap matrix:
Smallest eigenvalue                        ... 1.395e-03
Time for diagonalization                   ...    0.004 sec
Threshold for overlap eigenvalues          ... 1.000e-08
Number of eigenvalues below threshold      ... 0
Time for construction of square roots      ...    0.012 sec
Total time needed                          ...    0.016 sec

-------------------
DFT GRID GENERATION
-------------------

General Integration Accuracy     IntAcc      ...  4.340
Radial Grid Type                 RadialGrid  ... Gauss-Chebyshev
Angular Grid (max. acc.)         AngularGrid ... Lebedev-110
Angular grid pruning method      GridPruning ... 3 (G Style)
Weight generation scheme         WeightScheme... Becke
Basis function cutoff            BFCut       ...    1.0000e-11
Integration weight cutoff        WCut        ...    1.0000e-14
Grids for H and He will be reduced by one unit

# of grid points (after initial pruning)     ...  13096 (   0.0 sec)
# of grid points (after weights+screening)   ...  12583 (   0.0 sec)
nearest neighbour list constructed           ...    0.0 sec
Grid point re-assignment to atoms done       ...    0.0 sec
Grid point division into batches done        ...    0.0 sec
Reduced shell lists constructed in    0.0 sec

Total number of grid points                  ...    12583
Total number of batches                      ...      201
Average number of points per batch           ...       62
Average number of grid points per atom       ...     1049
Average number of shells per batch           ...    44.52 (58.58%)
Average number of basis functions per batch  ...    97.26 (56.55%)
Average number of large shells per batch     ...    35.85 (80.53%)
Average number of large basis fcns per batch ...    80.52 (82.79%)
Maximum spatial batch extension              ...  25.60, 15.05, 13.63 au
Average spatial batch extension              ...   0.49,  0.39,  0.36 au

Time for grid setup =    0.053 sec

------------------------------
INITIAL GUESS: MODEL POTENTIAL
------------------------------
Loading Hartree-Fock densities                     ... done
Calculating cut-offs                               ... done
Setting up the integral package                    ... done
Initializing the effective Hamiltonian             ... done
Starting the Coulomb interaction                   ... done (   0.0 sec)
Reading the grid                                   ... done
Mapping shells                                     ... done
Starting the XC term evaluation                    ... done (   0.0 sec)
  promolecular density results
     # of electrons  =     17.994289916
     EX              =    -14.411798849
     EC              =     -0.572764148
     EX+EC           =    -14.984562997
Transforming the Hamiltonian                       ... done (   0.0 sec)
Diagonalizing the Hamiltonian                      ... done (   0.0 sec)
Back transforming the eigenvectors                 ... done (   0.0 sec)
Now organizing SCF variables                       ... done
                      ------------------
                      INITIAL GUESS DONE (   0.2 sec)
                      ------------------
--------------
SCF ITERATIONS
--------------
ITER       Energy         Delta-E        Max-DP      RMS-DP      [F,P]     Damp
               ***  Starting incremental Fock matrix formation  ***
  0   -115.6485773816   0.000000000000 0.03684329  0.00073776  0.2571634 0.7000
  1   -115.6850188228  -0.036441441143 0.02339958  0.00052154  0.1289395 0.7000
                               ***Turning on DIIS***
  2   -115.7016187326  -0.016599909849 0.03563121  0.00093642  0.0507261 0.0000
  3   -115.7285820588  -0.026963326166 0.01814956  0.00034482  0.0617045 0.0000
  4   -115.7330882689  -0.004506210155 0.00394003  0.00006640  0.0067149 0.0000
                      *** Initiating the SOSCF procedure ***
                           *** Shutting down DIIS ***
                      *** Re-Reading the Fockian *** 
                      *** Removing any level shift *** 
ITER      Energy       Delta-E        Grad      Rot      Max-DP    RMS-DP
  5   -115.73317911  -0.0000908436  0.000423  0.000423  0.000776  0.000022
               *** Restarting incremental Fock matrix formation ***
  6   -115.73318739  -0.0000082737  0.000130  0.000157  0.000398  0.000013
  7   -115.73318812  -0.0000007354  0.000046  0.000097  0.000184  0.000006
  8   -115.73318817  -0.0000000528  0.000030  0.000021  0.000042  0.000001
  9   -115.73318819  -0.0000000134  0.000010  0.000008  0.000019  0.000001
                  ***Gradient check signals convergence***
              ***Rediagonalizing the Fockian in SOSCF/NRSCF***

               *****************************************************
               *                     SUCCESS                       *
               *           SCF CONVERGED AFTER  10 CYCLES          *
               *****************************************************

Setting up the final grid:

General Integration Accuracy     IntAcc      ...  4.670
Radial Grid Type                 RadialGrid  ... Gauss-Chebyshev
Angular Grid (max. acc.)         AngularGrid ... Lebedev-302
Angular grid pruning method      GridPruning ... 3 (G Style)
Weight generation scheme         WeightScheme... Becke
Basis function cutoff            BFCut       ...    1.0000e-11
Integration weight cutoff        WCut        ...    1.0000e-14
Grids for H and He will be reduced by one unit

# of grid points (after initial pruning)     ...  52000 (   0.0 sec)
# of grid points (after weights+screening)   ...  49452 (   0.0 sec)
nearest neighbour list constructed           ...    0.0 sec
Grid point re-assignment to atoms done       ...    0.0 sec
Grid point division into batches done        ...    0.2 sec
Reduced shell lists constructed in    0.2 sec

Total number of grid points                  ...    49452
Total number of batches                      ...      778
Average number of points per batch           ...       63
Average number of grid points per atom       ...     4121
Average number of shells per batch           ...    43.87 (57.72%)
Average number of basis functions per batch  ...    95.63 (55.60%)
Average number of large shells per batch     ...    34.99 (79.76%)
Average number of large basis fcns per batch ...    78.99 (82.60%)
Maximum spatial batch extension              ...  16.88, 15.09, 11.68 au
Average spatial batch extension              ...   0.28,  0.24,  0.23 au

Final grid set up in    0.3 sec
Final integration                            ... done (   0.1 sec)
Change in XC energy                          ...    -0.000284459
Integrated number of electrons               ...    18.000002609
Previous integrated no of electrons          ...    17.998456617

----------------
TOTAL SCF ENERGY
----------------

Total Energy       :         -115.73347265 Eh           -3149.26790 eV

Components:
Nuclear Repulsion  :           39.89189873 Eh            1085.51375 eV
Electronic Energy  :         -155.62537137 Eh           -4234.78165 eV
One Electron Energy:         -236.27478694 Eh           -6429.36382 eV
Two Electron Energy:           80.64941557 Eh            2194.58217 eV

Virial components:
Potential Energy   :         -230.83847652 Eh           -6281.43429 eV
Kinetic Energy     :          115.10500387 Eh            3132.16639 eV
Virial Ratio       :            2.00545996


DFT components:
N(Alpha)           :        9.000001304607 electrons
N(Beta)            :        9.000001304607 electrons
N(Total)           :       18.000002609214 electrons
E(XC)              :      -10.625791093517 Eh       
DFET-embed. en.    :        0.000000000000 Eh       

---------------
SCF CONVERGENCE
---------------

  Last Energy change         ...   -1.8150e-09  Tolerance :   1.0000e-08
  Last MAX-Density change    ...    3.7406e-06  Tolerance :   1.0000e-07
  Last RMS-Density change    ...    1.1044e-07  Tolerance :   5.0000e-09
  Last Orbital Gradient      ...    1.9487e-06  Tolerance :   1.0000e-05
  Last Orbital Rotation      ...    2.5743e-06  Tolerance :   1.0000e-05

             **** THE GBW FILE WAS UPDATED (13-11_DFT_A.gbw) ****
             **** DENSITY FILE WAS UPDATED (13-11_DFT_A.scfp.tmp) ****
             **** ENERGY FILE WAS UPDATED (13-11_DFT_A.en.tmp) ****
----------------
ORBITAL ENERGIES
----------------

  NO   OCC          E(Eh)            E(eV) 
   0   2.0000     -19.233136      -523.3602 
   1   2.0000     -10.316452      -280.7249 
   2   2.0000      -1.124488       -30.5989 
   3   2.0000      -0.792377       -21.5617 
   4   2.0000      -0.609260       -16.5788 
   5   2.0000      -0.535215       -14.5640 
   6   2.0000      -0.522360       -14.2141 
   7   2.0000      -0.426542       -11.6068 
   8   2.0000      -0.372416       -10.1340 
   9   0.0000       0.074574         2.0293 
  10   0.0000       0.111442         3.0325 
  11   0.0000       0.145864         3.9692 
  12   0.0000       0.169597         4.6150 
  13   0.0000       0.190907         5.1949 
  14   0.0000       0.196170         5.3380 
  15   0.0000       0.202295         5.5047 
  16   0.0000       0.211977         5.7682 
  17   0.0000       0.226011         6.1501 
  18   0.0000       0.276210         7.5161 
  19   0.0000       0.308341         8.3904 
  20   0.0000       0.313816         8.5394 
  21   0.0000       0.325622         8.8606 
  22   0.0000       0.335241         9.1224 
  23   0.0000       0.400096        10.8872 
  24   0.0000       0.425413        11.5761 
  25   0.0000       0.454244        12.3606 
  26   0.0000       0.461190        12.5496 
  27   0.0000       0.468857        12.7583 
  28   0.0000       0.497687        13.5427 
  29   0.0000       0.540128        14.6976 
  30   0.0000       0.543113        14.7789 
  31   0.0000       0.556227        15.1357 
  32   0.0000       0.574413        15.6306 
  33   0.0000       0.598121        16.2757 
  34   0.0000       0.606984        16.5169 
  35   0.0000       0.635582        17.2951 
  36   0.0000       0.667796        18.1717 
  37   0.0000       0.693260        18.8646 
  38   0.0000       0.774856        21.0849 
  39   0.0000       0.778054        21.1719 
  40   0.0000       0.830958        22.6115 
  41   0.0000       0.844305        22.9747 
  42   0.0000       0.881282        23.9809 
  43   0.0000       0.924581        25.1591 
  44   0.0000       0.996745        27.1228 
  45   0.0000       1.035815        28.1860 
  46   0.0000       1.063474        28.9386 
  47   0.0000       1.106215        30.1016 
  48   0.0000       1.141664        31.0663 
  49   0.0000       1.152783        31.3688 
  50   0.0000       1.173967        31.9453 
  51   0.0000       1.200447        32.6658 
  52   0.0000       1.235418        33.6174 
  53   0.0000       1.353444        36.8291 
  54   0.0000       1.387518        37.7563 
  55   0.0000       1.392573        37.8938 
  56   0.0000       1.449834        39.4520 
  57   0.0000       1.517103        41.2825 
  58   0.0000       1.526274        41.5320 
  59   0.0000       1.552535        42.2466 
  60   0.0000       1.592089        43.3229 
  61   0.0000       1.619202        44.0607 
  62   0.0000       1.628792        44.3217 
  63   0.0000       1.682038        45.7706 
  64   0.0000       1.693363        46.0787 
  65   0.0000       1.766956        48.0813 
  66   0.0000       1.799003        48.9534 
  67   0.0000       1.907054        51.8936 
  68   0.0000       1.934970        52.6532 
  69   0.0000       1.947728        53.0004 
  70   0.0000       2.009115        54.6708 
  71   0.0000       2.061600        56.0990 
  72   0.0000       2.082673        56.6724 
  73   0.0000       2.091591        56.9151 
  74   0.0000       2.126918        57.8764 
  75   0.0000       2.172687        59.1218 
  76   0.0000       2.180969        59.3472 
  77   0.0000       2.200404        59.8760 
  78   0.0000       2.253666        61.3254 
  79   0.0000       2.295144        62.4540 
  80   0.0000       2.325966        63.2928 
  81   0.0000       2.347969        63.8915 
  82   0.0000       2.380513        64.7771 
  83   0.0000       2.467191        67.1357 
  84   0.0000       2.481388        67.5220 
  85   0.0000       2.483990        67.5928 
  86   0.0000       2.558572        69.6223 
  87   0.0000       2.572579        70.0034 
  88   0.0000       2.584762        70.3349 
  89   0.0000       2.633585        71.6635 
  90   0.0000       2.642295        71.9005 
  91   0.0000       2.676807        72.8396 
  92   0.0000       2.801965        76.2454 
  93   0.0000       2.841942        77.3332 
  94   0.0000       2.860415        77.8359 
  95   0.0000       2.886339        78.5413 
  96   0.0000       2.910749        79.2055 
  97   0.0000       3.003461        81.7283 
  98   0.0000       3.030553        82.4655 
  99   0.0000       3.090157        84.0874 
 100   0.0000       3.094426        84.2036 
 101   0.0000       3.146499        85.6206 
 102   0.0000       3.156841        85.9020 
 103   0.0000       3.199689        87.0680 
 104   0.0000       3.255651        88.5908 
 105   0.0000       3.339392        90.8695 
 106   0.0000       3.367129        91.6242 
 107   0.0000       3.430503        93.3487 
 108   0.0000       3.442575        93.6772 
 109   0.0000       3.465820        94.3097 
 110   0.0000       3.512742        95.5866 
 111   0.0000       3.575563        97.2960 
 112   0.0000       3.583234        97.5047 
 113   0.0000       3.608148        98.1827 
 114   0.0000       3.651818        99.3710 
 115   0.0000       3.668196        99.8167 
 116   0.0000       3.704180       100.7959 
 117   0.0000       3.941513       107.2540 
 118   0.0000       4.051560       110.2486 
 119   0.0000       4.100390       111.5773 
 120   0.0000       4.222974       114.9130 
 121   0.0000       4.225904       114.9927 
 122   0.0000       4.256922       115.8367 
 123   0.0000       4.266929       116.1090 
 124   0.0000       4.369789       118.9080 
 125   0.0000       4.408083       119.9500 
 126   0.0000       4.505351       122.5968 
 127   0.0000       4.542693       123.6130 
 128   0.0000       4.565271       124.2273 
 129   0.0000       4.568690       124.3204 
 130   0.0000       4.609049       125.4186 
 131   0.0000       4.988607       135.7469 
 132   0.0000       5.029043       136.8472 
 133   0.0000       5.066490       137.8662 
 134   0.0000       5.326159       144.9321 
 135   0.0000       5.345029       145.4456 
 136   0.0000       5.378318       146.3515 
 137   0.0000       5.409888       147.2105 
 138   0.0000       5.537691       150.6882 
 139   0.0000       5.681647       154.6055 
 140   0.0000       5.808414       158.0550 
 141   0.0000       5.818299       158.3240 
 142   0.0000       5.851841       159.2367 
 143   0.0000       5.899105       160.5228 
 144   0.0000       5.934031       161.4732 
 145   0.0000       6.266873       170.5303 
 146   0.0000       6.515106       177.2850 
 147   0.0000       6.580951       179.0768 
 148   0.0000       6.662806       181.3042 
 149   0.0000       6.698366       182.2718 
 150   0.0000       6.798664       185.0010 
 151   0.0000       6.845368       186.2719 
 152   0.0000       7.037327       191.4954 
 153   0.0000       7.116335       193.6453 
 154   0.0000       7.179601       195.3669 
 155   0.0000       7.216484       196.3705 
 156   0.0000       7.394682       201.2195 
 157   0.0000       8.050959       219.0777 
 158   0.0000       8.865173       241.2336 
 159   0.0000       9.305874       253.2257 
 160   0.0000       9.533688       259.4248 
 161   0.0000       9.549224       259.8476 
 162   0.0000       9.781737       266.1746 
 163   0.0000       9.839679       267.7513 
 164   0.0000       9.922392       270.0020 
 165   0.0000      10.058809       273.7141 
 166   0.0000      11.139361       303.1174 
[...]
  82   0.0000       2.392676        65.1080 
  83   0.0000       2.443424        66.4889 
  84   0.0000       2.486780        67.6687 
  85   0.0000       2.513181        68.3871 
  86   0.0000       2.560410        69.6723 
  87   0.0000       2.568243        69.8854 
  88   0.0000       2.587292        70.4038 
  89   0.0000       2.625063        71.4316 
  90   0.0000       2.641662        71.8833 
  91   0.0000       2.690892        73.2229 
  92   0.0000       2.804049        76.3021 
  93   0.0000       2.849736        77.5453 
  94   0.0000       2.875939        78.2583 
  95   0.0000       2.891393        78.6788 
  96   0.0000       2.895464        78.7896 
  97   0.0000       2.985880        81.2499 
  98   0.0000       3.070748        83.5593 
  99   0.0000       3.089716        84.0755 
 100   0.0000       3.108082        84.5752 
 101   0.0000       3.148242        85.6680 
 102   0.0000       3.173948        86.3675 
 103   0.0000       3.221540        87.6626 
 104   0.0000       3.258811        88.6767 
 105   0.0000       3.321356        90.3787 
 106   0.0000       3.348339        91.1129 
 107   0.0000       3.403481        92.6134 
 108   0.0000       3.415355        92.9365 
 109   0.0000       3.440211        93.6129 
 110   0.0000       3.528038        96.0028 
 111   0.0000       3.583996        97.5255 
 112   0.0000       3.593831        97.7931 
 113   0.0000       3.634623        98.9031 
 114   0.0000       3.642984        99.1306 
 115   0.0000       3.684159       100.2511 
 116   0.0000       3.718018       101.1724 
 117   0.0000       3.990338       108.5826 
 118   0.0000       4.048162       110.1561 
 119   0.0000       4.122706       112.1845 
 120   0.0000       4.196070       114.1809 
 121   0.0000       4.236945       115.2931 
 122   0.0000       4.265798       116.0783 
 123   0.0000       4.312404       117.3465 
 124   0.0000       4.328266       117.7781 
 125   0.0000       4.378492       119.1448 
 126   0.0000       4.510897       122.7478 
 127   0.0000       4.544349       123.6580 
 128   0.0000       4.570364       124.3659 
 129   0.0000       4.583870       124.7334 
 130   0.0000       4.592067       124.9565 
 131   0.0000       4.927545       134.0853 
 132   0.0000       5.055842       137.5764 
 133   0.0000       5.116042       139.2146 
 134   0.0000       5.272106       143.4613 
 135   0.0000       5.337384       145.2376 
 136   0.0000       5.406534       147.1193 
 137   0.0000       5.436660       147.9390 
 138   0.0000       5.551606       151.0669 
 139   0.0000       5.741706       156.2398 
 140   0.0000       5.818596       158.3320 
 141   0.0000       5.830604       158.6588 
 142   0.0000       5.885077       160.1411 
 143   0.0000       5.968184       162.4026 
 144   0.0000       5.979835       162.7196 
 145   0.0000       6.348644       172.7554 
 146   0.0000       6.517119       177.3398 
 147   0.0000       6.564988       178.6424 
 148   0.0000       6.621419       180.1780 
 149   0.0000       6.736725       183.3156 
 150   0.0000       6.804836       185.1690 
 151   0.0000       6.831003       185.8811 
 152   0.0000       7.034827       191.4274 
 153   0.0000       7.118257       193.6976 
 154   0.0000       7.197610       195.8569 
 155   0.0000       7.216979       196.3840 
 156   0.0000       7.374387       200.6673 
 157   0.0000       7.883954       214.5333 
 158   0.0000       8.867157       241.2876 
 159   0.0000       9.278103       252.4700 
 160   0.0000       9.541301       259.6320 
 161   0.0000       9.559987       260.1405 
 162   0.0000       9.780162       266.1318 
 163   0.0000       9.815653       267.0975 
 164   0.0000       9.933696       270.3096 
 165   0.0000      10.109248       275.0866 
 166   0.0000      11.152554       303.4764 
 167   0.0000      19.126942       520.4706 
 168   0.0000      22.313719       607.1872 
 169   0.0000      43.662519      1188.1176 
 170   0.0000      65.863690      1792.2421 
 171   0.0000     126.458969      3441.1235 

                    ********************************
                    * MULLIKEN POPULATION ANALYSIS *
                    ********************************

-----------------------
MULLIKEN ATOMIC CHARGES
-----------------------
   0 C :    0.000121
   1 O :   -0.000023
   2 H :   -0.000106
   3 H :   -0.000079
   4 H :    0.000012
   5 H :   -0.000012
   6 C :   -0.172210
   7 O :   -0.470831
   8 H :    0.317117
   9 H :    0.098344
  10 H :    0.125115
  11 H :    0.102552
Sum of atomic charges:    0.0000000

--------------------------------
MULLIKEN REDUCED ORBITAL CHARGES
--------------------------------
  0 C s       :     0.000021  s :     0.000021
      pz      :    -0.000139  p :    -0.000145
      px      :    -0.000003
      py      :    -0.000002
      dz2     :     0.000003  d :     0.000003
      dxz     :     0.000000
      dyz     :     0.000000
      dx2y2   :    -0.000000
      dxy     :     0.000000
      f0      :     0.000000  f :     0.000000
      f+1     :     0.000000
      f-1     :    -0.000000
      f+2     :    -0.000000
      f-2     :    -0.000000
      f+3     :    -0.000000
      f-3     :    -0.000000
  1 O s       :     0.000003  s :     0.000003
      pz      :     0.000016  p :     0.000020
      px      :     0.000000
      py      :     0.000004
      dz2     :     0.000000  d :     0.000000
      dxz     :    -0.000000
      dyz     :    -0.000000
      dx2y2   :     0.000000
      dxy     :    -0.000000
      f0      :     0.000000  f :    -0.000000
      f+1     :     0.000000
      f-1     :    -0.000000
      f+2     :    -0.000000
      f-2     :    -0.000000
      f+3     :    -0.000000
      f-3     :    -0.000000
  2 H s       :     0.000106  s :     0.000106
      pz      :     0.000000  p :     0.000000
      px      :     0.000000
      py      :    -0.000000
  3 H s       :     0.000079  s :     0.000079
      pz      :    -0.000000  p :    -0.000000
      px      :     0.000000
      py      :     0.000000
  4 H s       :    -0.000012  s :    -0.000012
      pz      :     0.000000  p :     0.000000
      px      :     0.000000
      py      :    -0.000000
  5 H s       :     0.000012  s :     0.000012
      pz      :    -0.000000  p :     0.000000
      px      :     0.000000
      py      :     0.000000
  6 C s       :     3.233537  s :     3.233537
      pz      :     1.075319  p :     2.833070
      px      :     1.027019
      py      :     0.730733
      dz2     :     0.018826  d :     0.097936
      dxz     :     0.006529
      dyz     :     0.022229
      dx2y2   :     0.015586
      dxy     :     0.034766
      f0      :     0.001272  f :     0.007667
      f+1     :     0.000154
      f-1     :     0.000888
      f+2     :     0.000780
      f-2     :     0.000536
      f+3     :     0.001709
      f-3     :     0.002327
  7 O s       :     3.792493  s :     3.792493
      pz      :     1.379100  p :     4.646796
      px      :     1.849440
      py      :     1.418256
      dz2     :     0.012446  d :     0.029895
      dxz     :     0.001965
      dyz     :     0.003678
      dx2y2   :     0.006114
      dxy     :     0.005692
      f0      :     0.000509  f :     0.001647
      f+1     :     0.000119
      f-1     :     0.000182
      f+2     :     0.000171
      f-2     :     0.000083
      f+3     :     0.000307
      f-3     :     0.000276
  8 H s       :     0.636167  s :     0.636167
      pz      :     0.018345  p :     0.046716
      px      :     0.016488
      py      :     0.011882
  9 H s       :     0.883397  s :     0.883397
      pz      :     0.004088  p :     0.018259
      px      :     0.007965
      py      :     0.006205
 10 H s       :     0.854780  s :     0.854780
      pz      :     0.012860  p :     0.020104
      px      :     0.004341
      py      :     0.002904
 11 H s       :     0.878616  s :     0.878616
      pz      :     0.005066  p :     0.018832
      px      :     0.010020
      py      :     0.003746


                     *******************************
                     * LOEWDIN POPULATION ANALYSIS *
                     *******************************

----------------------
LOEWDIN ATOMIC CHARGES
----------------------
   0 C :   -0.000587
   1 O :   -0.000012
   2 H :   -0.000268
   3 H :   -0.000188
   4 H :   -0.000004
   5 H :   -0.000076
   6 C :   -0.399662
   7 O :   -0.077951
   8 H :    0.172709
   9 H :    0.100507
  10 H :    0.108806
  11 H :    0.096725

-------------------------------
LOEWDIN REDUCED ORBITAL CHARGES
-------------------------------
  0 C s       :     0.000058  s :     0.000058
      pz      :     0.000504  p :     0.000522
      px      :     0.000017
      py      :     0.000001
      dz2     :     0.000006  d :     0.000007
      dxz     :     0.000001
      dyz     :     0.000000
      dx2y2   :     0.000000
      dxy     :     0.000000
      f0      :     0.000000  f :     0.000000
      f+1     :     0.000000
      f-1     :     0.000000
      f+2     :     0.000000
      f-2     :     0.000000
      f+3     :     0.000000
      f-3     :     0.000000
  1 O s       :     0.000004  s :     0.000004
      pz      :     0.000005  p :     0.000008
      px      :     0.000000
      py      :     0.000003
      dz2     :     0.000000  d :     0.000000
      dxz     :     0.000000
      dyz     :     0.000000
      dx2y2   :     0.000000
      dxy     :     0.000000
      f0      :     0.000000  f :     0.000000
      f+1     :     0.000000
      f-1     :     0.000000
      f+2     :     0.000000
      f-2     :     0.000000
      f+3     :     0.000000
      f-3     :     0.000000
  2 H s       :     0.000267  s :     0.000267
      pz      :     0.000001  p :     0.000001
      px      :     0.000000
      py      :     0.000000
  3 H s       :     0.000188  s :     0.000188
      pz      :     0.000000  p :     0.000000
      px      :     0.000000
      py      :     0.000000
  4 H s       :     0.000004  s :     0.000004
      pz      :     0.000000  p :     0.000000
      px      :     0.000000
      py      :     0.000000
  5 H s       :     0.000076  s :     0.000076
      pz      :     0.000000  p :     0.000000
      px      :     0.000000
      py      :     0.000000
  6 C s       :     2.876276  s :     2.876276
      pz      :     1.100481  p :     3.054447
      px      :     1.085057
      py      :     0.868909
      dz2     :     0.087039  d :     0.413389
      dxz     :     0.022818
      dyz     :     0.067648
      dx2y2   :     0.086929
      dxy     :     0.148954
      f0      :     0.006073  f :     0.055550
      f+1     :     0.001107
      f-1     :     0.008089
      f+2     :     0.007891
      f-2     :     0.007151
      f+3     :     0.011590
      f-3     :     0.013651
  7 O s       :     3.370373  s :     3.370373
      pz      :     1.391693  p :     4.632567
      px      :     1.764027
      py      :     1.476847
      dz2     :     0.024783  d :     0.070519
      dxz     :     0.002658
      dyz     :     0.014055
      dx2y2   :     0.014701
      dxy     :     0.014321
      f0      :     0.001348  f :     0.004492
      f+1     :     0.000231
      f-1     :     0.000539
      f+2     :     0.000483
      f-2     :     0.000272
      f+3     :     0.000802
      f-3     :     0.000817
  8 H s       :     0.672239  s :     0.672239
      pz      :     0.079286  p :     0.155053
      px      :     0.044909
      py      :     0.030858
  9 H s       :     0.846014  s :     0.846014
      pz      :     0.012630  p :     0.053479
      px      :     0.023417
      py      :     0.017432
 10 H s       :     0.832245  s :     0.832245
      pz      :     0.037504  p :     0.058949
      px      :     0.012933
      py      :     0.008512
 11 H s       :     0.845569  s :     0.845569
      pz      :     0.015913  p :     0.057706
      px      :     0.030126
      py      :     0.011666


                      *****************************
                      * MAYER POPULATION ANALYSIS *
                      *****************************

  NA   - Mulliken gross atomic population
  ZA   - Total nuclear charge
  QA   - Mulliken gross atomic charge
  VA   - Mayer's total valence
  BVA  - Mayer's bonded valence
  FA   - Mayer's free valence

  ATOM       NA         ZA         QA         VA         BVA        FA
  0 C     -0.0001     0.0000     0.0001    -0.0002    -0.0002    -0.0000
  1 O      0.0000     0.0000    -0.0000     0.0000     0.0000    -0.0000
  2 H      0.0001     0.0000    -0.0001     0.0002     0.0002     0.0000
  3 H      0.0001     0.0000    -0.0001     0.0002     0.0002     0.0000
  4 H     -0.0000     0.0000     0.0000    -0.0000    -0.0000     0.0000
  5 H      0.0000     0.0000    -0.0000     0.0000     0.0000     0.0000
  6 C      6.1722     6.0000    -0.1722     3.9376     3.9376     0.0000
  7 O      8.4708     8.0000    -0.4708     1.8961     1.8961     0.0000
  8 H      0.6829     1.0000     0.3171     0.9111     0.9111     0.0000
  9 H      0.9017     1.0000     0.0983     0.9587     0.9587     0.0000
 10 H      0.8749     1.0000     0.1251     0.9536     0.9536     0.0000
 11 H      0.8974     1.0000     0.1026     0.9567     0.9567     0.0000

  Mayer bond orders larger than 0.1
B(  6-C ,  7-O ) :   1.0088 B(  6-C ,  9-H ) :   0.9779 B(  6-C , 10-H ) :   0.9720 
B(  6-C , 11-H ) :   0.9672 B(  7-O ,  8-H ) :   0.8958 

-------
TIMINGS
-------

Total SCF time: 0 days 0 hours 0 min 16 sec 

Total time                  ....      16.023 sec
Sum of individual times     ....      15.342 sec  ( 95.8%)

Fock matrix formation       ....      14.373 sec  ( 89.7%)
  XC integration            ....       7.370 sec  ( 51.3% of F)
    Basis function eval.    ....       0.052 sec  (  0.7% of XC)
    Density eval.           ....       0.113 sec  (  1.5% of XC)
    XC-Functional eval.     ....       0.116 sec  (  1.6% of XC)
    XC-Potential eval.      ....       0.051 sec  (  0.7% of XC)
Diagonalization             ....       0.204 sec  (  1.3%)
Density matrix formation    ....       0.005 sec  (  0.0%)
Population analysis         ....       0.078 sec  (  0.5%)
Initial guess               ....       0.100 sec  (  0.6%)
Orbital Transformation      ....       0.000 sec  (  0.0%)
Orbital Orthonormalization  ....       0.000 sec  (  0.0%)
DIIS solution               ....       0.103 sec  (  0.6%)
SOSCF solution              ....       0.092 sec  (  0.6%)
Grid generation             ....       0.388 sec  (  2.4%)


-------------------------------------------------------------------------------
                          DFT DISPERSION CORRECTION                            
                                                                               
                              DFTD3 V3.1  Rev 1                                
                              USING zero damping                               
-------------------------------------------------------------------------------
The omegaB97X-D3 functional is recognized. Fit by Chai et al.
Active option DFTDOPT                   ...         3   

molecular C6(AA) [au] = 208.852676 


            DFT-D V3
 parameters
 s6 scaling factor         :     1.0000 
 rs6 scaling factor        :     1.2810 
 s8 scaling factor         :     1.0000 
 rs8 scaling factor        :     1.0940 
 Damping factor alpha6     :    14.0000 
 Damping factor alpha8     :    16.0000 
 ad hoc parameters k1-k3   :    16.0000     1.3333    -4.0000 

 Edisp/kcal,au: -0.169072029155  -0.000269433400 
 E6   /kcal   :  -0.034127197 
 E8   /kcal   :  -0.134944832 
 % E8         :  79.814995354 

-------------------------   ----------------
Dispersion correction           -0.000269433
-------------------------   ----------------


-------------------------   --------------------
FINAL SINGLE POINT ENERGY      -115.734496565790
-------------------------   --------------------


                            ***************************************
                            *     ORCA property calculations      *
                            ***************************************

                                    ---------------------
                                    Active property flags
                                    ---------------------
   (+) Dipole Moment


------------------------------------------------------------------------------
                       ORCA ELECTRIC PROPERTIES CALCULATION
------------------------------------------------------------------------------

Dipole Moment Calculation                       ... on
Quadrupole Moment Calculation                   ... off
Polarizability Calculation                      ... off
GBWName                                         ... 13-11_DFT_B.gbw
Electron density file                           ... 13-11_DFT_B.scfp.tmp
The origin for moment calculation is the CENTER OF MASS  = (-3.603720, -11.481375  7.789794)

-------------
DIPOLE MOMENT
-------------
                                X             Y             Z
Electronic contribution:     -0.43162       1.84719       0.27658
Nuclear contribution   :      0.67312      -2.24047       0.19755
                        -----------------------------------------
Total Dipole Moment    :      0.24150      -0.39328       0.47412
                        -----------------------------------------
Magnitude (a.u.)       :      0.66165
Magnitude (Debye)      :      1.68179



--------------------
Rotational spectrum 
--------------------
 
Rotational constants in cm-1:     4.226007     0.818105     0.790113 
Rotational constants in MHz : 126692.509496 24526.177482 23687.003927 

 Dipole components along the rotational axes: 
x,y,z [a.u.] :    -0.302809     0.588289    -0.003059 
x,y,z [Debye]:    -0.769680     1.495312    -0.007776 

 
------------------------------------------------------------------------------
                      ORCA CHELPG CHARGES GENERATION
------------------------------------------------------------------------------

GBW file                           ... 13-11_DFT_B.gbw

Reading the GBW file               ... done

Grid spacing                       ...     0.300000
Point Cut-Off                      ...     2.800000
Van-der-Waals Radii                ...        COSMO
Total charge                       ...            0


Number of points X direction       ...           26
Number of points Y direction       ...           30
Number of points Z direction       ...           42
Maximum number of possible points  ...        32760
Final number of points             ...         6005


CHELPG Charges            
--------------------------------
  0   C   :       0.079699
  1   O   :      -0.120088
  2   H   :       0.023270
  3   H   :      -0.013482
  4   H   :       0.026184
  5   H   :      -0.003545
  6   C   :       0.043094
  7   O   :      -0.600044
  8   H   :       0.408784
  9   H   :       0.029280
 10   H   :       0.097819
 11   H   :       0.029029
--------------------------------
Total charge:    -0.000000
--------------------------------

CHELPG charges calculated...

Timings for individual parts in CHELPG calculation:
Grid generation                 ...        0.001 sec (=   0.000 min)
Potential calculation           ...        1.075 sec (=   0.018 min)
Fit to the potential            ...        0.002 sec (=   0.000 min)
------------------------------------------------------------------------------


Timings for individual modules:

Sum of individual times         ...       18.246 sec (=   0.304 min)
GTO integral calculation        ...        0.713 sec (=   0.012 min)   3.9 %
SCF iterations                  ...       16.419 sec (=   0.274 min)  90.0 %
CHELPG charge generation        ...        1.113 sec (=   0.019 min)   6.1 %



                             ****ORCA TERMINATED NORMALLY****
TOTAL RUN TIME: 0 days 0 hours 1 minutes 3 seconds 677 msec
