LAMMPS data file via vdw_self_gen.py, on 2021-08-05 13:22:22.037454

8500 atoms
6 atom types
8000 bonds
6 bond types
13500 angles
10 angle types
15000 dihedrals
8 dihedral types

-49.3591586892111138  49.3591586892111209 xlo xhi
-49.3591586892111138  49.3591586892111209 ylo yhi
-49.3591586892111138  49.3591586892111209 zlo zhi

Masses

1  1.007940
2  1.007940
3  12.011000
4  12.011000
5  15.999400
6  15.999400

Atoms

1         0    5   -0.6441380000000000   6.4938510932018660  -26.9638898344948714  19.0236012555409104 0 0 0
2         0    3    0.2604290000000000   6.7330155489512080  -26.0213906049993753  17.9804086608554812 0 0 0
3         0    4    0.2007620000000000   5.6472245366543792  -26.1358658029616535  16.9153931608899057 0 0 0
4         0    6   -0.3637960000000000   5.6838560940174636  -27.4602200354024397  16.3623894846622164 0 0 0
5         0    4    0.2007620000000000   4.6740546031917312  -27.6212325623884603  15.3541385170555866 0 0 0
6         0    3    0.2604290000000000   4.7583120211801226  -29.0418227088700007  14.8056697772595207 0 0 0
7         0    5   -0.6441380000000000   4.5316279230524046  -29.9805174391572500  15.8554571471049446 0 0 0
8         0    2    0.4025730000000000   6.3667520889799052  -27.8203839078200836  18.5750910973676859 0 0 0
9         0    1   -0.0094320000000000   7.7197848516604699  -26.2367660833162404  17.5588698087072324 0 0 0
10        0    1   -0.0094320000000000   6.7428086264586886  -25.0193565139884058  18.4180161629446815 0 0 0
11        0    1   -0.0094320000000000   5.8216970587918464  -25.4007512439662975  16.1226691024861921 0 0 0
12        0    1   -0.0094320000000000   4.6627247846732072  -25.9699460262486639  17.3667456712900581 0 0 0
13        0    1   -0.0094320000000000   4.8371935655658449  -26.8976149005746876  14.5485556298449232 0 0 0
14        0    1   -0.0094320000000000   3.6918070235168319  -27.4553777512697046  15.8104626367901933 0 0 0
15        0    1   -0.0094320000000000   5.7506612536827655  -29.2426490629266738  14.3900417936398917 0 0 0
16        0    1   -0.0094320000000000   4.0061293380674776  -29.2046149157612405  14.0291199068706689 0 0 0
17        0    2    0.4025730000000000   5.1124660013081549  -29.6974326706256022  16.5852694255530047 0 0 0
18        1    5   -0.6441380000000000  -38.9092254390674199 -8.0348969551983203   17.4836080556891105 0 0 0
19        1    3    0.2604290000000000  -38.0316461867521980 -7.1472146817059796   18.1732674363498248 0 0 0
20        1    4    0.2007620000000000  -38.3613422710600958 -5.7026716033738811   17.8114657015075792 0 0 0
21        1    6   -0.3637960000000000  -38.1798604073052203 -5.5301845475499967   16.3978244391636707 0 0 0
22        1    4    0.2007620000000000  -38.4830001880557688 -4.1828279183450192   16.0042123389127866 0 0 0
23        1    3    0.2604290000000000  -38.2755582042084583 -4.0590298746122473   14.4983453119129155 0 0 0
24        1    5   -0.6441380000000000  -39.1459699005743218 -4.9582861320677694   13.8140144992524103 0 0 0
25        1    2    0.4025730000000000  -38.8670601208118285 -7.7656987342061097   16.5473110834356341 0 0 0
26        1    1   -0.0094320000000000  -37.0076254615069047 -7.4004001654964782   17.8815930933474263 0 0 0
27        1    1   -0.0094320000000000  -38.1483841802479802 -7.3141862657596439   19.2475864210062397 0 0 0
28        1    1   -0.0094320000000000  -37.6983259268616919 -5.0204409215005334   18.3538826376705373 0 0 0
29        1    1   -0.0094320000000000  -39.4054782687716667 -5.4842517527615575   18.0615876912273023 0 0 0
30        1    1   -0.0094320000000000  -37.8236515885652125 -3.4860823094356768   16.5324221556668860 0 0 0
31        1    1   -0.0094320000000000  -39.5280000235841840 -3.9696902861858154   16.2554045400320533 0 0 0
32        1    1   -0.0094320000000000  -37.2484830939360947 -4.3173244310882373   14.2222375712501723 0 0 0
33        1    1   -0.0094320000000000  -38.4922939692429438 -3.0430123161041500   14.1576934051838279 0 0 0
34        1    2    0.4025730000000000  -39.0318596601283190 -5.8177675175629506   14.2594428572547240 0 0 0
35        2    5   -0.6441380000000000  -24.6837940961678335  27.9511947749001415 -16.2086882043565481 0 0 0
36        2    3    0.2604290000000000  -25.4402248246774363  28.5531143513604420 -17.2571444984099891 0 0 0
37        2    4    0.2007620000000000  -26.9105419851018830  28.6330436310538872 -16.8595473825891169 0 0 0
38        2    6   -0.3637960000000000  -27.3999054817086218  27.3015247030808297 -16.6389804255481408 0 0 0
39        2    4    0.2007620000000000  -28.7839244671027963  27.3224220157992370 -16.2565554671711645 0 0 0
40        2    3    0.2604290000000000  -29.2475404699203416  25.8865749607766382 -16.0343009468247644 0 0 0
41        2    5   -0.6441380000000000  -28.4790202834790271  25.2850316077454771 -14.9940561120112328 0 0 0
42        2    2    0.4025730000000000  -25.1549152851686415  27.1259205979469691 -15.9899075502101553 0 0 0
43        2    1   -0.0094320000000000  -25.3095584711637329  27.9400429090684632 -18.1542871671118320 0 0 0
44        2    1   -0.0094320000000000  -25.0344364860215727  29.5510470806150565 -17.4445868679355378 0 0 0
45        2    1   -0.0094320000000000  -27.4885891588000213  29.1103794285344364 -17.6578314861657866 0 0 0
46        2    1   -0.0094320000000000  -27.0155121467117354  29.2050140877792899 -15.9309359006415079 0 0 0
47        2    1   -0.0094320000000000  -29.3790626598857365  27.7907856228326580 -17.0475337809053080 0 0 0
48        2    1   -0.0094320000000000  -28.8834698869457505  27.8944368661269841 -15.3273409877355480 0 0 0
49        2    1   -0.0094320000000000  -29.1086133219370282  25.2860416893093429 -16.9386758037917247 0 0 0
50        2    1   -0.0094320000000000  -30.3014829769489253  25.8581105272701315 -15.7449831967584082 0 0 0
51        2    2    0.4025730000000000  -27.5492400630305703  25.4751472105716061 -15.2165434606962258 0 0 0
52        3    5   -0.6441380000000000  -6.2799964330998481  -15.9499264990369678 -41.0267916847101048 0 0 0
53        3    3    0.2604290000000000  -4.9057798287220304  -15.8465660376009616 -40.6599121903743992 0 0 0
54        3    4    0.2007620000000000  -4.6267025862940141  -16.7116432172052001 -39.4351419774010594 0 0 0
55        3    6   -0.3637960000000000  -5.4349922224881224  -16.2406825868945148 -38.3461364592247023 0 0 0
56        3    4    0.2007620000000000  -5.2116224999191072  -17.0279035748894181 -37.1660588424978258 0 0 0
57        3    3    0.2604290000000000  -6.0944820876710439  -16.4856708911340881 -36.0468911605654156 0 0 0
58        3    5   -0.6441380000000000  -7.4668672909580174  -16.5790424779076346 -36.4242869733169030 0 0 0
59        3    2    0.4025730000000000  -6.7806508119532083  -15.7772360099423015 -40.2079994006653720 0 0 0
60        3    1   -0.0094320000000000  -4.6967148702957857  -14.7927277920349614 -40.4513167622351304 0 0 0
61        3    1   -0.0094320000000000  -4.2979156356822381  -16.1696550888864401 -41.5094904019356008 0 0 0
62        3    1   -0.0094320000000000  -3.5678949935283879  -16.6452283779730124 -39.1635521041884758 0 0 0
63        3    1   -0.0094320000000000  -4.8922808629730437  -17.7535634700134324 -39.6457567640240001 0 0 0
64        3    1   -0.0094320000000000  -4.1575810525526045  -16.9674574896847581 -36.8752951451128723 0 0 0
65        3    1   -0.0094320000000000  -5.4794815883061867  -18.0683035874795515 -37.3813938163661703 0 0 0
66        3    1   -0.0094320000000000  -5.8754356235802128  -15.4312863057859939 -35.8516307261460767 0 0 0
67        3    1   -0.0094320000000000  -5.9504538470571671  -17.0569595357954320 -35.1259161647122795 0 0 0
68        3    2    0.4025730000000000  -7.5151141778733361  -16.1980462965983065 -37.3201943172039279 0 0 0
69        4    5   -0.6441380000000000  -29.9609354442655516 -38.3331691143163980 -15.2758827104462380 0 0 0
70        4    3    0.2604290000000000  -29.8201948593616635 -38.1757518726836480 -16.6862610724107263 0 0 0
71        4    4    0.2007620000000000  -28.5222260805433656 -38.8243579134707417 -17.1562525208089198 0 0 0
72        4    6   -0.3637960000000000  -27.4210848671250744 -38.1738793481000229 -16.5039989397494224 0 0 0
73        4    4    0.2007620000000000  -26.1715701799822291 -38.7529853452724709 -16.9108691758852636 0 0 0
74        4    3    0.2604290000000000  -25.0420414730352050 -38.0268597177839425 -16.1877508532111953 0 0 0
75        4    5   -0.6441380000000000  -25.1949682752490780 -38.1762015917200159 -14.7774681167523330 0 0 0
76        4    2    0.4025730000000000  -29.1183712414909799 -38.0234010204231367 -14.8950587239267840 0 0 0
77        4    1   -0.0094320000000000  -29.8227078098800789 -37.1027808962592758 -16.9019511883887823 0 0 0
78        4    1   -0.0094320000000000  -30.6833209567656233 -38.6394192690210616 -17.1717447851693414 0 0 0
79        4    1   -0.0094320000000000  -28.4223950309563023 -38.7179649729568709 -18.2415910911855406 0 0 0
80        4    1   -0.0094320000000000  -28.5154495033314141 -39.8856712343851427 -16.8841195837157798 0 0 0
81        4    1   -0.0094320000000000  -26.0513525863807018 -38.6492396899881356 -17.9943751513640748 0 0 0
82        4    1   -0.0094320000000000  -26.1693185035282454 -39.8135817054057668 -16.6357689773663502 0 0 0
83        4    1   -0.0094320000000000  -25.0591018571880966 -36.9556304862509251 -16.4113838590527870 0 0 0
84        4    1   -0.0094320000000000  -24.0696465668575570 -38.4362061698996271 -16.4744448035834807 0 0 0
85        4    2    0.4025730000000000  -26.1251468288304913 -37.9506645427431479 -14.5929776858459803 0 0 0
86        5    5   -0.6441380000000000   14.1011917066367829  6.6976239175079808   39.3032368052452625 0 0 0
87        5    3    0.2604290000000000   15.2451678078603621  7.4914367138512343   38.9951213264211844 0 0 0
88        5    4    0.2007620000000000   16.1312277827704200  6.7613393477908073   37.9910494836559280 0 0 0
89        5    6   -0.3637960000000000   16.5674809766758599  5.5253614343951716   38.5768061040243779 0 0 0
90        5    4    0.2007620000000000   17.4043471343514327  4.7954928609670411   37.6662343067127523 0 0 0
91        5    3    0.2604290000000000   17.8345919078147475  3.4958193749034407   38.3383443422209069 0 0 0
92        5    5   -0.6441380000000000   16.6862141559589858  2.7118084010454093   38.6563731629477161 0 0 0
93        5    2    0.4025730000000000   14.4515088686050692  5.8190317448228885   39.5404103632717820 0 0 0
94        5    1   -0.0094320000000000   15.7824552283987583  7.6757975303484933   39.9306043964826713 0 0 0
95        5    1   -0.0094320000000000   14.9014922761027506  8.4458368706107443   38.5868615813463833 0 0 0
96        5    1   -0.0094320000000000   17.0011359792511989  7.3781192312960311   37.7418752201397041 0 0 0
97        5    1   -0.0094320000000000   15.5605969817778522  6.5383383047454977   37.0826777280628335 0 0 0
98        5    1   -0.0094320000000000   18.2843331444801720  5.3952728955037701   37.4111085301851176 0 0 0
99        5    1   -0.0094320000000000   16.8291282564565847  4.5741277476680136   36.7603256151066446 0 0 0
100       5    1   -0.0094320000000000   18.3680987145791406  3.6963710201775917   39.2726806677557292 0 0 0
101       5    1   -0.0094320000000000   18.4794277333831793  2.9105585946937600   37.6773100240408070 0 0 0
102       5    2    0.4025730000000000   16.0735005837598024  3.3216304226265079   39.1067452330605008 0 0 0
103       6    5   -0.6441380000000000   38.4902159687147361 -18.8394144803138630 -25.9616944802987675 0 0 0
104       6    3    0.2604290000000000   37.2330809787085641 -18.2732629731182925 -26.3261657574967920 0 0 0
105       6    4    0.2007620000000000   37.3959352398602434 -17.3938762414056463 -27.5616665362146769 0 0 0
106       6    6   -0.3637960000000000   38.3114822439132467 -16.3321523083554894 -27.2524982272661873 0 0 0
107       6    4    0.2007620000000000   38.5029945008653698 -15.4752521811343993 -28.3888253482157857 0 0 0
108       6    3    0.2604290000000000   39.4825584227427058 -14.3713401223351571 -28.0043434569726557 0 0 0
109       6    5   -0.6441380000000000   40.7337507853940863 -14.9435791434300018 -27.6279830269600559 0 0 0
110       6    2    0.4025730000000000   39.1112810080047595 -18.0886229944601169 -25.9231201592912335 0 0 0
111       6    1   -0.0094320000000000   36.8730990348144090 -17.6888056196879013 -25.4737469288736023 0 0 0
112       6    1   -0.0094320000000000   36.5319710880029689 -19.0894779373564170 -26.5208619390426570 0 0 0
113       6    1   -0.0094320000000000   36.4275298624933512 -16.9725036016418187 -27.8512897952001452 0 0 0
114       6    1   -0.0094320000000000   37.8072756822973446 -17.9839247504049382 -28.3881833358281845 0 0 0
115       6    1   -0.0094320000000000   37.5444145021836491 -15.0387743921695787 -28.6885121106323808 0 0 0
116       6    1   -0.0094320000000000   38.9152131085776389 -16.0694789459883154 -29.2119415002787832 0 0 0
117       6    1   -0.0094320000000000   39.1100601544539899 -13.7977047020102503 -27.1499300387899858 0 0 0
118       6    1   -0.0094320000000000   39.6526664691337629 -13.6919776726750584 -28.8438907797275093 0 0 0
119       6    2    0.4025730000000000   40.5142358405194756 -15.6517511723757501 -26.9951786436822694 0 0 0
120       7    5   -0.6441380000000000   7.2993748545677661  -40.3512469047715854  15.6179241580463497 0 0 0
121       7    3    0.2604290000000000   5.8958659424821827  -40.5830250407282520  15.5169446874159895 0 0 0
122       7    4    0.2007620000000000   5.1526121457087033  -39.2537405807806863  15.4339909254535090 0 0 0
123       7    6   -0.3637960000000000   5.4149679248792948  -38.5051800270642488  16.6306093326558759 0 0 0
124       7    4    0.2007620000000000   4.7388212251037540  -37.2386608628575004  16.5998043739689898 0 0 0
125       7    3    0.2604290000000000   5.0541317429367769  -36.4889033473635322  17.8899348249715864 0 0 0
126       7    5   -0.6441380000000000   6.4601155863372410  -36.2714507012478080  17.9924569089053747 0 0 0
127       7    2    0.4025730000000000   7.4046312297455437  -39.7100956544044763  16.3450718639061101 0 0 0
128       7    1   -0.0094320000000000   5.5888621567338870  -41.1491966892871019  16.4018139417153854 0 0 0
129       7    1   -0.0094320000000000   5.7105445178154524  -41.1872322761990048  14.6246117137092693 0 0 0
130       7    1   -0.0094320000000000   4.0762649322193063  -39.4321462297243670  15.3396849922435301 0 0 0
131       7    1   -0.0094320000000000   5.5113874953315145  -38.6786010033682786  14.5731872674705194 0 0 0
132       7    1   -0.0094320000000000   3.6589104532245749  -37.3980590195245668  16.5127091265070085 0 0 0
133       7    1   -0.0094320000000000   5.1016054338816961  -36.6671450144444009  15.7382319270592657 0 0 0
134       7    1   -0.0094320000000000   4.7436610957772594  -37.0681661402796081  18.7650904902651625 0 0 0
135       7    1   -0.0094320000000000   4.5527074503224831  -35.5175391273686500  17.9082384718755243 0 0 0
136       7    2    0.4025730000000000   6.8695022258869152  -37.1373762712662483  17.8115942326936150 0 0 0
137       8    5   -0.6441380000000000  -18.3034149886498803  25.5751712668532569 -4.4829823979810310  0 0 0
138       8    3    0.2604290000000000  -18.1296266709041625  26.8367893239789908 -3.8412092895934942  0 0 0
139       8    4    0.2007620000000000  -17.5860953816794776  27.8572277025366368 -4.8359876376190281  0 0 0
140       8    6   -0.3637960000000000  -16.3119748865682510  27.3995855839335576 -5.3137425173617707  0 0 0
141       8    4    0.2007620000000000  -15.7579202450588642  28.3266787674964604 -6.2601651405133545  0 0 0
142       8    3    0.2604290000000000  -14.4110233237253347  27.7900866103776885 -6.7333788084487409  0 0 0
143       8    5   -0.6441380000000000  -14.5887277977360412  26.5223174776106347 -7.3624809820419070  0 0 0
144       8    2    0.4025730000000000  -17.4545919347035863  25.3905470205840160 -4.9260522878164679  0 0 0
145       8    1   -0.0094320000000000  -17.4341735859647642  26.6921747387882355 -3.0086068119978662  0 0 0
146       8    1   -0.0094320000000000  -19.0974246928153839  27.1577711797504300 -3.4462331044250196  0 0 0
147       8    1   -0.0094320000000000  -17.4684167735064513  28.8301636189017962 -4.3473231756155455  0 0 0
148       8    1   -0.0094320000000000  -18.2692677485028554  27.9486985950479756 -5.6876899422020992  0 0 0
149       8    1   -0.0094320000000000  -15.6265332896477016  29.3049803677505167 -5.7859667889892821  0 0 0
150       8    1   -0.0094320000000000  -16.4439653216927724  28.4138833350520947 -7.1100400399096140  0 0 0
151       8    1   -0.0094320000000000  -13.7278979366963512  27.6487542081783602 -5.8900522393279218  0 0 0
152       8    1   -0.0094320000000000  -13.9520246566917443  28.4716270730652070 -7.4545810089314237  0 0 0
153       8    2    0.4025730000000000  -15.1388200043193795  26.0033751948657645 -6.7474742401798098  0 0 0
154       9    5   -0.6441380000000000   17.3482898156829570  3.7612799718520673  -29.4381939996304993 0 0 0
155       9    3    0.2604290000000000   15.9696332466631326  3.7846962747836970  -29.0741706960419855 0 0 0
156       9    4    0.2007620000000000   15.6163664824528912  5.1338045352355506  -28.4565832905802019 0 0 0
157       9    6   -0.3637960000000000   16.4117925007571195  5.3211955165454192  -27.2762226933776333 0 0 0
158       9    4    0.2007620000000000   16.1189139218750164  6.5836174697415544  -26.6575894833731333 0 0 0
159       9    3    0.2604290000000000   16.9910432321547802  6.7288116474228694  -25.4148896997494447 0 0 0
160       9    5   -0.6441380000000000   18.3686241420635348  6.6913811698905512  -25.7829342553492609 0 0 0
161       9    2    0.4025730000000000   17.8314373897750471  4.0527545321427620  -28.6428898949936226 0 0 0
162       9    1   -0.0094320000000000   15.8010414970351558  2.9712521549252724  -28.3616535080913188 0 0 0
163       9    1   -0.0094320000000000   15.3737238081077923  3.6015284628530972  -29.9725080733748079 0 0 0
164       9    1   -0.0094320000000000   14.5538861935163837  5.1576360147138001  -28.1923614050232381 0 0 0
165       9    1   -0.0094320000000000   15.8419764901685465  5.9389608564921028  -29.1646169376331876 0 0 0
166       9    1   -0.0094320000000000   15.0603588600023421  6.6225299035702818  -26.3798348557298254 0 0 0
167       9    1   -0.0094320000000000   16.3470091119879122  7.3852006198644773  -27.3689170212109190 0 0 0
168       9    1   -0.0094320000000000   16.8129055481162126  5.9076304027987376  -24.7136314210083228 0 0 0
169       9    1   -0.0094320000000000   16.7946217899719166  7.6785449676293576  -24.9101768802764703 0 0 0
170       9    2    0.4025730000000000   18.4602752085323303  5.9131419124927902  -26.3626579493278044 0 0 0
171       10   5   -0.6441380000000000  -39.0621354799347742  3.0422913729268815  -4.2920245137028186  0 0 0
172       10   3    0.2604290000000000  -37.7030898973170281  3.3364087576770887  -4.6086398835995963  0 0 0
173       10   4    0.2007620000000000  -37.4942386007897568  4.8464749173058186  -4.6574869713637144  0 0 0
174       10   6   -0.3637960000000000  -38.3387676736609535  5.3942452016599081  -5.6811018552697430  0 0 0
175       10   4    0.2007620000000000  -38.1820764748597554  6.8192555289174415  -5.7646933250955579  0 0 0
176       10   3    0.2604290000000000  -39.1009460780916172  7.3447549653158557  -6.8626562706913736  0 0 0
177       10   5   -0.6441380000000000  -40.4575103526878692  7.0363271084824186  -6.5477076639024743  0 0 0
178       10   2    0.4025730000000000  -39.5938169298790541  3.5682254026335878  -4.9178087006887203  0 0 0
179       10   1   -0.0094320000000000  -37.4819354670875242  2.8785785706511153  -5.5778031800247243  0 0 0
180       10   1   -0.0094320000000000  -37.0660341484662368  2.8813552500585602  -3.8452560824482820  0 0 0
181       10   1   -0.0094320000000000  -36.4469119614976194  5.0722003605792345  -4.8842036304076997  0 0 0
182       10   1   -0.0094320000000000  -37.7715160534761267  5.2929067265912177  -3.6960796297597946  0 0 0
183       10   1   -0.0094320000000000  -37.1404523355302203  7.0636419502098349  -5.9981350933246151  0 0 0
184       10   1   -0.0094320000000000  -38.4613993289635019  7.2609027206653991  -4.8016376000222527  0 0 0
185       10   1   -0.0094320000000000  -38.8692391229863716  6.8764237238105954  -7.8243280336573147  0 0 0
186       10   1   -0.0094320000000000  -39.0080529904356226  8.4295633859852099  -6.9620109752130679  0 0 0
187       10   2    0.4025730000000000  -40.4596419950162769  6.0904104694842136  -6.3123930037825868  0 0 0
188       11   5   -0.6441380000000000  -39.3105843552817475 -4.0245510934524384  -14.2487844769227134 0 0 0
189       11   3    0.2604290000000000  -40.1591257096387508 -4.2336806991742799  -15.3757261799653300 0 0 0
190       11   4    0.2007620000000000  -39.7275424876355032 -5.4886177366070203  -16.1275065089610123 0 0 0
191       11   6   -0.3637960000000000  -38.3798204837006054 -5.3077278459961965  -16.5879338294845624 0 0 0
192       11   4    0.2007620000000000  -37.9232073264741203 -6.4676624229697559  -17.3008505849257936 0 0 0
193       11   3    0.2604290000000000  -36.4908638852142815 -6.2205358345844459  -17.7627102507258421 0 0 0
194       11   5   -0.6441380000000000  -35.6490850862138373 -5.9988035672677018  -16.6327411121720807 0 0 0
195       11   2    0.4025730000000000  -38.4009060153826383 -4.0719340235503472  -14.5968330257686016 0 0 0
196       11   1   -0.0094320000000000  -40.0849794080134032 -3.3486653437758744  -16.0152927550490460 0 0 0
197       11   1   -0.0094320000000000  -41.1879315146501952 -4.3304478583443657  -15.0181464234341480 0 0 0
198       11   1   -0.0094320000000000  -40.3894627239137094 -5.6583581987113396  -16.9832490432141761 0 0 0
199       11   1   -0.0094320000000000  -39.7571398157597926 -6.3543413848384702  -15.4565856599328093 0 0 0
200       11   1   -0.0094320000000000  -38.5703707009499084 -6.6487733477475581  -18.1654771108682063 0 0 0
201       11   1   -0.0094320000000000  -37.9537118167660239 -7.3300811067151344  -16.6256814813680940 0 0 0
202       11   1   -0.0094320000000000  -36.4326146693038169 -5.3318589975191681  -18.3988669551701882 0 0 0
203       11   1   -0.0094320000000000  -36.1060599687003361 -7.0815881620212773  -18.3157243806096446 0 0 0
204       11   2    0.4025730000000000  -36.1143589230816602 -5.3363387896790222  -16.0897894602907279 0 0 0
205       12   5   -0.6441380000000000   30.1592619312027068  38.9318954320564501  5.7064967398212794  0 0 0
206       12   3    0.2604290000000000   29.4895570740785899  39.1190069365957953  4.4614104322452270  0 0 0
207       12   4    0.2007620000000000   28.0027166915059169  39.3608666510175880  4.7003963393422428  0 0 0
208       12   6   -0.3637960000000000   27.4497503861661194  38.2101585697772137  5.3570303674179520  0 0 0
209       12   4    0.2007620000000000   26.0475818503551508  38.3902578085188324  5.6093828189345576  0 0 0
210       12   3    0.2604290000000000   25.5161339434803018  37.1427237276940616  6.3073910386275633  0 0 0
211       12   5   -0.6441380000000000   26.1983937859329004  36.9527743452204902  7.5455460121161213  0 0 0
212       12   2    0.4025730000000000   29.6443297779435930  38.2512482362938755  6.1781553970517704  0 0 0
213       12   1   -0.0094320000000000   29.6485340996903339  38.2180124040599338  3.8608020615342187  0 0 0
214       12   1   -0.0094320000000000   29.9442131383891841  39.9727388178239167  3.9514121107182980  0 0 0
215       12   1   -0.0094320000000000   27.4914491013550411  39.5210769475353132  3.7453132954392374  0 0 0
216       12   1   -0.0094320000000000   27.8659275702485587  40.2347702975091366  5.3469791844243000  0 0 0
217       12   1   -0.0094320000000000   25.5184880782198853  38.5450511603340971  4.6631801830148127  0 0 0
218       12   1   -0.0094320000000000   25.9161704569029823  39.2643431260192557  6.2568824187808652  0 0 0
219       12   1   -0.0094320000000000   25.6842634839071593  36.2506218378169294  5.6960633685409512  0 0 0
220       12   1   -0.0094320000000000   24.4467520100196047  37.2378868533512701  6.5139728686683593  0 0 0
221       12   2    0.4025730000000000   27.1463086853735440  37.0343317390561921  7.3335517762766163  0 0 0
222       13   5   -0.6441380000000000   37.8793378994545904  30.1731301726575687 -27.3500544259171363 0 0 0
223       13   3    0.2604290000000000   37.7591442814884459  29.4526854901056403 -28.5749087754962332 0 0 0
224       13   4    0.2007620000000000   37.4796552269426542  27.9808523566438474 -28.2887308515867026 0 0 0
225       13   6   -0.3637960000000000   38.5787051746089489  27.4418652117421153 -27.5386300983106018 0 0 0
226       13   4    0.2007620000000000   38.3613523103244773  26.0543911130695420 -27.2388510858696158 0 0 0
227       13   3    0.2604290000000000   39.5548082044068749  25.5374288065392960 -26.4423546089113870 0 0 0
228       13   5   -0.6441380000000000   39.6784598603705376  26.2700788421288998 -25.2247663401489213 0 0 0
229       13   2    0.4025730000000000   38.5213290469181402  29.6702601857513706 -26.8153893350916874 0 0 0
230       13   1   -0.0094320000000000   38.6979617748145017  29.5737808033401031 -29.1242291707462506 0 0 0
231       13   1   -0.0094320000000000   36.9458480231101092  29.8959372484527073 -29.1560676390008915 0 0 0
232       13   1   -0.0094320000000000   37.3708489109024455  27.4308779714734747 -29.2294406207749695 0 0 0
233       13   1   -0.0094320000000000   36.5653766533067497  27.8835581783765605 -27.6928141164083819 0 0 0
234       13   1   -0.0094320000000000   38.2571226061267780  25.4869223361111743 -28.1696120571400250 0 0 0
235       13   1   -0.0094320000000000   37.4469201040162361  25.9625111963011541 -26.6422593918603283 0 0 0
236       13   1   -0.0094320000000000   40.4855581463751690  25.6673194314757396 -27.0033072054644876 0 0 0
237       13   1   -0.0094320000000000   39.4302731833246867  24.4793150254746728 -26.1970057808212964 0 0 0
238       13   2    0.4025730000000000   39.6250634841889493  27.2089176951276990 -25.4814105612227308 0 0 0
239       14   5   -0.6441380000000000   18.6392811617428542 -16.6770852443642248  29.1557286463834693 0 0 0
240       14   3    0.2604290000000000   17.7140355509292213 -15.6018938657550645  29.3028316141802136 0 0 0
241       14   4    0.2007620000000000   16.3619362279365426 -15.9936597381708232  28.7157612346914419 0 0 0
242       14   6   -0.3637960000000000   16.5314967817757115 -16.2726933761237440  27.3177417364824606 0 0 0
243       14   4    0.2007620000000000   15.2834475035094393 -16.6520417452071037  26.7171903962184807 0 0 0
244       14   3    0.2604290000000000   15.5235992556291933 -16.9374412337465436  25.2383841536041231 0 0 0
245       14   5   -0.6441380000000000   16.4595958471682700 -18.0044279767670048  25.0968332096093967 0 0 0
246       14   2    0.4025730000000000   18.5934374580786468 -16.9318078497876563  28.2155625091392928 0 0 0
247       14   1   -0.0094320000000000   18.1300498970928317 -14.7331172835115201  28.7832600876015405 0 0 0
248       14   1   -0.0094320000000000   17.6221213466103990 -15.3707042859607110  30.3676187793164907 0 0 0
249       14   1   -0.0094320000000000   15.6468764949218322 -15.1741690040433550  28.8437066273406799 0 0 0
250       14   1   -0.0094320000000000   15.9868932098651140 -16.8957374305757781  29.2118325945392243 0 0 0
251       14   1   -0.0094320000000000   14.5571439516699375 -15.8402273876170003  26.8296236168247368 0 0 0
252       14   1   -0.0094320000000000   14.9131932175870343 -17.5547267801050459  27.2158098101279116 0 0 0
253       14   1   -0.0094320000000000   15.9413748815791010 -16.0608916966351991  24.7334492272501620 0 0 0
254       14   1   -0.0094320000000000   14.5935472282626009 -17.2263947599547187  24.7415754593533599 0 0 0
255       14   2    0.4025730000000000   17.2038692245043308 -17.7748795805375011  25.6829223621086129 0 0 0
256       15   5   -0.6441380000000000   6.2838409292762254  -17.3021578648624548 -35.8456018947243820 0 0 0
257       15   3    0.2604290000000000   6.9821286211904043  -17.7526568910582299 -37.0045670153461330 0 0 0
258       15   4    0.2007620000000000   6.8044245643868315  -16.7521724394958049 -38.1420013382313812 0 0 0
259       15   6   -0.3637960000000000   5.4061526470567935  -16.6521475594398041 -38.4516781673225196 0 0 0
260       15   4    0.2007620000000000   5.1843962775729002  -15.7156636067115443 -39.5175186888245875 0 0 0
261       15   3    0.2604290000000000   3.6873653342722248  -15.6491019060159005 -39.8011761056159514 0 0 0
262       15   5   -0.6441380000000000   2.9925065063690006  -15.2109053082278347 -38.6350963699752441 0 0 0
263       15   2    0.4025730000000000   5.3808904137393769  -17.0960405881483588 -36.1507144169709989 0 0 0
264       15   1   -0.0094320000000000   6.5758048421680444  -18.7317560180177232 -37.2767087862820645 0 0 0
265       15   1   -0.0094320000000000   8.0391261016281277  -17.8637973732907547 -36.7475209701374439 0 0 0
266       15   1   -0.0094320000000000   7.3543716120030647  -17.0899214739548739 -39.0267212617892056 0 0 0
267       15   1   -0.0094320000000000   7.1677308512709494  -15.7661018230543846 -37.8319021542574205 0 0 0
268       15   1   -0.0094320000000000   5.7221177117573641  -16.0417008408649586 -40.4140430949977869 0 0 0
269       15   1   -0.0094320000000000   5.5482856353615375  -14.7314009131439523 -39.2023023920706990 0 0 0
270       15   1   -0.0094320000000000   3.2956540828341119  -16.6352190732444676 -40.0694484905047474 0 0 0
271       15   1   -0.0094320000000000   3.4756699517642007  -14.9477486099743313 -40.6127168696915533 0 0 0