LAMMPS data file via vdw_self_gen.py, on 2021-08-05 13:23:16.123502

4000 atoms
6 atom types
3500 bonds
5 bond types
5000 angles
6 angle types
2500 dihedrals
3 dihedral types

-36.1244692194728572  36.1244692194728572 xlo xhi
-36.1244692194728572  36.1244692194728572 ylo yhi
-36.1244692194728572  36.1244692194728572 zlo zhi

Masses

1  1.007940
2  1.007940
3  12.011000
4  12.011000
5  15.999400
6  15.999400

Atoms

1         0    3    0.0494510000000000  -28.8822789115108449 -27.4434948618497216  20.1084499197855031 0 0 0
2         0    5   -0.1036900000000000  -28.1867299054704468 -28.4013617452601395  19.3098013300028448 0 0 0
3         0    4    0.2726430000000000  -27.1165542170364731 -28.9568440701025303  19.9300722908518644 0 0 0
4         0    6   -0.3717970000000000  -26.7216099679703483 -28.7149820768251551  21.0590097175223967 0 0 0
5         0    1    0.0319320000000000  -29.7166362335048575 -27.0527747438011623  19.5193844882865051 0 0 0
6         0    1    0.0319320000000000  -28.2227393121572909 -26.6099424625481085  20.3698462407295438 0 0 0
7         0    1    0.0319320000000000  -29.2856964050235362 -27.9163702866859929  21.0093919760321022 0 0 0
8         0    2    0.0575970000000000  -26.6422301907128727 -29.6787048963138531  19.2472405677797198 0 0 0
9         1    3    0.0494510000000000  -28.9074811827644105 -12.3823738761619122  4.5353047579888015  0 0 0
10        1    5   -0.1036900000000000  -27.9595973732546490 -12.6766173797268742  3.5086236972990275  0 0 0
11        1    4    0.2726430000000000  -27.0579951563879959 -11.6863295213952973  3.2964537597909107  0 0 0
12        1    6   -0.3717970000000000  -26.9961797635484331 -10.6185230649793834  3.8837749034972933  0 0 0
13        1    1    0.0319320000000000  -29.5882041103876681 -13.2337525422108886  4.6223857364208731  0 0 0
14        1    1    0.0319320000000000  -29.4937289458154837 -11.4956776080437191  4.2741277863337945  0 0 0
15        1    1    0.0319320000000000  -28.4013286033208985 -12.2438014701582372  5.4958570391359709  0 0 0
16        1    2    0.0575970000000000  -26.3699600079071352 -11.9948424559179756  2.4941116257314286  0 0 0
17        2    3    0.0494510000000000  -28.7126717099317688  4.7725724277250983  -28.3973924299944578 0 0 0
18        2    5   -0.1036900000000000  -28.6478518032715215  3.4639911717842540  -27.8294571938972055 0 0 0
19        2    4    0.2726430000000000  -27.3848613406744192  2.9918863688351003  -27.6861225204190049 0 0 0
20        2    6   -0.3717970000000000  -26.3525243636238251  3.5678339618356505  -27.9886826515184381 0 0 0
21        2    1    0.0319320000000000  -29.7658663187188246  5.0559468726609280  -28.4767175456841670 0 0 0
22        2    1    0.0319320000000000  -28.2762358296291829  4.7776515337000518  -29.4011992077993298 0 0 0
23        2    1    0.0319320000000000  -28.2068678835648683  5.4964482780684012  -27.7506933711406774 0 0 0
24        2    2    0.0575970000000000  -27.4275958939722599  1.9843086915886179  -27.2442102229333898 0 0 0
25        3    3    0.0494510000000000  -12.1807442602906573  28.4890603087102576  4.9476790212757908  0 0 0
26        3    5   -0.1036900000000000  -12.6221402054893996  27.5135668567650420  4.0028408865277694  0 0 0
27        3    4    0.2726430000000000  -11.9342630690622276  27.5332527656632458  2.8345043800487457  0 0 0
28        3    6   -0.3717970000000000  -11.0149753324588673  28.2805524433792890  2.5422183112459957  0 0 0
29        3    1    0.0319320000000000  -12.7987511959662470  28.3958715657857290  5.8450060071895154  0 0 0
30        3    1    0.0319320000000000  -12.3062015458783609  29.4988247879607783  4.5442359794013649  0 0 0
31        3    1    0.0319320000000000  -11.1374091736739267  28.3089877561580643  5.2253104370986438  0 0 0
32        3    2    0.0575970000000000  -12.3374331357745994  26.7543586589642644  2.1688442834102757  0 0 0
33        4    3    0.0494510000000000   19.6846277512857526  19.1225721394223775 -28.1350312116622518 0 0 0
34        4    5   -0.1036900000000000   20.8036148395044407  19.9521383871142746 -28.4493951618700649 0 0 0
35        4    4    0.2726430000000000   20.6407806048272384  21.2494444435724468 -28.0901533351098216 0 0 0
36        4    6   -0.3717970000000000   19.6634953425866819  21.7384406439917015 -27.5472222813074623 0 0 0
37        4    1    0.0319320000000000   19.9116361382753446  18.1062721672815101 -28.4688185584308968 0 0 0
38        4    1    0.0319320000000000   18.7899479096131721  19.4684310045054971 -28.6623449213722701 0 0 0
39        4    1    0.0319320000000000   19.5143675185461305  19.1022951390911224 -27.0539883232415299 0 0 0
40        4    2    0.0575970000000000   21.5447264263517155  21.8136026060115427 -28.3675213503923693 0 0 0
41        5    3    0.0494510000000000   20.0842095767778304  19.1750748695878634  20.5648615710439273 0 0 0
42        5    5   -0.1036900000000000   20.3136190536825580  19.8343408320916446  19.3191181629978423 0 0 0
43        5    4    0.2726430000000000   20.0789628410576420  21.1693282744570617  19.3554179261261901 0 0 0
44        5    6   -0.3717970000000000   19.7064274312623375  21.8181336120119020  20.3193924586782657 0 0 0
45        5    1    0.0319320000000000   20.2930661590840380  18.1103698595994977  20.4284995391837363 0 0 0
46        5    1    0.0319320000000000   19.0394017134273241  19.2864089682385824  20.8716373348496376 0 0 0
47        5    1    0.0319320000000000   20.7581702734549118  19.5645851743715262  21.3343497983754986 0 0 0
48        5    2    0.0575970000000000   20.2793394822438344  21.5949549406323982  18.3599197397353748 0 0 0
49        6    3    0.0494510000000000   19.3785004152501621 -19.3936272400898062  27.7621452393837700 0 0 0
50        6    5   -0.1036900000000000   19.8501241351578450 -20.7383707982094698  27.6706423114736495 0 0 0
51        6    4    0.2726430000000000   20.9145743405161078 -21.0001815514245713  28.4687485525303750 0 0 0
52        6    6   -0.3717970000000000   21.4723044965703167 -20.2172388386844091  29.2203572795917488 0 0 0
53        6    1    0.0319320000000000   18.5304808085785453 -19.2846289691664978  27.0803868088262618 0 0 0
54        6    1    0.0319320000000000   20.1603424494464640 -18.6908292706998758  27.4573040186061803 0 0 0
55        6    1    0.0319320000000000   19.0360001094378006 -19.1760157599566448  28.7787042462459901 0 0 0
56        6    2    0.0575970000000000   21.2108697760332348 -22.0523041027591979  28.3361866867286878 0 0 0
57        7    3    0.0494510000000000  -20.5635163798581004  19.6436989079568036 -27.3094594390284726 0 0 0
58        7    5   -0.1036900000000000  -19.3192333810584422  20.1693322522028566 -27.7727156990129984 0 0 0
59        7    4    0.2726430000000000  -19.3571284273731052  20.6176508603270925 -29.0518353467685806 0 0 0
60        7    6   -0.3717970000000000  -20.3213747462967760  20.6077752202902147 -29.7995715336527027 0 0 0
61        7    1    0.0319320000000000  -20.4259244197158054  19.3053432908374312 -26.2787333052431862 0 0 0
62        7    1    0.0319320000000000  -20.8684386369294899  18.7861624325749368 -27.9175578953923491 0 0 0
63        7    1    0.0319320000000000  -21.3349056341990817  20.4201765739750805 -27.3191796582691602 0 0 0
64        7    2    0.0575970000000000  -18.3626749055596754  21.0030569928260533 -29.3254222660192134 0 0 0
65        8    3    0.0494510000000000  -11.3028903430611756  19.6256492955825017 -12.5920396465807212 0 0 0
66        8    5   -0.1036900000000000  -11.7927955817810410  19.8913433111869011 -11.2773014584813378 0 0 0
67        8    4    0.2726430000000000  -12.9439021981638973  20.6076606786518362 -11.2569134966478490 0 0 0
68        8    6   -0.3717970000000000  -13.5621997517728161  21.0216499992449144 -12.2240220089855818 0 0 0
69        8    1    0.0319320000000000  -10.3754368285071248  19.0538025574120766 -12.4991218313611263 0 0 0
70        8    1    0.0319320000000000  -11.0818902034172719  20.5610039344683244 -13.1158724060489877 0 0 0
71        8    1    0.0319320000000000  -12.0244976837328927  19.0262295346825461 -13.1559831068064312 0 0 0
72        8    2    0.0575970000000000  -13.2483053281580574  20.7658572197613793 -10.2106639636822525 0 0 0
73        9    3    0.0494510000000000  -28.6922739475305626 -3.6830580799381152  -28.8592651079637825 0 0 0
74        9    5   -0.1036900000000000  -27.9317841071837627 -4.7793047488748570  -28.3503099039679860 0 0 0
75        9    4    0.2726430000000000  -27.3261915371405024 -4.5213116892579128  -27.1648690988250650 0 0 0
76        9    6   -0.3717970000000000  -27.3774903291670739 -3.4796130176177975  -26.5314575355900466 0 0 0
77        9    1    0.0319320000000000  -29.1303119951903930 -3.9883641233022717  -29.8135833581757765 0 0 0
78        9    1    0.0319320000000000  -28.0467045554477359 -2.8169474131868979  -29.0359642733425751 0 0 0
79        9    1    0.0319320000000000  -29.5043244264084592 -3.4277944475491080  -28.1711750499526481 0 0 0
80        9    2    0.0575970000000000  -26.7653942453181735 -5.4142457864711329  -26.8478508155688012 0 0 0
81        10   3    0.0494510000000000   27.2374214029203863 -28.6506748875935635  12.0449618246031385 0 0 0
82        10   5   -0.1036900000000000   28.4449824957411685 -28.3558303619261594  11.3421105822413910 0 0 0
83        10   4    0.2726430000000000   29.2219431018160307 -27.4286477473579922  11.9546767403421548 0 0 0
84        10   6   -0.3717970000000000   28.9826159237112790 -26.8560180911799407  13.0052935475967395 0 0 0
85        10   1    0.0319320000000000   26.6838411829310687 -29.3976674044911874  11.4693199622134010 0 0 0
86        10   1    0.0319320000000000   26.6167983476381593 -27.7535740982832841  12.1353350461403586 0 0 0
87        10   1    0.0319320000000000   27.4606323794437905 -29.0690846914304153  13.0314523345487210 0 0 0
88        10   2    0.0575970000000000   30.1262403091847730 -27.2629778611241242  11.3487678809083707 0 0 0
89        11   3    0.0494510000000000  -27.5453968445961301  4.0539786100357311   11.1814554134070150 0 0 0
90        11   5   -0.1036900000000000  -27.8929868113929693  4.7312779632024338   12.3895877560260459 0 0 0
91        11   4    0.2726430000000000  -28.7683827118119986  4.0477457869585143   13.1674299403853272 0 0 0
92        11   6   -0.3717970000000000  -29.2571908999616213  2.9555355643495753   12.9284293507910562 0 0 0
93        11   1    0.0319320000000000  -26.8464772526672135  4.6865253890084757   10.6271915679064080 0 0 0
94        11   1    0.0319320000000000  -28.4333914569511208  3.8937156017417127   10.5618495235858756 0 0 0
95        11   1    0.0319320000000000  -27.0506914359084440  3.1032645948946405   11.4038578644489856 0 0 0
96        11   2    0.0575970000000000  -28.9799577300971691  4.6385957960070234   14.0721165020435635 0 0 0
97        12   3    0.0494510000000000   3.2523485420134413   3.6747811438341955   19.4771032741946186 0 0 0
98        12   5   -0.1036900000000000   3.9458168819084936   4.8265718667911424   19.9583690512591438 0 0 0
99        12   4    0.2726430000000000   4.9664029089297266   4.5373251456897536   20.8029477497716755 0 0 0
100       12   6   -0.3717970000000000   5.3205683629761200   3.4272520201311631   21.1652768599362986 0 0 0
101       12   1    0.0319320000000000   2.4505419491457507   4.0137388171243034   18.8152677074926906 0 0 0
102       12   1    0.0319320000000000   2.8043667227206583   3.1210375009844040   20.3082533146124433 0 0 0
103       12   1    0.0319320000000000   3.9278032759251955   3.0330772212972370   18.9026205430034153 0 0 0
104       12   2    0.0575970000000000   5.4427906625786964   5.4768555903459006   21.1233580307201905 0 0 0
105       13   3    0.0494510000000000  -19.3406609099658837  3.3397001625198772  -12.2868060979263145 0 0 0
106       13   5   -0.1036900000000000  -19.6602960879659427  4.7226269617783174  -12.1303331706267912 0 0 0
107       13   4    0.2726430000000000  -20.9399331037924448  4.9477707200518015  -11.7425032104159399 0 0 0
108       13   6   -0.3717970000000000  -21.7956677463304160  4.1048281538693141  -11.5276917845604103 0 0 0
109       13   1    0.0319320000000000  -18.2971903253603330  3.2668737408534105  -12.6056757976003553 0 0 0
110       13   1    0.0319320000000000  -19.9707628498546228  2.8846836345466542  -13.0575600318894320 0 0 0
111       13   1    0.0319320000000000  -19.4496616503692010  2.8110963361404124  -11.3345717446662881 0 0 0
112       13   2    0.0575970000000000  -21.0990238573516216  6.0330595964383082  -11.6467760809087650 0 0 0
113       14   3    0.0494510000000000   27.7221252482390597  3.3510804258686395  -20.7515729449193032 0 0 0
114       14   5   -0.1036900000000000   28.2380604426674182  4.6671646560043625  -20.5494093219842142 0 0 0
115       14   4    0.2726430000000000   28.5861103202130238  4.9268786904739938  -19.2648928428217197 0 0 0
116       14   6   -0.3717970000000000   28.4976880774256074  4.1635527340441723  -18.3170041952364997 0 0 0
117       14   1    0.0319320000000000   27.4668575883391810  3.2458231351940086  -21.8096711249428203 0 0 0
118       14   1    0.0319320000000000   26.8139956734262377  3.1994236041377446  -20.1596008122367394 0 0 0
119       14   1    0.0319320000000000   28.4783561627587503  2.6004057928782096  -20.5012614799213502 0 0 0
120       14   2    0.0575970000000000   28.9712816303173852  5.9563102675969670  -19.1997838089278403 0 0 0
121       15   3    0.0494510000000000  -27.1083364029250902 -11.9716610399184322 -20.3208872465762340 0 0 0
122       15   5   -0.1036900000000000  -28.2412128399298936 -11.2785475391501091 -19.7961762693402115 0 0 0
123       15   4    0.2726430000000000  -29.3607660561333645 -12.0396528987260236 -19.7194174919052934 0 0 0
124       15   6   -0.3717970000000000  -29.4704987738615003 -13.2100796263148084 -20.0465839678862530 0 0 0
125       15   1    0.0319320000000000  -26.2667305541150000 -11.2739710787613419 -20.3481039206800318 0 0 0
126       15   1    0.0319320000000000  -27.3067176888470691 -12.3147879752120541 -21.3412003817322642 0 0 0
127       15   1    0.0319320000000000  -26.8402830670194170 -12.8128176063152921 -19.6738505628269174 0 0 0
128       15   2    0.0575970000000000  -30.1799297605553214 -11.4304001541962137 -19.3069766900432711 0 0 0
129       16   3    0.0494510000000000   19.3203050215591752 -4.3035137119451470   4.6467927110832647  0 0 0
130       16   5   -0.1036900000000000   20.4855700947443822 -4.7192561630008534   3.9337341723188310  0 0 0
131       16   4    0.2726430000000000   21.0628788559574893 -3.7315454461580906   3.2059190747421416  0 0 0
132       16   6   -0.3717970000000000   20.6843706189748104 -2.5749036671386829   3.1170978691486644  0 0 0
133       16   1    0.0319320000000000   18.9297661898438392 -5.1676486663215142   5.1913683583053745  0 0 0
134       16   1    0.0319320000000000   18.5493552232450867 -3.9544738947726485   3.9525753556335230  0 0 0
135       16   1    0.0319320000000000   19.5725592548267215 -3.5226125162431856   5.3710955169247692  0 0 0
136       16   2    0.0575970000000000   21.9483912718389647 -4.1366852406179859   2.6920562480415340  0 0 0
137       17   3    0.0494510000000000   4.0588287786571984  -5.0212289509278607   19.9004811343237868 0 0 0
138       17   5   -0.1036900000000000   3.9969092880700257  -3.9953088220722006   20.8918392038396483 0 0 0
139       17   4    0.2726430000000000   3.9550736657890462  -2.7408361154141474   20.3788862906415602 0 0 0
140       17   6   -0.3717970000000000   3.9655553984594070  -2.4355252542323913   19.1975085744454752 0 0 0
141       17   1    0.0319320000000000   4.0959790340997504  -5.9863771315911922   20.4132396368206450 0 0 0
142       17   1    0.0319320000000000   4.9644721503202405  -4.9158934287311915   19.2948041302809301 0 0 0
143       17   1    0.0319320000000000   3.1649799486511880  -4.9984781241432872   19.2691570502136287 0 0 0
144       17   2    0.0575970000000000   3.9088410421512414  -2.0169914790858394   21.2072805104248090 0 0 0
145       18   3    0.0494510000000000  -11.7411038503582326  11.0648737297822919 -20.0328694718362676 0 0 0
146       18   5   -0.1036900000000000  -12.8595297432870623  11.9514035478804264 -20.0810914559228237 0 0 0
147       18   4    0.2726430000000000  -12.5168369771300600  13.2628505604219384 -20.1163204712316244 0 0 0
148       18   6   -0.3717970000000000  -11.3860129820470366  13.7213049598830157 -20.1104423117195630 0 0 0
149       18   1    0.0319320000000000  -12.1218012121031276  10.0402720298916428 -20.0001080716574293 0 0 0
150       18   1    0.0319320000000000  -11.1484355390471883  11.2430276990159044 -19.1300208919990951 0 0 0
151       18   1    0.0319320000000000  -11.1244252254581593  11.1768345654519692 -20.9302131490678676 0 0 0
152       18   2    0.0575970000000000  -13.4337723891634226  13.8713508262670810 -20.1521307075558056 0 0 0
153       19   3    0.0494510000000000   11.5879591007490479 -3.1162467015288620   27.9124697706707394 0 0 0
154       19   5   -0.1036900000000000   12.5977710344232054 -3.7929492125717048   28.6617964859675922 0 0 0
155       19   4    0.2726430000000000   12.6791715583676314 -5.1200772225996252   28.3959433650513091 0 0 0
156       19   6   -0.3717970000000000   11.9926828897688154 -5.7490697270607170   27.6072231141275815 0 0 0
157       19   1    0.0319320000000000   11.5992767492892934 -2.0621026135950293   28.2030976886443518 0 0 0
158       19   1    0.0319320000000000   10.5996801729156065 -3.5277207097715912   28.1407766331191169 0 0 0
159       19   1    0.0319320000000000   11.7975157217410800 -3.1822903454931346   26.8401928988273006 0 0 0
160       19   2    0.0575970000000000   13.4778606913396040 -5.5601827735774147   29.0129751869786823 0 0 0
161       20   3    0.0494510000000000  -20.0266753951099901  19.1682151690257783  4.4953274889393713  0 0 0
162       20   5   -0.1036900000000000  -20.0681234976426026  19.8247314098051781  3.2278869828447743  0 0 0
163       20   4    0.2726430000000000  -20.1226119347106156  21.1768493979114147  3.3137976263381623  0 0 0
164       20   6   -0.3717970000000000  -20.1381204848761719  21.8423642594380780  4.3364546318678316  0 0 0
165       20   1    0.0319320000000000  -19.9917493315680446  18.0897944924410901  4.3175595266961810  0 0 0
166       20   1    0.0319320000000000  -20.9273082216730231  19.3945876992414199  5.0747635176611192  0 0 0
167       20   1    0.0319320000000000  -19.1270491422851237  19.4576512552270060  5.0475527938945373  0 0 0
168       20   2    0.0575970000000000  -20.1515585231249084  21.5990028479004934  2.2972967379561147  0 0 0
169       21   3    0.0494510000000000   3.8085230378003319  -11.0412597515666366 -20.1212630616829493 0 0 0
170       21   5   -0.1036900000000000   3.3645149827119845  -12.3105991709659222 -19.6408765074625506 0 0 0
171       21   4    0.2726430000000000   4.1962875311769672  -13.3349755684566578 -19.9529343644121724 0 0 0
172       21   6   -0.3717970000000000   5.2406650162931783  -13.2610729135700502 -20.5796655373907065 0 0 0
173       21   1    0.0319320000000000   3.0708349624102054  -10.2900157399849874 -19.8258630405422451 0 0 0
174       21   1    0.0319320000000000   3.8784292612910791  -11.0470353158787074 -21.2136045306724412 0 0 0
175       21   1    0.0319320000000000   4.7711051421584871  -10.7769520412061262 -19.6722301488431128 0 0 0
176       21   2    0.0575970000000000   3.7802793723558477  -14.2700074169651892 -19.5467593399843018 0 0 0
177       22   3    0.0494510000000000   3.4801847251947140  -20.2527623518020015 -12.8940364641664864 0 0 0
178       22   5   -0.1036900000000000   3.4052924410864680  -19.9309585038080073 -11.5048027238271189 0 0 0
179       22   4    0.2726430000000000   4.6152864326633081  -19.8212415783019900 -10.9027650017486160 0 0 0
180       22   6   -0.3717970000000000   5.7068917087099580  -19.9682491350742986 -11.4278979340228659 0 0 0
181       22   1    0.0319320000000000   2.4598880424339717  -20.3249040240207677 -13.2808215366252256 0 0 0
182       22   1    0.0319320000000000   3.9742775285138539  -21.2187616755757347 -13.0384238953262148 0 0 0
183       22   1    0.0319320000000000   4.0036488873297627  -19.4633501519064502 -13.4425499825198056 0 0 0
184       22   2    0.0575970000000000   4.4651695402660447  -19.5729691105012300 -9.8406203803579544  0 0 0
185       23   3    0.0494510000000000   11.6707052119882650 -3.2380235622888782  -12.5946353794235613 0 0 0
186       23   5   -0.1036900000000000   12.6338364791819320 -4.2909559389778931  -12.5412637729839531 0 0 0
187       23   4    0.2726430000000000   12.5790441607575723 -5.0251529598893416  -11.4026131599658687 0 0 0
188       23   6   -0.3717970000000000   11.8108472382359135 -4.8650363971443724  -10.4681539197830844 0 0 0
189       23   1    0.0319320000000000   11.8018260338985321 -2.7062622678421375  -13.5411287443183763 0 0 0
190       23   1    0.0319320000000000   11.8296464600519133 -2.5302074601316891  -11.7749621718030166 0 0 0
191       23   1    0.0319320000000000   10.6553192381271717 -3.6455830831749254  -12.5639761031549568 0 0 0
192       23   2    0.0575970000000000   13.3506930963529928 -5.8094176367488517  -11.4451846671614810 0 0 0
193       24   3    0.0494510000000000  -12.4981573749947685  4.7897293305772717  -28.5813313471604253 0 0 0
194       24   5   -0.1036900000000000  -11.8488678976894821  4.3706190418498698  -27.3805371530357746 0 0 0
195       24   4    0.2726430000000000  -11.4427136357543038  3.0771022905211405  -27.4011723594529855 0 0 0
196       24   6   -0.3717970000000000  -11.5812771000325405  2.2839821995780722  -28.3180903409047993 0 0 0
197       24   1    0.0319320000000000  -12.7906602540103069  5.8365211187199133  -28.4609924422096263 0 0 0
198       24   1    0.0319320000000000  -13.4007965798004367  4.1960627412953357  -28.7572079198417327 0 0 0
199       24   1    0.0319320000000000  -11.8138355932739199  4.7168498678363173  -29.4324751147890282 0 0 0
200       24   2    0.0575970000000000  -10.9556094830385327  2.8397727158201871  -26.4426684659922842 0 0 0
201       25   3    0.0494510000000000  -4.6012988501136176  -19.3873989757353300  27.6116051685663955 0 0 0
202       25   5   -0.1036900000000000  -4.5864893316587763  -20.5438394368372634  28.4491988016543580 0 0 0
203       25   4    0.2726430000000000  -3.3402472148284925  -20.9851128232231332  28.7504147821499849 0 0 0
204       25   6   -0.3717970000000000  -2.2847956158023530  -20.4966958999508684  28.3810251123236448 0 0 0
205       25   1    0.0319320000000000  -5.6443935317438099  -19.1185114787566341  27.4232824850592216 0 0 0
206       25   1    0.0319320000000000  -4.1204268597151570  -19.6020066708694713  26.6520032781246314 0 0 0
207       25   1    0.0319320000000000  -4.1114019216116109  -18.5458866912119120  28.1115166653740793 0 0 0
208       25   2    0.0575970000000000  -3.4215859807242941  -21.8737445544058673  29.3954288501343513 0 0 0
209       26   3    0.0494510000000000  -4.4068768580650586   11.4697062511739922  27.3458736431962208 0 0 0
210       26   5   -0.1036900000000000  -3.3258096745843382   12.3161865926390703  27.7381767561257959 0 0 0
211       26   4    0.2726430000000000  -3.4369191171818065   12.7951607450327067  29.0018266820564321 0 0 0
212       26   6   -0.3717970000000000  -4.3415329671875273   12.5711073981299037  29.7895142959742003 0 0 0
213       26   1    0.0319320000000000  -4.2270990862723945   11.1448592328776250  26.3172985115343536 0 0 0
214       26   1    0.0319320000000000  -5.3539672174854340   12.0176858134774527  27.3753418038219642 0 0 0
215       26   1    0.0319320000000000  -4.4513765139378529   10.5832608499321328  27.9864107314622963 0 0 0
216       26   2    0.0575970000000000  -2.5670578714836751   13.4339510353314040  29.2200327192153892 0 0 0
217       27   3    0.0494510000000000  -27.6885078595356617  12.1669690617131057  29.0257181917469360 0 0 0
218       27   5   -0.1036900000000000  -27.4179038104358952  12.0071981502943874  27.6327416447170684 0 0 0
219       27   4    0.2726430000000000  -28.5318538975296754  11.8791556324478655  26.8703159110962062 0 0 0
220       27   6   -0.3717970000000000  -29.6878256588375642  11.8893057088920884  27.2609617353499658 0 0 0
221       27   1    0.0319320000000000  -26.7322780101007993  12.2536937365275218  29.5490877932983800 0 0 0
222       27   1    0.0319320000000000  -28.2191057031777106  11.2930132575472406  29.4166111474102188 0 0 0
223       27   1    0.0319320000000000  -28.2640564365145721  13.0811728852597202  29.2018676588205608 0 0 0
224       27   2    0.0575970000000000  -28.2329437672547741  11.7614094859123544  25.8171710609473344 0 0 0
225       28   3    0.0494510000000000  -20.1766730311569091 -19.0606897941064446  3.8843140796489024  0 0 0
226       28   5   -0.1036900000000000  -20.2926301404470557 -20.1486093661816064  4.8019860851066678  0 0 0
227       28   4    0.2726430000000000  -19.9598544166422762 -21.3506642236041166  4.2701053469771688  0 0 0
228       28   6   -0.3717970000000000  -19.5881475795930484 -21.5646786121970102  3.1277351067458969  0 0 0
229       28   1    0.0319320000000000  -20.4721017609119507 -18.1453418917052964  4.4045760494344535  0 0 0
230       28   1    0.0319320000000000  -20.8463846342932335 -19.2052414392128199  3.0306623282762555  0 0 0
231       28   1    0.0319320000000000  -19.1402805225176031 -18.9501358707856546  3.5500659259146916  0 0 0
232       28   2    0.0575970000000000  -20.0771244454284101 -22.1278353331975204  5.0411943840940676  0 0 0
233       29   3    0.0494510000000000  -28.3747507020743797 -19.4338921544089587 -11.2901420119835532 0 0 0
234       29   5   -0.1036900000000000  -28.1634778183974746 -20.7963734848251534 -11.6618211060824404 0 0 0
235       29   4    0.2726430000000000  -27.7540535918696243 -20.9562257479408451 -12.9445493465561938 0 0 0
236       29   6   -0.3717970000000000  -27.5617996024182084 -20.0727151272412101 -13.7639547917729992 0 0 0
237       29   1    0.0319320000000000  -28.7070986758164004 -19.4142414647010852 -10.2485225475227644 0 0 0
238       29   1    0.0319320000000000  -29.1552421115447800 -18.9829734225971691 -11.9111376473499568 0 0 0
239       29   1    0.0319320000000000  -27.4417847381819122 -18.8666749861052665 -11.3669054433800323 0 0 0
240       29   2    0.0575970000000000  -27.6162679030838980 -22.0301001431707917 -13.1448850239463368 0 0 0
241       30   3    0.0494510000000000   12.8457404719511441  12.0613678285818828  11.4105282668474750 0 0 0
242       30   5   -0.1036900000000000   12.3308285793865036  12.4803795208870127  12.6748193332981955 0 0 0
243       30   4    0.2726430000000000   11.0610474289669707  12.0681458108716821  12.9120784333687144 0 0 0
244       30   6   -0.3717970000000000   10.3599880394056569  11.4015024533478950  12.1683847711815734 0 0 0
245       30   1    0.0319320000000000   13.8641511811989595  12.4478735685629864  11.3142714527976320 0 0 0
246       30   1    0.0319320000000000   12.2414760721575746  12.4709171423030227  10.5948910822656117 0 0 0
247       30   1    0.0319320000000000   12.8830899430169836  10.9688580582314472  11.3550228716145796 0 0 0
248       30   2    0.0575970000000000   10.7455962025104999  12.4328735358083673  13.9019217072205024 0 0 0
249       31   3    0.0494510000000000   11.9576476299466083 -21.0542377992834631 -28.3573826703608027 0 0 0
250       31   5   -0.1036900000000000   12.6979231803328751 -19.8469832607989289 -28.5408643994479654 0 0 0
251       31   4    0.2726430000000000   12.2246224958002845 -18.8002972819324903 -27.8204425744971893 0 0 0
252       31   6   -0.3717970000000000   11.2652570852243628 -18.8086232217837583 -27.0664355554873666 0 0 0
253       31   1    0.0319320000000000   12.4117061760760805 -21.8285995828699839 -28.9818881537694715 0 0 0
254       31   1    0.0319320000000000   10.9185053684695692 -20.9194409505094434 -28.6738369199340219 0 0 0
255       31   1    0.0319320000000000   12.0062936627059891 -21.3786020642605870 -27.3131246479819261 0 0 0
256       31   2    0.0575970000000000   12.8499623200385180 -17.9164123695518214 -28.0205002219079340 0 0 0
257       32   3    0.0494510000000000  -11.5660272434052871 -27.2146579542271212 -19.8664897217436334 0 0 0
258       32   5   -0.1036900000000000  -12.2118634618341435 -28.3591904036781628 -19.3078502966945926 0 0 0
259       32   4    0.2726430000000000  -12.6613583637590210 -29.2405468564136335 -20.2350707767127602 0 0 0
260       32   6   -0.3717970000000000  -12.5623239779972646 -29.1377626692918597 -21.4469311227570145 0 0 0
261       32   1    0.0319320000000000  -11.2497130763228697 -26.5682658562325216 -19.0431216161231305 0 0 0
262       32   1    0.0319320000000000  -12.2597750389573967 -26.6534000568779241 -20.5003932561475040 0 0 0
263       32   1    0.0319320000000000  -10.6784082079812510 -27.5138398034565554 -20.4327724243265187 0 0 0
264       32   2    0.0575970000000000  -13.1424485483370592 -30.0868115432088850 -19.7205673164853152 0 0 0
265       33   3    0.0494510000000000   4.8247512405146153   28.3937900124699958  4.5611286174222725  0 0 0
266       33   5   -0.1036900000000000   4.1458145654431631   27.2856024866046774  3.9694341397909265  0 0 0
267       33   4    0.2726430000000000   3.0064259065559664   27.6265628479943253  3.3181951681681392  0 0 0
268       33   6   -0.3717970000000000   2.5398030773502818   28.7482466475884237  3.2038864371270739  0 0 0
269       33   1    0.0319320000000000   5.7189601676944992   28.0145781473374171  5.0635240691278707  0 0 0
270       33   1    0.0319320000000000   4.1884454232130581   28.8801646288558871  5.3072417197758295  0 0 0
271       33   1    0.0319320000000000   5.1359259512626636   29.1076125890514028  3.7919205449519113  0 0 0