
                                 *****************
                                 * O   R   C   A *
                                 *****************

           --- An Ab Initio, DFT and Semiempirical electronic structure package ---

                  #######################################################
                  #                        -***-                        #
                  #          Department of theory and spectroscopy      #
                  #               Directorship: Frank Neese             #
                  #        Max Planck Institute fuer Kohlenforschung    #
                  #                Kaiser Wilhelm Platz 1               #
                  #                 D-45470 Muelheim/Ruhr               #
                  #                      Germany                        #
                  #                                                     #
                  #                  All rights reserved                #
                  #                        -***-                        #
                  #######################################################


                         Program Version 4.1.2  - RELEASE  -


 With contributions from (in alphabetic order):
   Daniel Aravena         : Magnetic Properties
   Michael Atanasov       : Ab Initio Ligand Field Theory
   Alexander A. Auer      : GIAO ZORA
   Ute Becker             : Parallelization
   Giovanni Bistoni       : ED, Open-shell LED
   Martin Brehm           : Molecular dynamics
   Dmytro Bykov           : SCF Hessian
   Vijay G. Chilkuri      : MRCI spin determinant printing
   Dipayan Datta          : RHF DLPNO-CCSD density
   Achintya Kumar Dutta   : EOM-CC, STEOM-CC
   Dmitry Ganyushin       : Spin-Orbit,Spin-Spin,Magnetic field MRCI
   Miquel Garcia          : C-PCM Hessian
   Yang Guo               : DLPNO-NEVPT2, CIM, IAO-localization
   Andreas Hansen         : Spin unrestricted coupled pair/coupled cluster methods
   Benjamin Helmich-Paris : CASSCF linear response (MC-RPA)
   Lee Huntington         : MR-EOM, pCC
   Robert Izsak           : Overlap fitted RIJCOSX, COSX-SCS-MP3, EOM
   Christian Kollmar      : KDIIS, OOCD, Brueckner-CCSD(T), CCSD density
   Simone Kossmann        : Meta GGA functionals, TD-DFT gradient, OOMP2, MP2 Hessian
   Martin Krupicka        : AUTO-CI
   Lucas Lang             : DCDCAS
   Dagmar Lenk            : GEPOL surface, SMD
   Dimitrios Liakos       : Extrapolation schemes; parallel MDCI
   Dimitrios Manganas     : ROCIS; embedding schemes
   Dimitrios Pantazis     : SARC Basis sets
   Taras Petrenko         : DFT Hessian,TD-DFT gradient, ASA, ECA, R-Raman, ABS, FL, XAS/XES, NRVS
   Peter Pinski           : DLPNO-MP2, DLPNO-MP2 Gradient
   Christoph Reimann      : Effective Core Potentials
   Marius Retegan         : Local ZFS, SOC
   Christoph Riplinger    : Optimizer, TS searches, QM/MM, DLPNO-CCSD(T), (RO)-DLPNO pert. Triples
   Tobias Risthaus        : Range-separated hybrids, TD-DFT gradient, RPA, STAB
   Michael Roemelt        : Restricted open shell CIS
   Masaaki Saitow         : Open-shell DLPNO
   Barbara Sandhoefer     : DKH picture change effects
   Avijit Sen             : IP-ROCIS
   Kantharuban Sivalingam : CASSCF convergence, NEVPT2, FIC-MRCI
   Bernardo de Souza      : ESD, SOC TD-DFT
   Georgi Stoychev        : AutoAux, RI-MP2 NMR
   Willem Van den Heuvel  : Paramagnetic NMR
   Boris Wezisla          : Elementary symmetry handling
   Frank Wennmohs         : Technical directorship


 We gratefully acknowledge several colleagues who have allowed us to
 interface, adapt or use parts of their codes:
   Stefan Grimme, W. Hujo, H. Kruse,             : VdW corrections, initial TS optimization,
                  C. Bannwarth                     DFT functionals, gCP, sTDA/sTD-DF
   Ed Valeev                                     : LibInt (2-el integral package), F12 methods
   Garnet Chan, S. Sharma, J. Yang, R. Olivares  : DMRG
   Ulf Ekstrom                                   : XCFun DFT Library
   Mihaly Kallay                                 : mrcc  (arbitrary order and MRCC methods)
   Andreas Klamt, Michael Diedenhofen            : otool_cosmo (COSMO solvation model)
   Jiri Pittner, Ondrej Demel                    : Mk-CCSD
   Frank Weinhold                                : gennbo (NPA and NBO analysis)
   Christopher J. Cramer and Donald G. Truhlar   : smd solvation model
   Lars Goerigk                                  : TD-DFT with DH, B97 family of functionals
   V. Asgeirsson, H. Jonsson                     : NEB implementation
   FAccTs GmbH                                   : IRC, NEB, NEB-TS, Multilevel


 Your calculation uses the libint2 library for the computation of 2-el integrals
 For citations please refer to: http://libint.valeyev.net

 This ORCA versions uses:
   CBLAS   interface :  Fast vector & matrix operations
   LAPACKE interface :  Fast linear algebra routines
   SCALAPACK package :  Parallel linear algebra routines


Your calculation utilizes the atom-pairwise dispersion correction
with the zero-damping scheme (D30)
Cite in your paper:
S.Grimme, J.Antony, S.Ehrlich and H.Krieg, J.Chem.Phys., 132, (2010), 154104 
   

XCFun DFT library Copyright 2009-2010 Ulf Ekstrom and contributors.
See http://admol.org/xcfun for more information. This is free soft-
ware; see the source code for copying conditions. There is ABSOLUTELY
NO WARRANTY; not even for MERCHANTABILITY or FITNESS FOR A PARTICULAR
PURPOSE. For details see the documentation. Scientific users of this 
library should cite U. Ekstrom, L. Visscher, R. Bast, A. J. Thorvald-
sen and K. Ruud; J.Chem.Theor.Comp. 2010, DOI: 10.1021/ct100117s
XCFun Version 0.99 
----- Orbital basis set information -----
Your calculation utilizes the basis: def2-TZVP
   F. Weigend and R. Ahlrichs, Phys. Chem. Chem. Phys. 7, 3297 (2005).

================================================================================
                                        WARNINGS
                       Please study these warnings very carefully!
================================================================================


INFO   : the flag for use of LIBINT has been found!

Your calculation utilizes the atom-pairwise dispersion correction
with the zero-damping scheme (D30)
Cite in your paper:
S.Grimme, J.Antony, S.Ehrlich and H.Krieg, J.Chem.Phys., 132, (2010), 154104 
   

XCFun DFT library Copyright 2009-2010 Ulf Ekstrom and contributors.
See http://admol.org/xcfun for more information. This is free soft-
ware; see the source code for copying conditions. There is ABSOLUTELY
NO WARRANTY; not even for MERCHANTABILITY or FITNESS FOR A PARTICULAR
PURPOSE. For details see the documentation. Scientific users of this 
library should cite U. Ekstrom, L. Visscher, R. Bast, A. J. Thorvald-
sen and K. Ruud; J.Chem.Theor.Comp. 2010, DOI: 10.1021/ct100117s
XCFun Version 0.99 
----- Orbital basis set information -----
Your calculation utilizes the basis: def2-TZVP
   F. Weigend and R. Ahlrichs, Phys. Chem. Chem. Phys. 7, 3297 (2005).

================================================================================
                                        WARNINGS
                       Please study these warnings very carefully!
================================================================================


WARNING: MOInp is set but Guess=PModel. MOInp will be ignored!
         To read the initial guess from a file you must also specify
         'MORead' in the simple input or 'Guess MORead' in the %scf block


INFO   : the flag for use of LIBINT has been found!

Your calculation utilizes the atom-pairwise dispersion correction
with the zero-damping scheme (D30)
Cite in your paper:
S.Grimme, J.Antony, S.Ehrlich and H.Krieg, J.Chem.Phys., 132, (2010), 154104 
   

XCFun DFT library Copyright 2009-2010 Ulf Ekstrom and contributors.
See http://admol.org/xcfun for more information. This is free soft-
ware; see the source code for copying conditions. There is ABSOLUTELY
NO WARRANTY; not even for MERCHANTABILITY or FITNESS FOR A PARTICULAR
PURPOSE. For details see the documentation. Scientific users of this 
library should cite U. Ekstrom, L. Visscher, R. Bast, A. J. Thorvald-
sen and K. Ruud; J.Chem.Theor.Comp. 2010, DOI: 10.1021/ct100117s
XCFun Version 0.99 
----- Orbital basis set information -----
Your calculation utilizes the basis: def2-TZVP
   F. Weigend and R. Ahlrichs, Phys. Chem. Chem. Phys. 7, 3297 (2005).

================================================================================
                                        WARNINGS
                       Please study these warnings very carefully!
================================================================================


WARNING: MOInp is set but Guess=PModel. MOInp will be ignored!
         To read the initial guess from a file you must also specify
         'MORead' in the simple input or 'Guess MORead' in the %scf block


INFO   : the flag for use of LIBINT has been found!

================================================================================
                                       INPUT FILE
================================================================================
NAME = 12-1.in
|  1> #Run DFT-D3 single point of the dimer
|  2> ! wB97X-D3 def2-TZVP TIGHTSCF CHELPG PMODEL PAL8
|  3> 
|  4> %base "12-1_DFT_AB"
|  5> 
|  6> %scf
|  7> MaxIter 1000
|  8> end
|  9> 
| 10> * xyz 0 1
| 11>   C                      -3.318311            -0.619609            -4.975786           
| 12>   O                      -2.848868            -0.188945            -3.711665           
| 13>   H                      -2.709265            0.711760             -3.772373           
| 14>   H                      -2.662649            -0.195860            -5.703031           
| 15>   H                      -3.228268            -1.702189            -5.124246           
| 16>   H                      -4.392851            -0.308560            -5.145854           
| 17>   C                      -7.696293            1.609487             -5.820513           
| 18>   O                      -7.350262            2.091528             -7.094658           
| 19>   H                      -6.480464            1.701876             -7.237686           
| 20>   H                      -8.568349            0.985886             -5.933055           
| 21>   H                      -6.828819            0.999782             -5.470952           
| 22>   H                      -7.973765            2.364178             -5.127782           
| 23> *
| 24> 
| 25> #Run DFT-D3 single point of the molecule with dimer basis set
| 26> $new_job
| 27> %base "12-1_DFT_A"
| 28> ! wB97X-D3 def2-TZVP TIGHTSCF CHELPG PMODEL
| 29> 
| 30> %scf
| 31> MaxIter 1000
| 32> end
| 33> 
| 34> * xyz 0 1
| 35>   C                      -3.318311            -0.619609            -4.975786           
| 36>   O                      -2.848868            -0.188945            -3.711665           
| 37>   H                      -2.709265            0.711760             -3.772373           
| 38>   H                      -2.662649            -0.195860            -5.703031           
| 39>   H                      -3.228268            -1.702189            -5.124246           
| 40>   H                      -4.392851            -0.308560            -5.145854           
| 41>   C                    : -7.696293            1.609487             -5.820513           
| 42>   O                    : -7.350262            2.091528             -7.094658           
| 43>   H                    : -6.480464            1.701876             -7.237686           
| 44>   H                    : -8.568349            0.985886             -5.933055           
| 45>   H                    : -6.828819            0.999782             -5.470952           
| 46>   H                    : -7.973765            2.364178             -5.127782           
| 47> *
| 48> 
| 49> #Run DFT-D3 single point of the particle with dimer basis set
| 50> $new_job
| 51> %base "12-1_DFT_B"
| 52> ! wB97X-D3 def2-TZVP TIGHTSCF CHELPG PMODEL
| 53> 
| 54> %scf
| 55> MaxIter 1000
| 56> end
| 57> 
| 58> * xyz 0 1
| 59>   C                    : -3.318311            -0.619609            -4.975786           
| 60>   O                    : -2.848868            -0.188945            -3.711665           
| 61>   H                    : -2.709265            0.711760             -3.772373           
| 62>   H                    : -2.662649            -0.195860            -5.703031           
| 63>   H                    : -3.228268            -1.702189            -5.124246           
| 64>   H                    : -4.392851            -0.308560            -5.145854           
| 65>   C                      -7.696293            1.609487             -5.820513           
| 66>   O                      -7.350262            2.091528             -7.094658           
| 67>   H                      -6.480464            1.701876             -7.237686           
| 68>   H                      -8.568349            0.985886             -5.933055           
| 69>   H                      -6.828819            0.999782             -5.470952           
| 70>   H                      -7.973765            2.364178             -5.127782           
| 71> *
| 72> 
| 73>                          ****END OF INPUT****
================================================================================


                 $$$$$$$$$$$$$$$$$$$$$$$$$$$$$$$$$$$$$$$$$$$$$$ 
                 $ THERE ARE  3 JOBS TO BE PROCESSED THIS RUN $
                 $$$$$$$$$$$$$$$$$$$$$$$$$$$$$$$$$$$$$$$$$$$$$$ 




                 $$$$$$$$$$$$$$$$  JOB NUMBER  1 $$$$$$$$$$$$$$


                       ****************************
                       * Single Point Calculation *
                       ****************************

---------------------------------
CARTESIAN COORDINATES (ANGSTROEM)
---------------------------------
  C     -3.318311   -0.619609   -4.975786
  O     -2.848868   -0.188945   -3.711665
  H     -2.709265    0.711760   -3.772373
  H     -2.662649   -0.195860   -5.703031
  H     -3.228268   -1.702189   -5.124246
  H     -4.392851   -0.308560   -5.145854
  C     -7.696293    1.609487   -5.820513
  O     -7.350262    2.091528   -7.094658
  H     -6.480464    1.701876   -7.237686
  H     -8.568349    0.985886   -5.933055
  H     -6.828819    0.999782   -5.470952
  H     -7.973765    2.364178   -5.127782

----------------------------
CARTESIAN COORDINATES (A.U.)
----------------------------
  NO LB      ZA    FRAG     MASS         X           Y           Z
   0 C     6.0000    0    12.011   -6.270699   -1.170891   -9.402873
   1 O     8.0000    0    15.999   -5.383580   -0.357054   -7.014030
   2 H     1.0000    0     1.008   -5.119769    1.345031   -7.128752
   3 H     1.0000    0     1.008   -5.031677   -0.370122  -10.777167
   4 H     1.0000    0     1.008   -6.100542   -3.216671   -9.683422
   5 H     1.0000    0     1.008   -8.301285   -0.583094   -9.724255
   6 C     6.0000    0    12.011  -14.543886    3.041490  -10.999176
   7 O     8.0000    0    15.999  -13.889982    3.952415  -13.406961
   8 H     1.0000    0     1.008  -12.246302    3.216080  -13.677244
   9 H     1.0000    0     1.008  -16.191833    1.863055  -11.211849
  10 H     1.0000    0     1.008  -12.904598    1.889314  -10.338601
  11 H     1.0000    0     1.008  -15.068232    4.467649   -9.690104

--------------------------------
INTERNAL COORDINATES (ANGSTROEM)
--------------------------------
 C      0   0   0     0.000000000000     0.00000000     0.00000000
 O      1   0   0     1.415574128679     0.00000000     0.00000000
 H      2   1   0     0.913479039660   106.93651304     0.00000000
 H      1   2   3     1.066930720933   106.50325945    48.01329515
 H      1   2   3     1.096415783291   113.20839292   162.22085765
 H      1   2   3     1.131508204400   111.43952979   285.79623633
 C      6   1   2     3.879020251024   166.12237270    72.38883562
 O      7   6   1     1.405541340433    96.75284622    60.46333034
 H      8   7   6     0.963760473713   102.59520120     2.37370737
 H      7   6   1     1.077972901376   114.90099055   173.49658925
 H      7   6   1     1.116442663294     9.53067906   235.75804829
 H      7   6   1     1.061331924812   117.43416058   298.51779159

---------------------------
INTERNAL COORDINATES (A.U.)
---------------------------
 C      0   0   0     0.000000000000     0.00000000     0.00000000
 O      1   0   0     2.675047425468     0.00000000     0.00000000
 H      2   1   0     1.726225214035   106.93651304     0.00000000
 H      1   2   3     2.016206866430   106.50325945    48.01329515
 H      1   2   3     2.071925559328   113.20839292   162.22085765
 H      1   2   3     2.138240624601   111.43952979   285.79623633
 C      6   1   2     7.330285942370   166.12237270    72.38883562
 O      7   6   1     2.656088203323    96.75284622    60.46333034
 H      8   7   6     1.821243354016   102.59520120     2.37370737
 H      7   6   1     2.037073563389   114.90099055   173.49658925
 H      7   6   1     2.109770877850     9.53067906   235.75804829
 H      7   6   1     2.005626675083   117.43416058   298.51779159

---------------------
BASIS SET INFORMATION
---------------------
There are 3 groups of distinct atoms

 Group   1 Type C   : 11s6p2d1f contracted to 5s3p2d1f pattern {62111/411/11/1}
 Group   2 Type O   : 11s6p2d1f contracted to 5s3p2d1f pattern {62111/411/11/1}
 Group   3 Type H   : 5s1p contracted to 3s1p pattern {311/1}

Atom   0C    basis set group =>   1
Atom   1O    basis set group =>   2
Atom   2H    basis set group =>   3
Atom   3H    basis set group =>   3
Atom   4H    basis set group =>   3
Atom   5H    basis set group =>   3
Atom   6C    basis set group =>   1
Atom   7O    basis set group =>   2
Atom   8H    basis set group =>   3
Atom   9H    basis set group =>   3
Atom  10H    basis set group =>   3
Atom  11H    basis set group =>   3


           ************************************************************
           *        Program running with 8 parallel MPI-processes     *
           *              working on a common directory               *
           ************************************************************
------------------------------------------------------------------------------
                           ORCA GTO INTEGRAL CALCULATION
------------------------------------------------------------------------------

                         BASIS SET STATISTICS AND STARTUP INFO

 # of primitive gaussian shells          ...  128
 # of primitive gaussian functions       ...  248
 # of contracted shells                  ...   76
 # of contracted basis functions         ...  172
 Highest angular momentum                ...    3
 Maximum contraction depth               ...    6
 Integral package used                   ... LIBINT
 Integral threshhold            Thresh   ...  2.500e-11
 Primitive cut-off              TCut     ...  2.500e-12


------------------------------ INTEGRAL EVALUATION ----------------------------


 * One electron integrals 
 Pre-screening matrix                    ... done
 Shell pair data                         ... done (   0.001 sec)



           ************************************************************
           *        Program running with 8 parallel MPI-processes     *
           *              working on a common directory               *
           ************************************************************
-------------------------------------------------------------------------------
                                 ORCA SCF
-------------------------------------------------------------------------------

------------
SCF SETTINGS
------------
Hamiltonian:
 Density Functional     Method          .... DFT(GTOs)
 Exchange Functional    Exchange        .... WB97X-D3
 Correlation Functional Correlation     .... WB97X-D3
 Gradients option       PostSCFGGA      .... off
 Hybrid DFT is turned on
   Fraction HF Exchange ScalHFX         ....  0.195728
   Scaling of DF-GGA-X  ScalDFX         ....  0.000000
   Scaling of DF-GGA-C  ScalDFC         ....  1.000000
   Scaling of DF-LDA-C  ScalLDAC        ....  1.000000
   Perturbative correction              ....  0.000000
   Density functional embedding theory  .... OFF
 Long-range corrected/Screened/Range-Separated Hybrid DFT is turned on
   Amount of maximum screened exact exchange              ....  0.804272
   Range separation parameter mu (erf(mu*r12)/r12)        ....  0.250000


General Settings:
 Integral files         IntName         .... 12-1_DFT_AB
 Hartree-Fock type      HFTyp           .... RHF
 Total Charge           Charge          ....    0
 Multiplicity           Mult            ....    1
 Number of Electrons    NEL             ....   36
 Basis Dimension        Dim             ....  172
 Nuclear Repulsion      ENuc            ....    113.4206718007 Eh

Convergence Acceleration:
 DIIS                   CNVDIIS         .... on
   Start iteration      DIISMaxIt       ....    12
   Startup error        DIISStart       ....  0.200000
   # of expansion vecs  DIISMaxEq       ....     5
   Bias factor          DIISBfac        ....   1.050
   Max. coefficient     DIISMaxC        ....  10.000
 Newton-Raphson         CNVNR           .... off
 SOSCF                  CNVSOSCF        .... on
   Start iteration      SOSCFMaxIt      ....   150
   Startup grad/error   SOSCFStart      ....  0.003300
 Level Shifting         CNVShift        .... on
   Level shift para.    LevelShift      ....    0.2500
   Turn off err/grad.   ShiftErr        ....    0.0010
 Zerner damping         CNVZerner       .... off
 Static damping         CNVDamp         .... on
   Fraction old density DampFac         ....    0.7000
   Max. Damping (<1)    DampMax         ....    0.9800
   Min. Damping (>=0)   DampMin         ....    0.0000
   Turn off err/grad.   DampErr         ....    0.1000
 Fernandez-Rico         CNVRico         .... off

SCF Procedure:
 Maximum # iterations   MaxIter         ....  1000
 SCF integral mode      SCFMode         .... Direct
   Integral package                     .... LIBINT
 Reset frequency        DirectResetFreq ....    20
 Integral Threshold     Thresh          ....  2.500e-11 Eh
 Primitive CutOff       TCut            ....  2.500e-12 Eh

Convergence Tolerance:
 Convergence Check Mode ConvCheckMode   .... Total+1el-Energy
 Convergence forced     ConvForced      .... 0
 Energy Change          TolE            ....  1.000e-08 Eh
 1-El. energy change                    ....  1.000e-05 Eh
 Orbital Gradient       TolG            ....  1.000e-05
 Orbital Rotation angle TolX            ....  1.000e-05
 DIIS Error             TolErr          ....  5.000e-07


Diagonalization of the overlap matrix:
Smallest eigenvalue                        ... 9.144e-04
Time for diagonalization                   ...    0.004 sec
Threshold for overlap eigenvalues          ... 1.000e-08
Number of eigenvalues below threshold      ... 0
Time for construction of square roots      ...    0.005 sec
Total time needed                          ...    0.009 sec

-------------------
DFT GRID GENERATION
-------------------

General Integration Accuracy     IntAcc      ...  4.340
Radial Grid Type                 RadialGrid  ... Gauss-Chebyshev
Angular Grid (max. acc.)         AngularGrid ... Lebedev-110
Angular grid pruning method      GridPruning ... 3 (G Style)
Weight generation scheme         WeightScheme... Becke
Basis function cutoff            BFCut       ...    1.0000e-11
Integration weight cutoff        WCut        ...    1.0000e-14
Grids for H and He will be reduced by one unit

# of grid points (after initial pruning)     ...  13096 (   0.0 sec)
# of grid points (after weights+screening)   ...  12565 (   0.0 sec)
nearest neighbour list constructed           ...    0.0 sec
Grid point re-assignment to atoms done       ...    0.0 sec
Grid point division into batches done        ...    0.0 sec
Reduced shell lists constructed in    0.0 sec

Total number of grid points                  ...    12565
Total number of batches                      ...      201
Average number of points per batch           ...       62
Average number of grid points per atom       ...     1047
Average number of shells per batch           ...    44.74 (58.87%)
Average number of basis functions per batch  ...    96.37 (56.03%)
Average number of large shells per batch     ...    36.67 (81.95%)
Average number of large basis fcns per batch ...    81.78 (84.86%)
Maximum spatial batch extension              ...  18.82, 16.23, 14.60 au
Average spatial batch extension              ...   0.45,  0.37,  0.36 au

Time for grid setup =    0.037 sec

------------------------------
INITIAL GUESS: MODEL POTENTIAL
------------------------------
Loading Hartree-Fock densities                     ... done
Calculating cut-offs                               ... done
Setting up the integral package                    ... done
Initializing the effective Hamiltonian             ... done
Starting the Coulomb interaction                   ... done (   0.0 sec)
Reading the grid                                   ... done
Mapping shells                                     ... done
Starting the XC term evaluation                    ... done (   0.0 sec)
  promolecular density results
     # of electrons  =     35.997639816
     EX              =    -28.877367335
     EC              =     -1.153384404
     EX+EC           =    -30.030751739
Transforming the Hamiltonian                       ... done (   0.0 sec)
Diagonalizing the Hamiltonian                      ... done (   0.0 sec)
Back transforming the eigenvectors                 ... done (   0.0 sec)
Now organizing SCF variables                       ... done
                      ------------------
                      INITIAL GUESS DONE (   0.1 sec)
                      ------------------
--------------
SCF ITERATIONS
--------------
ITER       Energy         Delta-E        Max-DP      RMS-DP      [F,P]     Damp
               ***  Starting incremental Fock matrix formation  ***
  0   -231.2844166340   0.000000000000 0.03802152  0.00108420  0.2530876 0.7000
  1   -231.3601649340  -0.075748300017 0.02203667  0.00077224  0.1270401 0.7000
                               ***Turning on DIIS***
  2   -231.3950557477  -0.034890813702 0.03339221  0.00139893  0.0502835 0.0000
  3   -231.4517468666  -0.056691118949 0.01827614  0.00050752  0.0619902 0.0000
  4   -231.4610010232  -0.009254156568 0.00423519  0.00010236  0.0064421 0.0000
                      *** Initiating the SOSCF procedure ***
                           *** Shutting down DIIS ***
                      *** Re-Reading the Fockian *** 
                      *** Removing any level shift *** 
ITER      Energy       Delta-E        Grad      Rot      Max-DP    RMS-DP
  5   -231.46119441  -0.0001933839  0.000438  0.000438  0.000853  0.000037
               *** Restarting incremental Fock matrix formation ***
  6   -231.46121216  -0.0000177539  0.000197  0.000374  0.000555  0.000022
  7   -231.46121407  -0.0000019049  0.000079  0.000227  0.000271  0.000011
  8   -231.46121424  -0.0000001720  0.000031  0.000024  0.000060  0.000001
  9   -231.46121426  -0.0000000245  0.000016  0.000011  0.000023  0.000001
 10   -231.46121427  -0.0000000057  0.000003  0.000005  0.000006  0.000000
                  ***Gradient check signals convergence***
              ***Rediagonalizing the Fockian in SOSCF/NRSCF***

               *****************************************************
               *                     SUCCESS                       *
               *           SCF CONVERGED AFTER  11 CYCLES          *
               *****************************************************

Setting up the final grid:

General Integration Accuracy     IntAcc      ...  4.670
Radial Grid Type                 RadialGrid  ... Gauss-Chebyshev
Angular Grid (max. acc.)         AngularGrid ... Lebedev-302
Angular grid pruning method      GridPruning ... 3 (G Style)
Weight generation scheme         WeightScheme... Becke
Basis function cutoff            BFCut       ...    1.0000e-11
Integration weight cutoff        WCut        ...    1.0000e-14
Grids for H and He will be reduced by one unit

# of grid points (after initial pruning)     ...  52000 (   0.0 sec)
# of grid points (after weights+screening)   ...  49470 (   0.0 sec)
nearest neighbour list constructed           ...    0.0 sec
Grid point re-assignment to atoms done       ...    0.0 sec
Grid point division into batches done        ...    0.2 sec
Reduced shell lists constructed in    0.2 sec

Total number of grid points                  ...    49470
Total number of batches                      ...      781
Average number of points per batch           ...       63
Average number of grid points per atom       ...     4122
Average number of shells per batch           ...    42.57 (56.01%)
Average number of basis functions per batch  ...    91.90 (53.43%)
Average number of large shells per batch     ...    34.29 (80.56%)
Average number of large basis fcns per batch ...    76.96 (83.74%)
Maximum spatial batch extension              ...  20.28, 12.42, 15.20 au
Average spatial batch extension              ...   0.29,  0.25,  0.26 au

Final grid set up in    0.3 sec
Final integration                            ... done (   0.1 sec)
Change in XC energy                          ...    -0.000132082
Integrated number of electrons               ...    36.000011167
Previous integrated no of electrons          ...    36.001766171

----------------
TOTAL SCF ENERGY
----------------

Total Energy       :         -231.46134635 Eh           -6298.38344 eV

Components:
Nuclear Repulsion  :          113.42067180 Eh            3086.33339 eV
Electronic Energy  :         -344.88201815 Eh           -9384.71682 eV
One Electron Energy:         -539.40816024 Eh          -14678.04226 eV
Two Electron Energy:          194.52614209 Eh            5293.32543 eV

Virial components:
Potential Energy   :         -462.11115344 Eh          -12574.68377 eV
Kinetic Energy     :          230.64980709 Eh            6276.30033 eV
Virial Ratio       :            2.00351849


DFT components:
N(Alpha)           :       18.000005583348 electrons
N(Beta)            :       18.000005583348 electrons
N(Total)           :       36.000011166696 electrons
E(XC)              :      -21.335604456411 Eh       
DFET-embed. en.    :        0.000000000000 Eh       

---------------
SCF CONVERGENCE
---------------

  Last Energy change         ...   -5.5076e-10  Tolerance :   1.0000e-08
  Last MAX-Density change    ...    2.4375e-06  Tolerance :   1.0000e-07
  Last RMS-Density change    ...    7.9631e-08  Tolerance :   5.0000e-09
  Last Orbital Gradient      ...    1.4058e-06  Tolerance :   1.0000e-05
  Last Orbital Rotation      ...    1.6394e-06  Tolerance :   1.0000e-05

             **** THE GBW FILE WAS UPDATED (12-1_DFT_AB.gbw) ****
             **** DENSITY FILE WAS UPDATED (12-1_DFT_AB.scfp.tmp) ****
             **** ENERGY FILE WAS UPDATED (12-1_DFT_AB.en.tmp) ****
----------------
ORBITAL ENERGIES
----------------

  NO   OCC          E(Eh)            E(eV) 
   0   2.0000     -19.231452      -523.3144 
   1   2.0000     -19.231090      -523.3046 
   2   2.0000     -10.322970      -280.9023 
   3   2.0000     -10.311779      -280.5978 
   4   2.0000      -1.152559       -31.3627 
   5   2.0000      -1.144038       -31.1309 
   6   2.0000      -0.805763       -21.9259 
   7   2.0000      -0.795817       -21.6553 
   8   2.0000      -0.620170       -16.8757 
   9   2.0000      -0.613529       -16.6950 
  10   2.0000      -0.553940       -15.0735 
  11   2.0000      -0.546973       -14.8839 
  12   2.0000      -0.538424       -14.6513 
  13   2.0000      -0.537990       -14.6395 
  14   2.0000      -0.439262       -11.9529 
  15   2.0000      -0.437254       -11.8983 
  16   2.0000      -0.382028       -10.3955 
  17   2.0000      -0.373960       -10.1760 
  18   0.0000       0.086870         2.3639 
  19   0.0000       0.121006         3.2927 
  20   0.0000       0.155859         4.2411 
  21   0.0000       0.159119         4.3299 
  22   0.0000       0.181302         4.9335 
  23   0.0000       0.197161         5.3650 
  24   0.0000       0.211740         5.7617 
  25   0.0000       0.215693         5.8693 
  26   0.0000       0.229401         6.2423 
  27   0.0000       0.272311         7.4100 
  28   0.0000       0.280997         7.6463 
  29   0.0000       0.302554         8.2329 
  30   0.0000       0.315048         8.5729 
  31   0.0000       0.332264         9.0414 
  32   0.0000       0.398718        10.8497 
  33   0.0000       0.407208        11.0807 
  34   0.0000       0.443687        12.0733 
  35   0.0000       0.448928        12.2159 
  36   0.0000       0.484783        13.1916 
  37   0.0000       0.509899        13.8751 
  38   0.0000       0.536219        14.5913 
  39   0.0000       0.541013        14.7217 
  40   0.0000       0.558126        15.1874 
  41   0.0000       0.565113        15.3775 
  42   0.0000       0.580200        15.7880 
  43   0.0000       0.600370        16.3369 
  44   0.0000       0.604346        16.4451 
  45   0.0000       0.608591        16.5606 
  46   0.0000       0.622580        16.9412 
  47   0.0000       0.672033        18.2869 
  48   0.0000       0.703544        19.1444 
  49   0.0000       0.711409        19.3584 
  50   0.0000       0.751430        20.4474 
  51   0.0000       0.774882        21.0856 
  52   0.0000       0.789919        21.4948 
  53   0.0000       0.810860        22.0646 
  54   0.0000       0.865746        23.5582 
  55   0.0000       0.876207        23.8428 
  56   0.0000       0.977234        26.5919 
  57   0.0000       0.982427        26.7332 
  58   0.0000       1.020025        27.7563 
  59   0.0000       1.054237        28.6872 
  60   0.0000       1.105189        30.0737 
  61   0.0000       1.127607        30.6837 
  62   0.0000       1.363711        37.1085 
  63   0.0000       1.374832        37.4111 
  64   0.0000       1.459144        39.7053 
  65   0.0000       1.504070        40.9278 
  66   0.0000       1.545338        42.0508 
  67   0.0000       1.553293        42.2673 
  68   0.0000       1.604316        43.6557 
  69   0.0000       1.615044        43.9476 
  70   0.0000       1.617152        44.0049 
  71   0.0000       1.626743        44.2659 
  72   0.0000       1.634621        44.4803 
  73   0.0000       1.642603        44.6975 
  74   0.0000       1.649083        44.8738 
  75   0.0000       1.694187        46.1012 
  76   0.0000       1.700195        46.2647 
  77   0.0000       1.711414        46.5699 
  78   0.0000       1.761881        47.9432 
  79   0.0000       1.767631        48.0997 
  80   0.0000       1.952976        53.1432 
  81   0.0000       1.968259        53.5591 
  82   0.0000       2.011072        54.7241 
  83   0.0000       2.026105        55.1331 
  84   0.0000       2.047261        55.7088 
  85   0.0000       2.067867        56.2695 
  86   0.0000       2.077605        56.5345 
  87   0.0000       2.120257        57.6951 
  88   0.0000       2.126315        57.8600 
  89   0.0000       2.192743        59.6676 
  90   0.0000       2.245810        61.1116 
  91   0.0000       2.274220        61.8847 
  92   0.0000       2.302225        62.6467 
  93   0.0000       2.333228        63.4904 
  94   0.0000       2.352264        64.0084 
  95   0.0000       2.358773        64.1855 
  96   0.0000       2.389831        65.0306 
  97   0.0000       2.405679        65.4618 
  98   0.0000       2.454438        66.7887 
  99   0.0000       2.492104        67.8136 
 100   0.0000       2.511568        68.3433 
 101   0.0000       2.527307        68.7715 
 102   0.0000       2.554822        69.5203 
 103   0.0000       2.573760        70.0356 
 104   0.0000       2.620750        71.3142 
 105   0.0000       2.646111        72.0044 
 106   0.0000       2.701742        73.5181 
 107   0.0000       2.718135        73.9642 
 108   0.0000       2.833808        77.1118 
 109   0.0000       2.837822        77.2211 
 110   0.0000       2.869536        78.0840 
 111   0.0000       2.877241        78.2937 
 112   0.0000       2.916817        79.3706 
 113   0.0000       2.944113        80.1134 
 114   0.0000       2.975563        80.9692 
 115   0.0000       2.998141        81.5836 
 116   0.0000       3.092028        84.1384 
 117   0.0000       3.101408        84.3936 
 118   0.0000       3.159288        85.9686 
 119   0.0000       3.191851        86.8547 
 120   0.0000       3.281021        89.2811 
 121   0.0000       3.308658        90.0332 
 122   0.0000       3.396895        92.4342 
 123   0.0000       3.425981        93.2257 
 124   0.0000       3.442818        93.6838 
 125   0.0000       3.489508        94.9544 
 126   0.0000       3.493725        95.0691 
 127   0.0000       3.540841        96.3512 
 128   0.0000       3.589492        97.6750 
 129   0.0000       3.621597        98.5487 
 130   0.0000       3.649188        99.2995 
 131   0.0000       3.653644        99.4207 
 132   0.0000       3.664336        99.7117 
 133   0.0000       3.670716        99.8853 
 134   0.0000       4.001115       108.8759 
 135   0.0000       4.044651       110.0606 
 136   0.0000       4.188970       113.9877 
 137   0.0000       4.270748       116.2130 
 138   0.0000       4.293929       116.8438 
 139   0.0000       4.296267       116.9074 
 140   0.0000       4.441558       120.8609 
 141   0.0000       4.501516       122.4925 
 142   0.0000       4.532656       123.3398 
 143   0.0000       4.560795       124.1055 
 144   0.0000       5.350857       145.6042 
 145   0.0000       5.375696       146.2801 
 146   0.0000       5.440064       148.0317 
 147   0.0000       5.454600       148.4272 
 148   0.0000       5.535571       150.6305 
 149   0.0000       5.584095       151.9510 
 150   0.0000       5.763880       156.8431 
 151   0.0000       5.803219       157.9136 
 152   0.0000       5.814207       158.2126 
 153   0.0000       5.852072       159.2430 
 154   0.0000       6.001771       163.3165 
 155   0.0000       6.017889       163.7551 
 156   0.0000       6.297010       171.3504 
 157   0.0000       6.480275       176.3372 
 158   0.0000       6.529945       177.6888 
 159   0.0000       6.535795       177.8480 
 160   0.0000       6.770912       184.2459 
 161   0.0000       6.806992       185.2277 
 162   0.0000       6.809063       185.2840 
 163   0.0000       6.826540       185.7596 
 164   0.0000       7.015216       190.8937 
 165   0.0000       7.033530       191.3921 
 166   0.0000       7.199708       195.9140 
 167   0.0000       7.257830       197.4956 
 168   0.0000      22.380992       609.0178 
 169   0.0000      22.455283       611.0393 
 170   0.0000      43.643456      1187.5988 
 171   0.0000      43.676726      1188.5041 

                    ********************************
                    * MULLIKEN POPULATION ANALYSIS *
                    ********************************

-----------------------
MULLIKEN ATOMIC CHARGES
-----------------------
   0 C :   -0.155741
   1 O :   -0.460481
   2 H :    0.306034
   3 H :    0.109950
   4 H :    0.125012
   5 H :    0.075202
   6 C :   -0.162945
   7 O :   -0.460524
   8 H :    0.314074
   9 H :    0.110108
  10 H :    0.085023
  11 H :    0.114287
Sum of atomic charges:   -0.0000000

--------------------------------
MULLIKEN REDUCED ORBITAL CHARGES
--------------------------------
  0 C s       :     3.224573  s :     3.224573
      pz      :     0.753040  p :     2.826727
      px      :     0.996913
      py      :     1.076773
      dz2     :     0.026345  d :     0.096849
      dxz     :     0.026483
      dyz     :     0.019490
      dx2y2   :     0.016891
      dxy     :     0.007639
      f0      :     0.002109  f :     0.007592
      f+1     :     0.001761
      f-1     :     0.001349
      f+2     :     0.000994
      f-2     :     0.000623
      f+3     :     0.000187
      f-3     :     0.000569
  1 O s       :     3.783169  s :     3.783169
      pz      :     1.479135  p :     4.645501
      px      :     1.826449
      py      :     1.339917
      dz2     :     0.011180  d :     0.030083
      dxz     :     0.005624
      dyz     :     0.004442
      dx2y2   :     0.007262
      dxy     :     0.001574
      f0      :     0.000198  f :     0.001729
      f+1     :     0.000275
      f-1     :     0.000311
      f+2     :     0.000144
      f-2     :     0.000127
      f+3     :     0.000214
      f-3     :     0.000460
  2 H s       :     0.640206  s :     0.640206
      pz      :     0.013319  p :     0.053761
      px      :     0.019566
      py      :     0.020876
  3 H s       :     0.869692  s :     0.869692
      pz      :     0.007461  p :     0.020358
      px      :     0.007278
      py      :     0.005619
  4 H s       :     0.854952  s :     0.854952
      pz      :     0.003129  p :     0.020036
      px      :     0.004114
      py      :     0.012793
  5 H s       :     0.906368  s :     0.906368
      pz      :     0.002726  p :     0.018430
      px      :     0.011764
      py      :     0.003940
  6 C s       :     3.225806  s :     3.225806
      pz      :     0.764047  p :     2.826495
      px      :     1.050521
      py      :     1.011927
      dz2     :     0.029741  d :     0.102527
      dxz     :     0.019674
      dyz     :     0.030495
      dx2y2   :     0.005258
      dxy     :     0.017358
      f0      :     0.002682  f :     0.008118
      f+1     :     0.001254
      f-1     :     0.001624
      f+2     :     0.000981
      f-2     :     0.001058
      f+3     :     0.000039
      f-3     :     0.000479
  7 O s       :     3.801265  s :     3.801265
      pz      :     1.436936  p :     4.626278
      px      :     1.431381
      py      :     1.757960
      dz2     :     0.010441  d :     0.031340
      dxz     :     0.003474
      dyz     :     0.006882
      dx2y2   :     0.004427
      dxy     :     0.006116
      f0      :     0.000229  f :     0.001641
      f+1     :     0.000328
      f-1     :     0.000321
      f+2     :     0.000127
      f-2     :     0.000132
      f+3     :     0.000097
      f-3     :     0.000408
  8 H s       :     0.638180  s :     0.638180
      pz      :     0.012486  p :     0.047746
      px      :     0.018589
      py      :     0.016671
  9 H s       :     0.869239  s :     0.869239
      pz      :     0.003335  p :     0.020653
      px      :     0.010028
      py      :     0.007291
 10 H s       :     0.896218  s :     0.896218
      pz      :     0.004101  p :     0.018759
      px      :     0.008333
      py      :     0.006324
 11 H s       :     0.864926  s :     0.864926
      pz      :     0.007360  p :     0.020787
      px      :     0.005352
      py      :     0.008075


                     *******************************
                     * LOEWDIN POPULATION ANALYSIS *
                     *******************************

----------------------
LOEWDIN ATOMIC CHARGES
----------------------
   0 C :   -0.380140
   1 O :   -0.054259
   2 H :    0.138090
   3 H :    0.091728
   4 H :    0.109961
   5 H :    0.095544
   6 C :   -0.386450
   7 O :   -0.076612
   8 H :    0.173957
   9 H :    0.096731
  10 H :    0.098724
  11 H :    0.092727

-------------------------------
LOEWDIN REDUCED ORBITAL CHARGES
-------------------------------
  0 C s       :     2.866194  s :     2.866194
      pz      :     0.886412  p :     3.049931
      px      :     1.065207
      py      :     1.098312
      dz2     :     0.123414  d :     0.407528
      dxz     :     0.115655
      dyz     :     0.068728
      dx2y2   :     0.078957
      dxy     :     0.020773
      f0      :     0.013284  f :     0.056488
      f+1     :     0.012179
      f-1     :     0.010998
      f+2     :     0.006355
      f-2     :     0.009499
      f+3     :     0.001295
      f-3     :     0.002877
  1 O s       :     3.344886  s :     3.344886
      pz      :     1.529395  p :     4.633024
      px      :     1.736902
      py      :     1.366726
      dz2     :     0.026138  d :     0.071469
      dxz     :     0.013548
      dyz     :     0.012019
      dx2y2   :     0.016009
      dxy     :     0.003755
      f0      :     0.001058  f :     0.004880
      f+1     :     0.000732
      f-1     :     0.001166
      f+2     :     0.000478
      f-2     :     0.000375
      f+3     :     0.000225
      f-3     :     0.000848
  2 H s       :     0.681710  s :     0.681710
      pz      :     0.040930  p :     0.180200
      px      :     0.054914
      py      :     0.084356
  3 H s       :     0.843218  s :     0.843218
      pz      :     0.023273  p :     0.065054
      px      :     0.023101
      py      :     0.018679
  4 H s       :     0.830628  s :     0.830628
      pz      :     0.009379  p :     0.059411
      px      :     0.012531
      py      :     0.037501
  5 H s       :     0.850271  s :     0.850271
      pz      :     0.008365  p :     0.054185
      px      :     0.032982
      py      :     0.012838
  6 C s       :     2.858502  s :     2.858502
      pz      :     0.897554  p :     3.050302
      px      :     1.082007
      py      :     1.070740
      dz2     :     0.125528  d :     0.418042
      dxz     :     0.074240
      dyz     :     0.124398
      dx2y2   :     0.017786
      dxy     :     0.076090
      f0      :     0.018164  f :     0.059604
      f+1     :     0.011550
      f-1     :     0.011238
      f+2     :     0.008784
      f-2     :     0.005124
      f+3     :     0.001434
      f-3     :     0.003310
  7 O s       :     3.373185  s :     3.373185
      pz      :     1.487786  p :     4.625709
      px      :     1.428008
      py      :     1.709914
      dz2     :     0.024009  d :     0.072742
      dxz     :     0.013152
      dyz     :     0.016742
      dx2y2   :     0.008756
      dxy     :     0.010083
      f0      :     0.000990  f :     0.004976
      f+1     :     0.001129
      f-1     :     0.001068
      f+2     :     0.000352
      f-2     :     0.000499
      f+3     :     0.000092
      f-3     :     0.000845
  8 H s       :     0.670050  s :     0.670050
      pz      :     0.032223  p :     0.155993
      px      :     0.071741
      py      :     0.052028
  9 H s       :     0.841110  s :     0.841110
      pz      :     0.010453  p :     0.062159
      px      :     0.029561
      py      :     0.022145
 10 H s       :     0.845448  s :     0.845448
      pz      :     0.012051  p :     0.055829
      px      :     0.024962
      py      :     0.018816
 11 H s       :     0.842104  s :     0.842104
      pz      :     0.022054  p :     0.065169
      px      :     0.016713
      py      :     0.026402


                      *****************************
                      * MAYER POPULATION ANALYSIS *
                      *****************************

  NA   - Mulliken gross atomic population
  ZA   - Total nuclear charge
  QA   - Mulliken gross atomic charge
  VA   - Mayer's total valence
  BVA  - Mayer's bonded valence
  FA   - Mayer's free valence

  ATOM       NA         ZA         QA         VA         BVA        FA
  0 C      6.1557     6.0000    -0.1557     3.9427     3.9427    -0.0000
  1 O      8.4605     8.0000    -0.4605     1.9017     1.9017    -0.0000
  2 H      0.6940     1.0000     0.3060     0.9216     0.9216    -0.0000
  3 H      0.8901     1.0000     0.1099     0.9636     0.9636    -0.0000
  4 H      0.8750     1.0000     0.1250     0.9576     0.9576     0.0000
  5 H      0.9248     1.0000     0.0752     0.9576     0.9576    -0.0000
  6 C      6.1629     6.0000    -0.1629     3.9743     3.9743     0.0000
  7 O      8.4605     8.0000    -0.4605     1.8850     1.8850     0.0000
  8 H      0.6859     1.0000     0.3141     0.9121     0.9121     0.0000
  9 H      0.8899     1.0000     0.1101     0.9527     0.9527     0.0000
 10 H      0.9150     1.0000     0.0850     0.9657     0.9657     0.0000
 11 H      0.8857     1.0000     0.1143     0.9504     0.9504     0.0000

  Mayer bond orders larger than 0.1
B(  0-C ,  1-O ) :   1.0020 B(  0-C ,  3-H ) :   0.9890 B(  0-C ,  4-H ) :   0.9710 
B(  0-C ,  5-H ) :   0.9702 B(  1-O ,  2-H ) :   0.9114 B(  6-C ,  7-O ) :   1.0132 
B(  6-C ,  9-H ) :   0.9807 B(  6-C , 10-H ) :   0.9964 B(  6-C , 11-H ) :   0.9725 
B(  7-O ,  8-H ) :   0.9047 

-------
TIMINGS
-------

Total SCF time: 0 days 0 hours 0 min 17 sec 

Total time                  ....      17.548 sec
Sum of individual times     ....      17.058 sec  ( 97.2%)

Fock matrix formation       ....      16.223 sec  ( 92.5%)
  XC integration            ....       7.958 sec  ( 49.1% of F)
    Basis function eval.    ....       0.059 sec  (  0.7% of XC)
    Density eval.           ....       0.125 sec  (  1.6% of XC)
    XC-Functional eval.     ....       0.128 sec  (  1.6% of XC)
    XC-Potential eval.      ....       0.060 sec  (  0.8% of XC)
Diagonalization             ....       0.220 sec  (  1.3%)
Density matrix formation    ....       0.009 sec  (  0.1%)
Population analysis         ....       0.017 sec  (  0.1%)
Initial guess               ....       0.094 sec  (  0.5%)
Orbital Transformation      ....       0.000 sec  (  0.0%)
Orbital Orthonormalization  ....       0.000 sec  (  0.0%)
DIIS solution               ....       0.106 sec  (  0.6%)
SOSCF solution              ....       0.077 sec  (  0.4%)
Grid generation             ....       0.312 sec  (  1.8%)


-------------------------------------------------------------------------------
                          DFT DISPERSION CORRECTION                            
                                                                               
                              DFTD3 V3.1  Rev 1                                
                              USING zero damping                               
-------------------------------------------------------------------------------
The omegaB97X-D3 functional is recognized. Fit by Chai et al.
Active option DFTDOPT                   ...         3   

molecular C6(AA) [au] = 834.690926 


            DFT-D V3
 parameters
 s6 scaling factor         :     1.0000 
 rs6 scaling factor        :     1.2810 
 s8 scaling factor         :     1.0000 
 rs8 scaling factor        :     1.0940 
 Damping factor alpha6     :    14.0000 
 Damping factor alpha8     :    16.0000 
 ad hoc parameters k1-k3   :    16.0000     1.3333    -4.0000 

 Edisp/kcal,au: -0.576262946800  -0.000918333363 
 E6   /kcal   :  -0.267281257 
 E8   /kcal   :  -0.308981689 
 % E8         :  53.618177455 

-------------------------   ----------------
Dispersion correction           -0.000918333
-------------------------   ----------------


-------------------------   --------------------
FINAL SINGLE POINT ENERGY      -231.462264684226
-------------------------   --------------------


                            ***************************************
                            *     ORCA property calculations      *
                            ***************************************

                                    ---------------------
                                    Active property flags
                                    ---------------------
   (+) Dipole Moment


------------------------------------------------------------------------------
                       ORCA ELECTRIC PROPERTIES CALCULATION
------------------------------------------------------------------------------

Dipole Moment Calculation                       ... on
Quadrupole Moment Calculation                   ... off
Polarizability Calculation                      ... off
GBWName                                         ... 12-1_DFT_AB.gbw
Electron density file                           ... 12-1_DFT_AB.scfp.tmp
The origin for moment calculation is the CENTER OF MASS  = (-9.986481,  1.383654 -10.215556)

-------------
DIPOLE MOMENT
-------------
                                X             Y             Z
Electronic contribution:      0.89445       1.17993       0.10905
Nuclear contribution   :     -0.52693      -1.21382      -0.25160
                        -----------------------------------------
Total Dipole Moment    :      0.36753      -0.03388      -0.14255
                        -----------------------------------------
Magnitude (a.u.)       :      0.39565
Magnitude (Debye)      :      1.00567



--------------------
Rotational spectrum 
--------------------
 
Rotational constants in cm-1:     0.476923     0.034872     0.033806 
Rotational constants in MHz : 14297.781676  1045.425722  1013.488294 

 Dipole components along the rotational axes: 
x,y,z [a.u.] :    -0.254134    -0.274257    -0.129389 
x,y,z [Debye]:    -0.645957    -0.697105    -0.328882 

 
------------------------------------------------------------------------------
                      ORCA CHELPG CHARGES GENERATION
------------------------------------------------------------------------------

GBW file                           ... 12-1_DFT_AB.gbw

Reading the GBW file               ... done

Grid spacing                       ...     0.300000
Point Cut-Off                      ...     2.800000
Van-der-Waals Radii                ...        COSMO
Total charge                       ...            0


Number of points X direction       ...           38
Number of points Y direction       ...           32
Number of points Z direction       ...           30
Maximum number of possible points  ...        36480
Final number of points             ...        10662


CHELPG Charges            
--------------------------------
  0   C   :       0.029935
  1   O   :      -0.601344
  2   H   :       0.410057
  3   H   :       0.035855
  4   H   :       0.090599
  5   H   :       0.046533
  6   C   :       0.067696
  7   O   :      -0.565328
  8   H   :       0.371882
  9   H   :       0.050785
 10   H   :      -0.001414
 11   H   :       0.064746
--------------------------------
Total charge:     0.000000
--------------------------------

CHELPG charges calculated...

Timings for individual parts in CHELPG calculation:
Grid generation                 ...        0.002 sec (=   0.000 min)
Potential calculation           ...        2.064 sec (=   0.034 min)
Fit to the potential            ...        0.004 sec (=   0.000 min)
------------------------------------------------------------------------------


Timings for individual modules:

Sum of individual times         ...       27.260 sec (=   0.454 min)
GTO integral calculation        ...        6.096 sec (=   0.102 min)  22.4 %
SCF iterations                  ...       19.064 sec (=   0.318 min)  69.9 %
CHELPG charge generation        ...        2.100 sec (=   0.035 min)   7.7 %


                 $$$$$$$$$$$$$$$$  JOB NUMBER  2 $$$$$$$$$$$$$$


                       ****************************
                       * Single Point Calculation *
                       ****************************

---------------------------------
CARTESIAN COORDINATES (ANGSTROEM)
---------------------------------
  C     -3.318311   -0.619609   -4.975786
  O     -2.848868   -0.188945   -3.711665
  H     -2.709265    0.711760   -3.772373
  H     -2.662649   -0.195860   -5.703031
  H     -3.228268   -1.702189   -5.124246
  H     -4.392851   -0.308560   -5.145854
  C     -7.696293    1.609487   -5.820513
  O     -7.350262    2.091528   -7.094658
  H     -6.480464    1.701876   -7.237686
  H     -8.568349    0.985886   -5.933055
  H     -6.828819    0.999782   -5.470952
  H     -7.973765    2.364178   -5.127782

----------------------------
CARTESIAN COORDINATES (A.U.)
----------------------------
  NO LB      ZA    FRAG     MASS         X           Y           Z
   0 C     6.0000    0    12.011   -6.270699   -1.170891   -9.402873
   1 O     8.0000    0    15.999   -5.383580   -0.357054   -7.014030
   2 H     1.0000    0     1.008   -5.119769    1.345031   -7.128752
   3 H     1.0000    0     1.008   -5.031677   -0.370122  -10.777167
   4 H     1.0000    0     1.008   -6.100542   -3.216671   -9.683422
   5 H     1.0000    0     1.008   -8.301285   -0.583094   -9.724255
   6 C     0.0000    0     0.000  -14.543886    3.041490  -10.999176
   7 O     0.0000    0     0.000  -13.889982    3.952415  -13.406961
   8 H     0.0000    0     0.000  -12.246302    3.216080  -13.677244
   9 H     0.0000    0     0.000  -16.191833    1.863055  -11.211849
  10 H     0.0000    0     0.000  -12.904598    1.889314  -10.338601
  11 H     0.0000    0     0.000  -15.068232    4.467649   -9.690104

--------------------------------
INTERNAL COORDINATES (ANGSTROEM)
--------------------------------
 C      0   0   0     0.000000000000     0.00000000     0.00000000
 O      1   0   0     1.415574128679     0.00000000     0.00000000
 H      2   1   0     0.913479039660   106.93651304     0.00000000
 H      1   2   3     1.066930720933   106.50325945    48.01329515
 H      1   2   3     1.096415783291   113.20839292   162.22085765
 H      1   2   3     1.131508204400   111.43952979   285.79623633
 C      6   1   2     3.879020251024   166.12237270    72.38883562
 O      7   6   1     1.405541340433    96.75284622    60.46333034
 H      8   7   6     0.963760473713   102.59520120     2.37370737
 H      7   6   1     1.077972901376   114.90099055   173.49658925
 H      7   6   1     1.116442663294     9.53067906   235.75804829
 H      7   6   1     1.061331924812   117.43416058   298.51779159

---------------------------
INTERNAL COORDINATES (A.U.)
---------------------------
 C      0   0   0     0.000000000000     0.00000000     0.00000000
 O      1   0   0     2.675047425468     0.00000000     0.00000000
 H      2   1   0     1.726225214035   106.93651304     0.00000000
 H      1   2   3     2.016206866430   106.50325945    48.01329515
 H      1   2   3     2.071925559328   113.20839292   162.22085765
 H      1   2   3     2.138240624601   111.43952979   285.79623633
 C      6   1   2     7.330285942370   166.12237270    72.38883562
 O      7   6   1     2.656088203323    96.75284622    60.46333034
 H      8   7   6     1.821243354016   102.59520120     2.37370737
 H      7   6   1     2.037073563389   114.90099055   173.49658925
 H      7   6   1     2.109770877850     9.53067906   235.75804829
 H      7   6   1     2.005626675083   117.43416058   298.51779159

---------------------
BASIS SET INFORMATION
---------------------
There are 3 groups of distinct atoms

 Group   1 Type C   : 11s6p2d1f contracted to 5s3p2d1f pattern {62111/411/11/1}
 Group   2 Type O   : 11s6p2d1f contracted to 5s3p2d1f pattern {62111/411/11/1}
 Group   3 Type H   : 5s1p contracted to 3s1p pattern {311/1}

Atom   0C    basis set group =>   1
Atom   1O    basis set group =>   2
Atom   2H    basis set group =>   3
Atom   3H    basis set group =>   3
Atom   4H    basis set group =>   3
Atom   5H    basis set group =>   3
Atom   6C    basis set group =>   1
Atom   7O    basis set group =>   2
Atom   8H    basis set group =>   3
Atom   9H    basis set group =>   3
Atom  10H    basis set group =>   3
Atom  11H    basis set group =>   3


           ************************************************************
           *        Program running with 8 parallel MPI-processes     *
           *              working on a common directory               *
           ************************************************************
------------------------------------------------------------------------------
                           ORCA GTO INTEGRAL CALCULATION
------------------------------------------------------------------------------

                         BASIS SET STATISTICS AND STARTUP INFO

 # of primitive gaussian shells          ...  128
 # of primitive gaussian functions       ...  248
 # of contracted shells                  ...   76
 # of contracted basis functions         ...  172
 Highest angular momentum                ...    3
 Maximum contraction depth               ...    6
 Integral package used                   ... LIBINT
 Integral threshhold            Thresh   ...  2.500e-11
 Primitive cut-off              TCut     ...  2.500e-12


------------------------------ INTEGRAL EVALUATION ----------------------------


 * One electron integrals 
 Pre-screening matrix                    ... done
 Shell pair data                         ... done (   0.001 sec)



           ************************************************************
           *        Program running with 8 parallel MPI-processes     *
           *              working on a common directory               *
           ************************************************************
-------------------------------------------------------------------------------
                                 ORCA SCF
-------------------------------------------------------------------------------

------------
SCF SETTINGS
------------
Hamiltonian:
 Density Functional     Method          .... DFT(GTOs)
 Exchange Functional    Exchange        .... WB97X-D3
 Correlation Functional Correlation     .... WB97X-D3
 Gradients option       PostSCFGGA      .... off
 Hybrid DFT is turned on
   Fraction HF Exchange ScalHFX         ....  0.195728
   Scaling of DF-GGA-X  ScalDFX         ....  0.000000
   Scaling of DF-GGA-C  ScalDFC         ....  1.000000
   Scaling of DF-LDA-C  ScalLDAC        ....  1.000000
   Perturbative correction              ....  0.000000
   Density functional embedding theory  .... OFF
 Long-range corrected/Screened/Range-Separated Hybrid DFT is turned on
   Amount of maximum screened exact exchange              ....  0.804272
   Range separation parameter mu (erf(mu*r12)/r12)        ....  0.250000


General Settings:
 Integral files         IntName         .... 12-1_DFT_A
 Hartree-Fock type      HFTyp           .... RHF
 Total Charge           Charge          ....    0
 Multiplicity           Mult            ....    1
 Number of Electrons    NEL             ....   18
 Basis Dimension        Dim             ....  172
 Nuclear Repulsion      ENuc            ....     40.6127951458 Eh

Convergence Acceleration:
 DIIS                   CNVDIIS         .... on
   Start iteration      DIISMaxIt       ....    12
   Startup error        DIISStart       ....  0.200000
   # of expansion vecs  DIISMaxEq       ....     5
   Bias factor          DIISBfac        ....   1.050
   Max. coefficient     DIISMaxC        ....  10.000
 Newton-Raphson         CNVNR           .... off
 SOSCF                  CNVSOSCF        .... on
   Start iteration      SOSCFMaxIt      ....   150
   Startup grad/error   SOSCFStart      ....  0.003300
 Level Shifting         CNVShift        .... on
   Level shift para.    LevelShift      ....    0.2500
   Turn off err/grad.   ShiftErr        ....    0.0010
 Zerner damping         CNVZerner       .... off
 Static damping         CNVDamp         .... on
   Fraction old density DampFac         ....    0.7000
   Max. Damping (<1)    DampMax         ....    0.9800
   Min. Damping (>=0)   DampMin         ....    0.0000
   Turn off err/grad.   DampErr         ....    0.1000
 Fernandez-Rico         CNVRico         .... off

SCF Procedure:
 Maximum # iterations   MaxIter         ....  1000
 SCF integral mode      SCFMode         .... Direct
   Integral package                     .... LIBINT
 Reset frequency        DirectResetFreq ....    20
 Integral Threshold     Thresh          ....  2.500e-11 Eh
 Primitive CutOff       TCut            ....  2.500e-12 Eh

Convergence Tolerance:
 Convergence Check Mode ConvCheckMode   .... Total+1el-Energy
 Convergence forced     ConvForced      .... 0
 Energy Change          TolE            ....  1.000e-08 Eh
 1-El. energy change                    ....  1.000e-05 Eh
 Orbital Gradient       TolG            ....  1.000e-05
 Orbital Rotation angle TolX            ....  1.000e-05
 DIIS Error             TolErr          ....  5.000e-07


Diagonalization of the overlap matrix:
Smallest eigenvalue                        ... 9.144e-04
Time for diagonalization                   ...    0.004 sec
Threshold for overlap eigenvalues          ... 1.000e-08
Number of eigenvalues below threshold      ... 0
Time for construction of square roots      ...    0.006 sec
Total time needed                          ...    0.010 sec

-------------------
DFT GRID GENERATION
-------------------

General Integration Accuracy     IntAcc      ...  4.340
Radial Grid Type                 RadialGrid  ... Gauss-Chebyshev
Angular Grid (max. acc.)         AngularGrid ... Lebedev-110
Angular grid pruning method      GridPruning ... 3 (G Style)
Weight generation scheme         WeightScheme... Becke
Basis function cutoff            BFCut       ...    1.0000e-11
Integration weight cutoff        WCut        ...    1.0000e-14
Grids for H and He will be reduced by one unit

# of grid points (after initial pruning)     ...  13096 (   0.0 sec)
# of grid points (after weights+screening)   ...  12565 (   0.0 sec)
nearest neighbour list constructed           ...    0.0 sec
Grid point re-assignment to atoms done       ...    0.0 sec
Grid point division into batches done        ...    0.0 sec
Reduced shell lists constructed in    0.0 sec

Total number of grid points                  ...    12565
Total number of batches                      ...      201
Average number of points per batch           ...       62
Average number of grid points per atom       ...     1047
Average number of shells per batch           ...    44.74 (58.87%)
Average number of basis functions per batch  ...    96.37 (56.03%)
Average number of large shells per batch     ...    36.67 (81.95%)
Average number of large basis fcns per batch ...    81.78 (84.86%)
Maximum spatial batch extension              ...  18.82, 16.23, 14.60 au
Average spatial batch extension              ...   0.45,  0.37,  0.36 au

Time for grid setup =    0.036 sec

------------------------------
INITIAL GUESS: MODEL POTENTIAL
------------------------------
Loading Hartree-Fock densities                     ... done
Calculating cut-offs                               ... done
Setting up the integral package                    ... done
Initializing the effective Hamiltonian             ... done
Starting the Coulomb interaction                   ... done (   0.0 sec)
Reading the grid                                   ... done
Mapping shells                                     ... done
Starting the XC term evaluation                    ... done (   0.0 sec)
  promolecular density results
     # of electrons  =     17.999280800
     EX              =    -14.438648253
     EC              =     -0.575967469
     EX+EC           =    -15.014615722
Transforming the Hamiltonian                       ... done (   0.0 sec)
Diagonalizing the Hamiltonian                      ... done (   0.0 sec)
Back transforming the eigenvectors                 ... done (   0.0 sec)
Now organizing SCF variables                       ... done
                      ------------------
                      INITIAL GUESS DONE (   0.1 sec)
                      ------------------
--------------
SCF ITERATIONS
--------------
ITER       Energy         Delta-E        Max-DP      RMS-DP      [F,P]     Damp
               ***  Starting incremental Fock matrix formation  ***
  0   -115.6435176266   0.000000000000 0.03793223  0.00076104  0.2533488 0.7000
  1   -115.6811044959  -0.037586869299 0.02201976  0.00054044  0.1274327 0.7000
                               ***Turning on DIIS***
  2   -115.6984228625  -0.017318366575 0.03436668  0.00098046  0.0506720 0.0000
  3   -115.7265960376  -0.028173175148 0.01824153  0.00035253  0.0618969 0.0000
  4   -115.7311684717  -0.004572434112 0.00414291  0.00006990  0.0060748 0.0000
                      *** Initiating the SOSCF procedure ***
                           *** Shutting down DIIS ***
                      *** Re-Reading the Fockian *** 
                      *** Removing any level shift *** 
ITER      Energy       Delta-E        Grad      Rot      Max-DP    RMS-DP
  5   -115.73125960  -0.0000911239  0.000427  0.000427  0.000695  0.000024
               *** Restarting incremental Fock matrix formation ***
  6   -115.73126777  -0.0000081734  0.000156  0.000204  0.000439  0.000015
  7   -115.73126860  -0.0000008293  0.000042  0.000112  0.000208  0.000007
  8   -115.73126867  -0.0000000693  0.000020  0.000018  0.000035  0.000001
  9   -115.73126867  -0.0000000066  0.000012  0.000009  0.000017  0.000001
                  ***Gradient check signals convergence***
              ***Rediagonalizing the Fockian in SOSCF/NRSCF***

               *****************************************************
               *                     SUCCESS                       *
               *           SCF CONVERGED AFTER  10 CYCLES          *
               *****************************************************

Setting up the final grid:

General Integration Accuracy     IntAcc      ...  4.670
Radial Grid Type                 RadialGrid  ... Gauss-Chebyshev
Angular Grid (max. acc.)         AngularGrid ... Lebedev-302
Angular grid pruning method      GridPruning ... 3 (G Style)
Weight generation scheme         WeightScheme... Becke
Basis function cutoff            BFCut       ...    1.0000e-11
Integration weight cutoff        WCut        ...    1.0000e-14
Grids for H and He will be reduced by one unit

# of grid points (after initial pruning)     ...  52000 (   0.0 sec)
# of grid points (after weights+screening)   ...  49470 (   0.0 sec)
nearest neighbour list constructed           ...    0.0 sec
Grid point re-assignment to atoms done       ...    0.0 sec
Grid point division into batches done        ...    0.2 sec
Reduced shell lists constructed in    0.2 sec

Total number of grid points                  ...    49470
Total number of batches                      ...      781
Average number of points per batch           ...       63
Average number of grid points per atom       ...     4122
Average number of shells per batch           ...    42.57 (56.01%)
Average number of basis functions per batch  ...    91.90 (53.43%)
Average number of large shells per batch     ...    34.29 (80.56%)
Average number of large basis fcns per batch ...    76.96 (83.74%)
Maximum spatial batch extension              ...  20.28, 12.42, 15.20 au
Average spatial batch extension              ...   0.29,  0.25,  0.26 au

Final grid set up in    0.3 sec
Final integration                            ... done (   0.1 sec)
Change in XC energy                          ...    -0.000028984
Integrated number of electrons               ...    17.999984260
Previous integrated no of electrons          ...    18.000594167

----------------
TOTAL SCF ENERGY
----------------

Total Energy       :         -115.73129766 Eh           -3149.20871 eV

Components:
Nuclear Repulsion  :           40.61279515 Eh            1105.13034 eV
Electronic Energy  :         -156.34409281 Eh           -4254.33905 eV
One Electron Energy:         -237.58786444 Eh           -6465.09447 eV
Two Electron Energy:           81.24377163 Eh            2210.75542 eV

Virial components:
Potential Energy   :         -231.05877897 Eh           -6287.42902 eV
Kinetic Energy     :          115.32748131 Eh            3138.22031 eV
Virial Ratio       :            2.00350148


DFT components:
N(Alpha)           :        8.999992129840 electrons
N(Beta)            :        8.999992129840 electrons
N(Total)           :       17.999984259680 electrons
E(XC)              :      -10.668956083252 Eh       
DFET-embed. en.    :        0.000000000000 Eh       

---------------
SCF CONVERGENCE
---------------

  Last Energy change         ...   -2.1288e-09  Tolerance :   1.0000e-08
  Last MAX-Density change    ...    2.9906e-06  Tolerance :   1.0000e-07
  Last RMS-Density change    ...    8.7748e-08  Tolerance :   5.0000e-09
  Last Orbital Gradient      ...    1.8299e-06  Tolerance :   1.0000e-05
  Last Orbital Rotation      ...    1.9856e-06  Tolerance :   1.0000e-05

             **** THE GBW FILE WAS UPDATED (12-1_DFT_A.gbw) ****
             **** DENSITY FILE WAS UPDATED (12-1_DFT_A.scfp.tmp) ****
             **** ENERGY FILE WAS UPDATED (12-1_DFT_A.en.tmp) ****
----------------
ORBITAL ENERGIES
----------------

  NO   OCC          E(Eh)            E(eV) 
   0   2.0000     -19.224534      -523.1262 
   1   2.0000     -10.314884      -280.6823 
   2   2.0000      -1.145974       -31.1835 
   3   2.0000      -0.798187       -21.7198 
   4   2.0000      -0.613093       -16.6831 
   5   2.0000      -0.545738       -14.8503 
   6   2.0000      -0.531435       -14.4611 
   7   2.0000      -0.431344       -11.7375 
   8   2.0000      -0.375111       -10.2073 
   9   0.0000       0.084680         2.3043 
  10   0.0000       0.122022         3.3204 
  11   0.0000       0.151251         4.1157 
  12   0.0000       0.169952         4.6246 
  13   0.0000       0.183149         4.9837 
  14   0.0000       0.201480         5.4826 
  15   0.0000       0.206532         5.6200 
  16   0.0000       0.223415         6.0794 
  17   0.0000       0.257819         7.0156 
  18   0.0000       0.285137         7.7590 
  19   0.0000       0.300502         8.1771 
  20   0.0000       0.305409         8.3106 
  21   0.0000       0.335385         9.1263 
  22   0.0000       0.340424         9.2634 
  23   0.0000       0.402825        10.9614 
  24   0.0000       0.432204        11.7609 
  25   0.0000       0.433057        11.7841 
  26   0.0000       0.460924        12.5424 
  27   0.0000       0.492403        13.3990 
  28   0.0000       0.502107        13.6630 
  29   0.0000       0.544169        14.8076 
  30   0.0000       0.551365        15.0034 
  31   0.0000       0.574813        15.6415 
  32   0.0000       0.586948        15.9717 
  33   0.0000       0.611328        16.6351 
  34   0.0000       0.641968        17.4688 
  35   0.0000       0.668704        18.1964 
  36   0.0000       0.682406        18.5692 
  37   0.0000       0.697795        18.9880 
  38   0.0000       0.778510        21.1843 
  39   0.0000       0.785865        21.3845 
  40   0.0000       0.811641        22.0859 
  41   0.0000       0.854440        23.2505 
  42   0.0000       0.875097        23.8126 
  43   0.0000       0.908631        24.7251 
  44   0.0000       0.987456        26.8701 
  45   0.0000       1.026835        27.9416 
  46   0.0000       1.056543        28.7500 
  47   0.0000       1.111313        30.2404 
  48   0.0000       1.150911        31.3179 
  49   0.0000       1.161714        31.6118 
  50   0.0000       1.184226        32.2244 
  51   0.0000       1.199534        32.6410 
  52   0.0000       1.240396        33.7529 
  53   0.0000       1.357594        36.9420 
  54   0.0000       1.380750        37.5721 
  55   0.0000       1.382833        37.6288 
  56   0.0000       1.463141        39.8141 
  57   0.0000       1.512882        41.1676 
  58   0.0000       1.520468        41.3740 
  59   0.0000       1.560866        42.4733 
  60   0.0000       1.614058        43.9207 
  61   0.0000       1.625336        44.2276 
  62   0.0000       1.642630        44.6982 
  63   0.0000       1.649883        44.8956 
  64   0.0000       1.707291        46.4578 
  65   0.0000       1.774013        48.2734 
  66   0.0000       1.805512        49.1305 
  67   0.0000       1.914624        52.0996 
  68   0.0000       1.931261        52.5523 
  69   0.0000       1.960984        53.3611 
  70   0.0000       2.018520        54.9267 
  71   0.0000       2.055066        55.9212 
  72   0.0000       2.092187        56.9313 
  73   0.0000       2.127322        57.8874 
  74   0.0000       2.133905        58.0665 
  75   0.0000       2.190515        59.6069 
  76   0.0000       2.199620        59.8547 
  77   0.0000       2.271386        61.8076 
  78   0.0000       2.281186        62.0742 
  79   0.0000       2.310850        62.8814 
  80   0.0000       2.337929        63.6183 
  81   0.0000       2.366117        64.3853 
  82   0.0000       2.412247        65.6406 
  83   0.0000       2.439751        66.3890 
  84   0.0000       2.463532        67.0361 
  85   0.0000       2.522001        68.6271 
  86   0.0000       2.578750        70.1714 
  87   0.0000       2.609610        71.0111 
  88   0.0000       2.655449        72.2584 
  89   0.0000       2.669987        72.6540 
  90   0.0000       2.682738        73.0010 
  91   0.0000       2.722319        74.0781 
  92   0.0000       2.838307        77.2343 
  93   0.0000       2.842210        77.3405 
  94   0.0000       2.883230        78.4567 
  95   0.0000       2.920668        79.4754 
  96   0.0000       2.951058        80.3024 
  97   0.0000       2.981434        81.1289 
  98   0.0000       3.076322        83.7110 
  99   0.0000       3.079289        83.7917 
 100   0.0000       3.099866        84.3516 
 101   0.0000       3.163353        86.0792 
 102   0.0000       3.167964        86.2047 
 103   0.0000       3.212642        87.4204 
 104   0.0000       3.275404        89.1283 
 105   0.0000       3.287791        89.4653 
 106   0.0000       3.367964        91.6469 
 107   0.0000       3.404574        92.6432 
 108   0.0000       3.425482        93.2121 
 109   0.0000       3.451035        93.9074 
 110   0.0000       3.501132        95.2706 
 111   0.0000       3.598865        97.9301 
 112   0.0000       3.627104        98.6985 
 113   0.0000       3.655788        99.4791 
 114   0.0000       3.659421        99.5779 
 115   0.0000       3.675279       100.0094 
 116   0.0000       3.791206       103.1640 
 117   0.0000       4.051201       110.2388 
 118   0.0000       4.093997       111.4033 
 119   0.0000       4.194837       114.1473 
 120   0.0000       4.196912       114.2038 
 121   0.0000       4.253231       115.7363 
 122   0.0000       4.299067       116.9836 
 123   0.0000       4.302670       117.0816 
 124   0.0000       4.339131       118.0738 
 125   0.0000       4.449540       121.0781 
 126   0.0000       4.513342       122.8143 
 127   0.0000       4.525883       123.1555 
 128   0.0000       4.565833       124.2426 
 129   0.0000       4.583215       124.7156 
 130   0.0000       4.642203       126.3208 
 131   0.0000       5.000709       136.0762 
 132   0.0000       5.075528       138.1121 
 133   0.0000       5.124466       139.4438 
 134   0.0000       5.343548       145.4053 
 135   0.0000       5.357334       145.7805 
 136   0.0000       5.393482       146.7641 
 137   0.0000       5.446569       148.2087 
 138   0.0000       5.590403       152.1226 
 139   0.0000       5.809812       158.0930 
 140   0.0000       5.820712       158.3896 
 141   0.0000       5.884853       160.1350 
 142   0.0000       5.916981       161.0092 
 143   0.0000       6.008460       163.4985 
 144   0.0000       6.114225       166.3765 
 145   0.0000       6.486631       176.5102 
 146   0.0000       6.542167       178.0214 
 147   0.0000       6.641421       180.7223 
 148   0.0000       6.751031       183.7049 
 149   0.0000       6.777377       184.4218 
 150   0.0000       6.814127       185.4218 
 151   0.0000       6.815572       185.4611 
 152   0.0000       7.039935       191.5664 
 153   0.0000       7.066837       192.2984 
 154   0.0000       7.264081       197.6657 
 155   0.0000       7.279442       198.0837 
 156   0.0000       7.454388       202.8442 
 157   0.0000       8.080123       219.8713 
 158   0.0000       8.867693       241.3022 
 159   0.0000       9.329577       253.8707 
 160   0.0000       9.520429       259.0640 
 161   0.0000       9.552649       259.9408 
 162   0.0000       9.794390       266.5189 
 163   0.0000       9.859824       268.2994 
 164   0.0000       9.960511       271.0393 
 165   0.0000      10.148579       276.1569 
[...]
  82   0.0000       2.395684        65.1899 
  83   0.0000       2.473705        67.3129 
  84   0.0000       2.490412        67.7676 
  85   0.0000       2.526882        68.7599 
  86   0.0000       2.545592        69.2691 
  87   0.0000       2.578533        70.1654 
  88   0.0000       2.616490        71.1983 
  89   0.0000       2.623496        71.3890 
  90   0.0000       2.675266        72.7977 
  91   0.0000       2.704169        73.5842 
  92   0.0000       2.838913        77.2507 
  93   0.0000       2.855634        77.7057 
  94   0.0000       2.872243        78.1577 
  95   0.0000       2.910124        79.1885 
  96   0.0000       2.919450        79.4423 
  97   0.0000       2.980703        81.1090 
  98   0.0000       2.998391        81.5904 
  99   0.0000       3.103592        84.4530 
 100   0.0000       3.105832        84.5140 
 101   0.0000       3.143355        85.5350 
 102   0.0000       3.193313        86.8945 
 103   0.0000       3.208573        87.3097 
 104   0.0000       3.276406        89.1555 
 105   0.0000       3.309732        90.0624 
 106   0.0000       3.379167        91.9518 
 107   0.0000       3.428610        93.2972 
 108   0.0000       3.468277        94.3766 
 109   0.0000       3.492149        95.0262 
 110   0.0000       3.543372        96.4201 
 111   0.0000       3.581974        97.4705 
 112   0.0000       3.609724        98.2256 
 113   0.0000       3.655175        99.4624 
 114   0.0000       3.665592        99.7458 
 115   0.0000       3.681138       100.1689 
 116   0.0000       3.738048       101.7174 
 117   0.0000       4.004395       108.9651 
 118   0.0000       4.089916       111.2923 
 119   0.0000       4.163749       113.3014 
 120   0.0000       4.251057       115.6771 
 121   0.0000       4.267053       116.1124 
 122   0.0000       4.279411       116.4487 
 123   0.0000       4.297603       116.9437 
 124   0.0000       4.326497       117.7300 
 125   0.0000       4.501844       122.5014 
 126   0.0000       4.513304       122.8132 
 127   0.0000       4.534648       123.3940 
 128   0.0000       4.553637       123.9108 
 129   0.0000       4.581823       124.6777 
 130   0.0000       4.588307       124.8542 
 131   0.0000       5.043307       137.2353 
 132   0.0000       5.079707       138.2259 
 133   0.0000       5.094181       138.6197 
 134   0.0000       5.378527       146.3572 
 135   0.0000       5.409359       147.1962 
 136   0.0000       5.457445       148.5046 
 137   0.0000       5.497647       149.5986 
 138   0.0000       5.538425       150.7082 
 139   0.0000       5.766569       156.9163 
 140   0.0000       5.779055       157.2561 
 141   0.0000       5.831068       158.6714 
 142   0.0000       5.854862       159.3189 
 143   0.0000       6.020840       163.8354 
 144   0.0000       6.086840       165.6313 
 145   0.0000       6.299968       171.4309 
 146   0.0000       6.532791       177.7663 
 147   0.0000       6.610683       179.8858 
 148   0.0000       6.723121       182.9454 
 149   0.0000       6.809796       185.3040 
 150   0.0000       6.829355       185.8362 
 151   0.0000       6.887767       187.4257 
 152   0.0000       7.018056       190.9710 
 153   0.0000       7.117232       193.6697 
 154   0.0000       7.202414       195.9876 
 155   0.0000       7.232542       196.8075 
 156   0.0000       7.452494       202.7927 
 157   0.0000       8.364841       227.6189 
 158   0.0000       8.867013       241.2837 
 159   0.0000       9.343386       254.2465 
 160   0.0000       9.551595       259.9121 
 161   0.0000       9.577406       260.6145 
 162   0.0000       9.792016       266.4543 
 163   0.0000       9.846164       267.9277 
 164   0.0000       9.930088       270.2114 
 165   0.0000      10.010046       272.3872 
 166   0.0000      11.127256       302.7880 
 167   0.0000      19.078425       519.1503 
 168   0.0000      22.457897       611.1104 
 169   0.0000      43.679412      1188.5772 
 170   0.0000      65.887134      1792.8801 
 171   0.0000     126.387675      3439.1835 

                    ********************************
                    * MULLIKEN POPULATION ANALYSIS *
                    ********************************

-----------------------
MULLIKEN ATOMIC CHARGES
-----------------------
   0 C :   -0.000768
   1 O :    0.000007
   2 H :   -0.000003
   3 H :    0.000010
   4 H :    0.000029
   5 H :    0.001351
   6 C :   -0.167236
   7 O :   -0.461831
   8 H :    0.315931
   9 H :    0.108280
  10 H :    0.091134
  11 H :    0.113094
Sum of atomic charges:    0.0000000

--------------------------------
MULLIKEN REDUCED ORBITAL CHARGES
--------------------------------
  0 C s       :     0.000447  s :     0.000447
      pz      :     0.000018  p :     0.000323
      px      :     0.000307
      py      :    -0.000003
      dz2     :    -0.000001  d :    -0.000002
      dxz     :    -0.000000
      dyz     :     0.000000
      dx2y2   :    -0.000002
      dxy     :     0.000001
      f0      :    -0.000000  f :    -0.000000
      f+1     :    -0.000000
      f-1     :    -0.000000
      f+2     :    -0.000000
      f-2     :    -0.000000
      f+3     :    -0.000000
      f-3     :    -0.000000
  1 O s       :    -0.000006  s :    -0.000006
      pz      :     0.000000  p :    -0.000001
      px      :    -0.000004
      py      :     0.000003
      dz2     :     0.000000  d :    -0.000000
      dxz     :     0.000000
      dyz     :     0.000000
      dx2y2   :    -0.000000
      dxy     :    -0.000000
      f0      :     0.000000  f :    -0.000000
      f+1     :    -0.000000
      f-1     :    -0.000000
      f+2     :    -0.000000
      f-2     :    -0.000000
      f+3     :    -0.000000
      f-3     :    -0.000000
  2 H s       :     0.000003  s :     0.000003
      pz      :    -0.000000  p :    -0.000000
      px      :    -0.000000
      py      :     0.000000
  3 H s       :    -0.000010  s :    -0.000010
      pz      :     0.000000  p :     0.000000
      px      :     0.000000
      py      :    -0.000000
  4 H s       :    -0.000029  s :    -0.000029
      pz      :    -0.000000  p :    -0.000000
      px      :    -0.000000
      py      :    -0.000000
  5 H s       :    -0.001347  s :    -0.001347
      pz      :    -0.000000  p :    -0.000004
      px      :    -0.000003
      py      :    -0.000001
  6 C s       :     3.228417  s :     3.228417
      pz      :     0.764595  p :     2.828032
      px      :     1.051396
      py      :     1.012041
      dz2     :     0.029758  d :     0.102666
      dxz     :     0.019769
      dyz     :     0.030502
      dx2y2   :     0.005228
      dxy     :     0.017409
      f0      :     0.002678  f :     0.008121
      f+1     :     0.001258
      f-1     :     0.001624
      f+2     :     0.000981
      f-2     :     0.001059
      f+3     :     0.000039
      f-3     :     0.000481
  7 O s       :     3.801129  s :     3.801129
      pz      :     1.436756  p :     4.627704
      px      :     1.432600
      py      :     1.758348
      dz2     :     0.010447  d :     0.031356
      dxz     :     0.003479
      dyz     :     0.006889
      dx2y2   :     0.004426
      dxy     :     0.006115
      f0      :     0.000229  f :     0.001642
      f+1     :     0.000328
      f-1     :     0.000321
      f+2     :     0.000127
      f-2     :     0.000133
      f+3     :     0.000096
      f-3     :     0.000408
  8 H s       :     0.636379  s :     0.636379
      pz      :     0.012457  p :     0.047690
      px      :     0.018589
      py      :     0.016644
  9 H s       :     0.871083  s :     0.871083
      pz      :     0.003339  p :     0.020637
      px      :     0.010016
      py      :     0.007282
 10 H s       :     0.890133  s :     0.890133
      pz      :     0.004083  p :     0.018733
      px      :     0.008348
      py      :     0.006302
 11 H s       :     0.866130  s :     0.866130
      pz      :     0.007350  p :     0.020776
      px      :     0.005347
      py      :     0.008078


                     *******************************
                     * LOEWDIN POPULATION ANALYSIS *
                     *******************************

----------------------
LOEWDIN ATOMIC CHARGES
----------------------
   0 C :   -0.000320
   1 O :   -0.000003
   2 H :   -0.000003
   3 H :   -0.000002
   4 H :   -0.000001
   5 H :   -0.001453
   6 C :   -0.386950
   7 O :   -0.076813
   8 H :    0.174822
   9 H :    0.096031
  10 H :    0.102402
  11 H :    0.092291

-------------------------------
LOEWDIN REDUCED ORBITAL CHARGES
-------------------------------
  0 C s       :     0.000026  s :     0.000026
      pz      :     0.000018  p :     0.000291
      px      :     0.000227
      py      :     0.000046
      dz2     :     0.000000  d :     0.000002
      dxz     :     0.000000
      dyz     :     0.000000
      dx2y2   :     0.000000
      dxy     :     0.000001
      f0      :     0.000000  f :     0.000000
      f+1     :     0.000000
      f-1     :     0.000000
      f+2     :     0.000000
      f-2     :     0.000000
      f+3     :     0.000000
      f-3     :     0.000000
  1 O s       :     0.000001  s :     0.000001
      pz      :     0.000000  p :     0.000002
      px      :     0.000001
      py      :     0.000001
      dz2     :     0.000000  d :     0.000000
      dxz     :     0.000000
      dyz     :     0.000000
      dx2y2   :     0.000000
      dxy     :     0.000000
      f0      :     0.000000  f :     0.000000
      f+1     :     0.000000
      f-1     :     0.000000
      f+2     :     0.000000
      f-2     :     0.000000
      f+3     :     0.000000
      f-3     :     0.000000
  2 H s       :     0.000003  s :     0.000003
      pz      :     0.000000  p :     0.000000
      px      :     0.000000
      py      :     0.000000
  3 H s       :     0.000002  s :     0.000002
      pz      :     0.000000  p :     0.000000
      px      :     0.000000
      py      :     0.000000
  4 H s       :     0.000001  s :     0.000001
      pz      :     0.000000  p :     0.000000
      px      :     0.000000
      py      :     0.000000
  5 H s       :     0.001443  s :     0.001443
      pz      :     0.000000  p :     0.000010
      px      :     0.000008
      py      :     0.000002
  6 C s       :     2.858570  s :     2.858570
      pz      :     0.897954  p :     3.050617
      px      :     1.082005
      py      :     1.070659
      dz2     :     0.125518  d :     0.418166
      dxz     :     0.074270
      dyz     :     0.124472
      dx2y2   :     0.017774
      dxy     :     0.076132
      f0      :     0.018157  f :     0.059597
      f+1     :     0.011556
      f-1     :     0.011237
      f+2     :     0.008784
      f-2     :     0.005124
      f+3     :     0.001435
      f-3     :     0.003304
  7 O s       :     3.373079  s :     3.373079
      pz      :     1.487603  p :     4.626091
      px      :     1.428539
      py      :     1.709949
      dz2     :     0.023982  d :     0.072671
      dxz     :     0.013158
      dyz     :     0.016738
      dx2y2   :     0.008735
      dxy     :     0.010057
      f0      :     0.000989  f :     0.004973
      f+1     :     0.001129
      f-1     :     0.001068
      f+2     :     0.000352
      f-2     :     0.000499
      f+3     :     0.000092
      f-3     :     0.000844
  8 H s       :     0.669188  s :     0.669188
      pz      :     0.032191  p :     0.155990
      px      :     0.071794
      py      :     0.052005
  9 H s       :     0.841847  s :     0.841847
      pz      :     0.010470  p :     0.062123
      px      :     0.029512
      py      :     0.022140
 10 H s       :     0.841750  s :     0.841750
      pz      :     0.012035  p :     0.055848
      px      :     0.025018
      py      :     0.018795
 11 H s       :     0.842573  s :     0.842573
      pz      :     0.022034  p :     0.065136
      px      :     0.016711
      py      :     0.026392


                      *****************************
                      * MAYER POPULATION ANALYSIS *
                      *****************************

  NA   - Mulliken gross atomic population
  ZA   - Total nuclear charge
  QA   - Mulliken gross atomic charge
  VA   - Mayer's total valence
  BVA  - Mayer's bonded valence
  FA   - Mayer's free valence

  ATOM       NA         ZA         QA         VA         BVA        FA
  0 C      0.0008     0.0000    -0.0008     0.0015     0.0015    -0.0000
  1 O     -0.0000     0.0000     0.0000    -0.0000    -0.0000     0.0000
  2 H      0.0000     0.0000    -0.0000     0.0000     0.0000     0.0000
  3 H     -0.0000     0.0000     0.0000    -0.0000    -0.0000    -0.0000
  4 H     -0.0000     0.0000     0.0000    -0.0001    -0.0001     0.0000
  5 H     -0.0014     0.0000     0.0014    -0.0027    -0.0027     0.0000
  6 C      6.1672     6.0000    -0.1672     3.9723     3.9723     0.0000
  7 O      8.4618     8.0000    -0.4618     1.8846     1.8846     0.0000
  8 H      0.6841     1.0000     0.3159     0.9107     0.9107    -0.0000
  9 H      0.8917     1.0000     0.1083     0.9517     0.9517     0.0000
 10 H      0.9089     1.0000     0.0911     0.9672     0.9672    -0.0000
 11 H      0.8869     1.0000     0.1131     0.9498     0.9498     0.0000

  Mayer bond orders larger than 0.1
B(  6-C ,  7-O ) :   1.0135 B(  6-C ,  9-H ) :   0.9800 B(  6-C , 10-H ) :   0.9972 
B(  6-C , 11-H ) :   0.9721 B(  7-O ,  8-H ) :   0.9039 

-------
TIMINGS
-------

Total SCF time: 0 days 0 hours 0 min 14 sec 

Total time                  ....      14.955 sec
Sum of individual times     ....      14.548 sec  ( 97.3%)

Fock matrix formation       ....      13.699 sec  ( 91.6%)
  XC integration            ....       6.976 sec  ( 50.9% of F)
    Basis function eval.    ....       0.057 sec  (  0.8% of XC)
    Density eval.           ....       0.105 sec  (  1.5% of XC)
    XC-Functional eval.     ....       0.123 sec  (  1.8% of XC)
    XC-Potential eval.      ....       0.056 sec  (  0.8% of XC)
Diagonalization             ....       0.291 sec  (  1.9%)
Density matrix formation    ....       0.006 sec  (  0.0%)
Population analysis         ....       0.022 sec  (  0.1%)
Initial guess               ....       0.091 sec  (  0.6%)
Orbital Transformation      ....       0.000 sec  (  0.0%)
Orbital Orthonormalization  ....       0.000 sec  (  0.0%)
DIIS solution               ....       0.071 sec  (  0.5%)
SOSCF solution              ....       0.033 sec  (  0.2%)
Grid generation             ....       0.334 sec  (  2.2%)


-------------------------------------------------------------------------------
                          DFT DISPERSION CORRECTION                            
                                                                               
                              DFTD3 V3.1  Rev 1                                
                              USING zero damping                               
-------------------------------------------------------------------------------
The omegaB97X-D3 functional is recognized. Fit by Chai et al.
Active option DFTDOPT                   ...         3   

molecular C6(AA) [au] = 208.644517 


            DFT-D V3
 parameters
 s6 scaling factor         :     1.0000 
 rs6 scaling factor        :     1.2810 
 s8 scaling factor         :     1.0000 
 rs8 scaling factor        :     1.0940 
 Damping factor alpha6     :    14.0000 
 Damping factor alpha8     :    16.0000 
 ad hoc parameters k1-k3   :    16.0000     1.3333    -4.0000 

 Edisp/kcal,au: -0.137994737622  -0.000219908589 
 E6   /kcal   :  -0.025361706 
 E8   /kcal   :  -0.112633032 
 % E8         :  81.621251539 

-------------------------   ----------------
Dispersion correction           -0.000219909
-------------------------   ----------------


-------------------------   --------------------
FINAL SINGLE POINT ENERGY      -115.730599575025
-------------------------   --------------------


                            ***************************************
                            *     ORCA property calculations      *
                            ***************************************

                                    ---------------------
                                    Active property flags
                                    ---------------------
   (+) Dipole Moment


------------------------------------------------------------------------------
                       ORCA ELECTRIC PROPERTIES CALCULATION
------------------------------------------------------------------------------

Dipole Moment Calculation                       ... on
Quadrupole Moment Calculation                   ... off
Polarizability Calculation                      ... off
GBWName                                         ... 12-1_DFT_B.gbw
Electron density file                           ... 12-1_DFT_B.scfp.tmp
The origin for moment calculation is the CENTER OF MASS  = (-14.161872,  3.473366 -12.230391)

-------------
DIPOLE MOMENT
-------------
                                X             Y             Z
Electronic contribution:      0.29093       0.78869      -1.57856
Nuclear contribution   :      0.11955      -1.21624       1.97851
                        -----------------------------------------
Total Dipole Moment    :      0.41048      -0.42755       0.39995
                        -----------------------------------------
Magnitude (a.u.)       :      0.71502
Magnitude (Debye)      :      1.81744



--------------------
Rotational spectrum 
--------------------
 
Rotational constants in cm-1:     4.241631     0.860348     0.816406 
Rotational constants in MHz : 127160.885832 25792.593499 24475.223331 

 Dipole components along the rotational axes: 
x,y,z [a.u.] :     0.373894    -0.609469     0.002174 
x,y,z [Debye]:     0.950363    -1.549146     0.005525 

 
------------------------------------------------------------------------------
                      ORCA CHELPG CHARGES GENERATION
------------------------------------------------------------------------------

GBW file                           ... 12-1_DFT_B.gbw

Reading the GBW file               ... done

Grid spacing                       ...     0.300000
Point Cut-Off                      ...     2.800000
Van-der-Waals Radii                ...        COSMO
Total charge                       ...            0


Number of points X direction       ...           38
Number of points Y direction       ...           32
Number of points Z direction       ...           30
Maximum number of possible points  ...        36480
Final number of points             ...         5915


CHELPG Charges            
--------------------------------
  0   C   :       0.064639
  1   O   :      -0.015634
  2   H   :      -0.043297
  3   H   :       0.038561
  4   H   :      -0.041455
  5   H   :      -0.002761
  6   C   :       0.071334
  7   O   :      -0.569497
  8   H   :       0.379865
  9   H   :       0.050685
 10   H   :       0.000603
 11   H   :       0.066958
--------------------------------
Total charge:    -0.000000
--------------------------------

CHELPG charges calculated...

Timings for individual parts in CHELPG calculation:
Grid generation                 ...        0.001 sec (=   0.000 min)
Potential calculation           ...        1.082 sec (=   0.018 min)
Fit to the potential            ...        0.002 sec (=   0.000 min)
------------------------------------------------------------------------------


Timings for individual modules:

Sum of individual times         ...       17.150 sec (=   0.286 min)
GTO integral calculation        ...        0.714 sec (=   0.012 min)   4.2 %
SCF iterations                  ...       15.316 sec (=   0.255 min)  89.3 %
CHELPG charge generation        ...        1.120 sec (=   0.019 min)   6.5 %



                             ****ORCA TERMINATED NORMALLY****
TOTAL RUN TIME: 0 days 0 hours 0 minutes 58 seconds 431 msec
