
                                 *****************
                                 * O   R   C   A *
                                 *****************

           --- An Ab Initio, DFT and Semiempirical electronic structure package ---

                  #######################################################
                  #                        -***-                        #
                  #          Department of theory and spectroscopy      #
                  #               Directorship: Frank Neese             #
                  #        Max Planck Institute fuer Kohlenforschung    #
                  #                Kaiser Wilhelm Platz 1               #
                  #                 D-45470 Muelheim/Ruhr               #
                  #                      Germany                        #
                  #                                                     #
                  #                  All rights reserved                #
                  #                        -***-                        #
                  #######################################################


                         Program Version 4.1.2  - RELEASE  -


 With contributions from (in alphabetic order):
   Daniel Aravena         : Magnetic Properties
   Michael Atanasov       : Ab Initio Ligand Field Theory
   Alexander A. Auer      : GIAO ZORA
   Ute Becker             : Parallelization
   Giovanni Bistoni       : ED, Open-shell LED
   Martin Brehm           : Molecular dynamics
   Dmytro Bykov           : SCF Hessian
   Vijay G. Chilkuri      : MRCI spin determinant printing
   Dipayan Datta          : RHF DLPNO-CCSD density
   Achintya Kumar Dutta   : EOM-CC, STEOM-CC
   Dmitry Ganyushin       : Spin-Orbit,Spin-Spin,Magnetic field MRCI
   Miquel Garcia          : C-PCM Hessian
   Yang Guo               : DLPNO-NEVPT2, CIM, IAO-localization
   Andreas Hansen         : Spin unrestricted coupled pair/coupled cluster methods
   Benjamin Helmich-Paris : CASSCF linear response (MC-RPA)
   Lee Huntington         : MR-EOM, pCC
   Robert Izsak           : Overlap fitted RIJCOSX, COSX-SCS-MP3, EOM
   Christian Kollmar      : KDIIS, OOCD, Brueckner-CCSD(T), CCSD density
   Simone Kossmann        : Meta GGA functionals, TD-DFT gradient, OOMP2, MP2 Hessian
   Martin Krupicka        : AUTO-CI
   Lucas Lang             : DCDCAS
   Dagmar Lenk            : GEPOL surface, SMD
   Dimitrios Liakos       : Extrapolation schemes; parallel MDCI
   Dimitrios Manganas     : ROCIS; embedding schemes
   Dimitrios Pantazis     : SARC Basis sets
   Taras Petrenko         : DFT Hessian,TD-DFT gradient, ASA, ECA, R-Raman, ABS, FL, XAS/XES, NRVS
   Peter Pinski           : DLPNO-MP2, DLPNO-MP2 Gradient
   Christoph Reimann      : Effective Core Potentials
   Marius Retegan         : Local ZFS, SOC
   Christoph Riplinger    : Optimizer, TS searches, QM/MM, DLPNO-CCSD(T), (RO)-DLPNO pert. Triples
   Tobias Risthaus        : Range-separated hybrids, TD-DFT gradient, RPA, STAB
   Michael Roemelt        : Restricted open shell CIS
   Masaaki Saitow         : Open-shell DLPNO
   Barbara Sandhoefer     : DKH picture change effects
   Avijit Sen             : IP-ROCIS
   Kantharuban Sivalingam : CASSCF convergence, NEVPT2, FIC-MRCI
   Bernardo de Souza      : ESD, SOC TD-DFT
   Georgi Stoychev        : AutoAux, RI-MP2 NMR
   Willem Van den Heuvel  : Paramagnetic NMR
   Boris Wezisla          : Elementary symmetry handling
   Frank Wennmohs         : Technical directorship


 We gratefully acknowledge several colleagues who have allowed us to
 interface, adapt or use parts of their codes:
   Stefan Grimme, W. Hujo, H. Kruse,             : VdW corrections, initial TS optimization,
                  C. Bannwarth                     DFT functionals, gCP, sTDA/sTD-DF
   Ed Valeev                                     : LibInt (2-el integral package), F12 methods
   Garnet Chan, S. Sharma, J. Yang, R. Olivares  : DMRG
   Ulf Ekstrom                                   : XCFun DFT Library
   Mihaly Kallay                                 : mrcc  (arbitrary order and MRCC methods)
   Andreas Klamt, Michael Diedenhofen            : otool_cosmo (COSMO solvation model)
   Jiri Pittner, Ondrej Demel                    : Mk-CCSD
   Frank Weinhold                                : gennbo (NPA and NBO analysis)
   Christopher J. Cramer and Donald G. Truhlar   : smd solvation model
   Lars Goerigk                                  : TD-DFT with DH, B97 family of functionals
   V. Asgeirsson, H. Jonsson                     : NEB implementation
   FAccTs GmbH                                   : IRC, NEB, NEB-TS, Multilevel


 Your calculation uses the libint2 library for the computation of 2-el integrals
 For citations please refer to: http://libint.valeyev.net

 This ORCA versions uses:
   CBLAS   interface :  Fast vector & matrix operations
   LAPACKE interface :  Fast linear algebra routines
   SCALAPACK package :  Parallel linear algebra routines


Your calculation utilizes the atom-pairwise dispersion correction
with the zero-damping scheme (D30)
Cite in your paper:
S.Grimme, J.Antony, S.Ehrlich and H.Krieg, J.Chem.Phys., 132, (2010), 154104 
   

XCFun DFT library Copyright 2009-2010 Ulf Ekstrom and contributors.
See http://admol.org/xcfun for more information. This is free soft-
ware; see the source code for copying conditions. There is ABSOLUTELY
NO WARRANTY; not even for MERCHANTABILITY or FITNESS FOR A PARTICULAR
PURPOSE. For details see the documentation. Scientific users of this 
library should cite U. Ekstrom, L. Visscher, R. Bast, A. J. Thorvald-
sen and K. Ruud; J.Chem.Theor.Comp. 2010, DOI: 10.1021/ct100117s
XCFun Version 0.99 
----- Orbital basis set information -----
Your calculation utilizes the basis: def2-TZVP
   F. Weigend and R. Ahlrichs, Phys. Chem. Chem. Phys. 7, 3297 (2005).

================================================================================
                                        WARNINGS
                       Please study these warnings very carefully!
================================================================================


INFO   : the flag for use of LIBINT has been found!

================================================================================
                                       INPUT FILE
================================================================================
NAME = 63.in
|  1> #Run DFT-D3 single point of the dimer
|  2> ! wB97X-D3 def2-TZVP TIGHTSCF  CHELPG PAL8
|  3> 
|  4> %base "63_charges"
|  5> 
|  6> %scf
|  7> MaxIter 1000
|  8> end
|  9> %output
| 10>   Print[ P_Mayer ] 1
| 11>   Print[ P_NatPop ] 1
| 12>   Print[ P_Hirshfeld ] 1
| 13>   Print[ P_Mulliken ] 1
| 14>   Print [ P_Loewdin ] 1
| 15> end
| 16> 
| 17> * xyz 0 1
| 18>   C                      -9.971029            10.712221            -1.637117           
| 19>   O                      -9.698350            12.034304            -1.135220           
| 20>   H                      -9.308766            11.889900            -0.273848           
| 21>   H                      -9.155551            9.983718             -1.596313           
| 22>   H                      -10.851314           10.272460            -1.114591           
| 23>   H                      -10.232360           10.832801            -2.726006           
| 24> *
| 25> 
| 26>                          ****END OF INPUT****
================================================================================

                       ****************************
                       * Single Point Calculation *
                       ****************************

---------------------------------
CARTESIAN COORDINATES (ANGSTROEM)
---------------------------------
  C     -9.971029   10.712221   -1.637117
  O     -9.698350   12.034304   -1.135220
  H     -9.308766   11.889900   -0.273848
  H     -9.155551    9.983718   -1.596313
  H    -10.851314   10.272460   -1.114591
  H    -10.232360   10.832801   -2.726006

----------------------------
CARTESIAN COORDINATES (A.U.)
----------------------------
  NO LB      ZA    FRAG     MASS         X           Y           Z
   0 C     6.0000    0    12.011  -18.842514   20.243164   -3.093703
   1 O     8.0000    0    15.999  -18.327225   22.741539   -2.145255
   2 H     1.0000    0     1.008  -17.591018   22.468655   -0.517498
   3 H     1.0000    0     1.008  -17.301484   18.866493   -3.016594
   4 H     1.0000    0     1.008  -20.506012   19.412136   -2.106272
   5 H     1.0000    0     1.008  -19.336358   20.471027   -5.151405

--------------------------------
INTERNAL COORDINATES (ANGSTROEM)
--------------------------------
 C      0   0   0     0.000000000000     0.00000000     0.00000000
 O      1   0   0     1.440193700354     0.00000000     0.00000000
 H      2   1   0     0.956341952785   104.61967835     0.00000000
 H      1   2   3     1.094251322096   117.19763734   309.98745380
 H      1   2   3     1.114147584040   110.39492955    74.12337231
 H      1   2   3     1.126282683114   106.41386616   191.31212926

---------------------------
INTERNAL COORDINATES (A.U.)
---------------------------
 C      0   0   0     0.000000000000     0.00000000     0.00000000
 O      1   0   0     2.721571673467     0.00000000     0.00000000
 H      2   1   0     1.807224381142   104.61967835     0.00000000
 H      1   2   3     2.067835320443   117.19763734   309.98745380
 H      1   2   3     2.105433806605   110.39492955    74.12337231
 H      1   2   3     2.128365820463   106.41386616   191.31212926

---------------------
BASIS SET INFORMATION
---------------------
There are 3 groups of distinct atoms

 Group   1 Type C   : 11s6p2d1f contracted to 5s3p2d1f pattern {62111/411/11/1}
 Group   2 Type O   : 11s6p2d1f contracted to 5s3p2d1f pattern {62111/411/11/1}
 Group   3 Type H   : 5s1p contracted to 3s1p pattern {311/1}

Atom   0C    basis set group =>   1
Atom   1O    basis set group =>   2
Atom   2H    basis set group =>   3
Atom   3H    basis set group =>   3
Atom   4H    basis set group =>   3
Atom   5H    basis set group =>   3


           ************************************************************
           *        Program running with 8 parallel MPI-processes     *
           *              working on a common directory               *
           ************************************************************
------------------------------------------------------------------------------
                           ORCA GTO INTEGRAL CALCULATION
------------------------------------------------------------------------------

                         BASIS SET STATISTICS AND STARTUP INFO

 # of primitive gaussian shells          ...   64
 # of primitive gaussian functions       ...  124
 # of contracted shells                  ...   38
 # of contracted basis functions         ...   86
 Highest angular momentum                ...    3
 Maximum contraction depth               ...    6
 Integral package used                   ... LIBINT
 Integral threshhold            Thresh   ...  2.500e-11
 Primitive cut-off              TCut     ...  2.500e-12


------------------------------ INTEGRAL EVALUATION ----------------------------


 * One electron integrals 
 Pre-screening matrix                    ... done
 Shell pair data                         ... done (   0.000 sec)



           ************************************************************
           *        Program running with 8 parallel MPI-processes     *
           *              working on a common directory               *
           ************************************************************
-------------------------------------------------------------------------------
                                 ORCA SCF
-------------------------------------------------------------------------------

------------
SCF SETTINGS
------------
Hamiltonian:
 Density Functional     Method          .... DFT(GTOs)
 Exchange Functional    Exchange        .... WB97X-D3
 Correlation Functional Correlation     .... WB97X-D3
 Gradients option       PostSCFGGA      .... off
 Hybrid DFT is turned on
   Fraction HF Exchange ScalHFX         ....  0.195728
   Scaling of DF-GGA-X  ScalDFX         ....  0.000000
   Scaling of DF-GGA-C  ScalDFC         ....  1.000000
   Scaling of DF-LDA-C  ScalLDAC        ....  1.000000
   Perturbative correction              ....  0.000000
   Density functional embedding theory  .... OFF
 Long-range corrected/Screened/Range-Separated Hybrid DFT is turned on
   Amount of maximum screened exact exchange              ....  0.804272
   Range separation parameter mu (erf(mu*r12)/r12)        ....  0.250000


General Settings:
 Integral files         IntName         .... 63_charges
 Hartree-Fock type      HFTyp           .... RHF
 Total Charge           Charge          ....    0
 Multiplicity           Mult            ....    1
 Number of Electrons    NEL             ....   18
 Basis Dimension        Dim             ....   86
 Nuclear Repulsion      ENuc            ....     39.8222601612 Eh

Convergence Acceleration:
 DIIS                   CNVDIIS         .... on
   Start iteration      DIISMaxIt       ....    12
   Startup error        DIISStart       ....  0.200000
   # of expansion vecs  DIISMaxEq       ....     5
   Bias factor          DIISBfac        ....   1.050
   Max. coefficient     DIISMaxC        ....  10.000
 Newton-Raphson         CNVNR           .... off
 SOSCF                  CNVSOSCF        .... on
   Start iteration      SOSCFMaxIt      ....   150
   Startup grad/error   SOSCFStart      ....  0.003300
 Level Shifting         CNVShift        .... on
   Level shift para.    LevelShift      ....    0.2500
   Turn off err/grad.   ShiftErr        ....    0.0010
 Zerner damping         CNVZerner       .... off
 Static damping         CNVDamp         .... on
   Fraction old density DampFac         ....    0.7000
   Max. Damping (<1)    DampMax         ....    0.9800
   Min. Damping (>=0)   DampMin         ....    0.0000
   Turn off err/grad.   DampErr         ....    0.1000
 Fernandez-Rico         CNVRico         .... off

SCF Procedure:
 Maximum # iterations   MaxIter         ....  1000
 SCF integral mode      SCFMode         .... Direct
   Integral package                     .... LIBINT
 Reset frequency        DirectResetFreq ....    20
 Integral Threshold     Thresh          ....  2.500e-11 Eh
 Primitive CutOff       TCut            ....  2.500e-12 Eh

Convergence Tolerance:
 Convergence Check Mode ConvCheckMode   .... Total+1el-Energy
 Convergence forced     ConvForced      .... 0
 Energy Change          TolE            ....  1.000e-08 Eh
 1-El. energy change                    ....  1.000e-05 Eh
 Orbital Gradient       TolG            ....  1.000e-05
 Orbital Rotation angle TolX            ....  1.000e-05
 DIIS Error             TolErr          ....  5.000e-07


Diagonalization of the overlap matrix:
Smallest eigenvalue                        ... 1.755e-03
Time for diagonalization                   ...    0.033 sec
Threshold for overlap eigenvalues          ... 1.000e-08
Number of eigenvalues below threshold      ... 0
Time for construction of square roots      ...    0.132 sec
Total time needed                          ...    0.177 sec

-------------------
DFT GRID GENERATION
-------------------

General Integration Accuracy     IntAcc      ...  4.340
Radial Grid Type                 RadialGrid  ... Gauss-Chebyshev
Angular Grid (max. acc.)         AngularGrid ... Lebedev-110
Angular grid pruning method      GridPruning ... 3 (G Style)
Weight generation scheme         WeightScheme... Becke
Basis function cutoff            BFCut       ...    1.0000e-11
Integration weight cutoff        WCut        ...    1.0000e-14
Grids for H and He will be reduced by one unit

# of grid points (after initial pruning)     ...   6548 (   0.0 sec)
# of grid points (after weights+screening)   ...   6373 (   0.8 sec)
nearest neighbour list constructed           ...    0.0 sec
Grid point re-assignment to atoms done       ...    0.0 sec
Grid point division into batches done        ...    0.0 sec
Reduced shell lists constructed in    0.0 sec

Total number of grid points                  ...     6373
Total number of batches                      ...      103
Average number of points per batch           ...       61
Average number of grid points per atom       ...     1062
Average number of shells per batch           ...    31.93 (84.02%)
Average number of basis functions per batch  ...    73.79 (85.80%)
Average number of large shells per batch     ...    30.21 (94.63%)
Average number of large basis fcns per batch ...    69.50 (94.19%)
Maximum spatial batch extension              ...  19.00, 14.02, 15.39 au
Average spatial batch extension              ...   0.47,  0.39,  0.40 au

Time for grid setup =    1.397 sec

------------------------------
INITIAL GUESS: MODEL POTENTIAL
------------------------------
Loading Hartree-Fock densities                     ... done
Calculating cut-offs                               ... done
Setting up the integral package                    ... done
Initializing the effective Hamiltonian             ... done
Starting the Coulomb interaction                   ... done (   0.0 sec)
Reading the grid                                   ... done
Mapping shells                                     ... done
Starting the XC term evaluation                    ... done (   0.1 sec)
  promolecular density results
     # of electrons  =     18.000671749
     EX              =    -14.414497333
     EC              =     -0.573101041
     EX+EC           =    -14.987598374
Transforming the Hamiltonian                       ... done (   0.0 sec)
Diagonalizing the Hamiltonian                      ... done (   0.0 sec)
Back transforming the eigenvectors                 ... done (   0.0 sec)
Now organizing SCF variables                       ... done
                      ------------------
                      INITIAL GUESS DONE (   2.6 sec)
                      ------------------
--------------
SCF ITERATIONS
--------------
ITER       Energy         Delta-E        Max-DP      RMS-DP      [F,P]     Damp
               ***  Starting incremental Fock matrix formation  ***
  0   -115.6532138297   0.000000000000 0.03638477  0.00143698  0.2408008 0.7000
  1   -115.6882532361  -0.035039406395 0.02094851  0.00100933  0.1195672 0.7000
                               ***Turning on DIIS***
  2   -115.7042469752  -0.015993739102 0.03041920  0.00181314  0.0461001 0.0000
  3   -115.7302915392  -0.026044563959 0.01774334  0.00066567  0.0606616 0.0000
  4   -115.7345708427  -0.004279303469 0.00405163  0.00013309  0.0059128 0.0000
                      *** Initiating the SOSCF procedure ***
                           *** Shutting down DIIS ***
                      *** Re-Reading the Fockian *** 
                      *** Removing any level shift *** 
ITER      Energy       Delta-E        Grad      Rot      Max-DP    RMS-DP
  5   -115.73466152  -0.0000906753  0.000497  0.000497  0.000655  0.000045
               *** Restarting incremental Fock matrix formation ***
  6   -115.73466954  -0.0000080252  0.000192  0.000213  0.000458  0.000028
  7   -115.73467034  -0.0000007948  0.000055  0.000108  0.000202  0.000012
  8   -115.73467040  -0.0000000620  0.000023  0.000022  0.000037  0.000001
  9   -115.73467041  -0.0000000067  0.000014  0.000011  0.000019  0.000001
                  ***Gradient check signals convergence***
              ***Rediagonalizing the Fockian in SOSCF/NRSCF***

               *****************************************************
               *                     SUCCESS                       *
               *           SCF CONVERGED AFTER  10 CYCLES          *
               *****************************************************

Setting up the final grid:

General Integration Accuracy     IntAcc      ...  4.670
Radial Grid Type                 RadialGrid  ... Gauss-Chebyshev
Angular Grid (max. acc.)         AngularGrid ... Lebedev-302
Angular grid pruning method      GridPruning ... 3 (G Style)
Weight generation scheme         WeightScheme... Becke
Basis function cutoff            BFCut       ...    1.0000e-11
Integration weight cutoff        WCut        ...    1.0000e-14
Grids for H and He will be reduced by one unit

# of grid points (after initial pruning)     ...  26000 (   0.0 sec)
# of grid points (after weights+screening)   ...  25206 (   0.0 sec)
nearest neighbour list constructed           ...    0.0 sec
Grid point re-assignment to atoms done       ...    0.0 sec
Grid point division into batches done        ...    0.1 sec
Reduced shell lists constructed in    0.1 sec

Total number of grid points                  ...    25206
Total number of batches                      ...      398
Average number of points per batch           ...       63
Average number of grid points per atom       ...     4201
Average number of shells per batch           ...    31.22 (82.15%)
Average number of basis functions per batch  ...    71.53 (83.17%)
Average number of large shells per batch     ...    29.84 (95.60%)
Average number of large basis fcns per batch ...    68.75 (96.11%)
Maximum spatial batch extension              ...  16.05, 15.01, 16.88 au
Average spatial batch extension              ...   0.31,  0.28,  0.30 au

Final grid set up in    0.2 sec
Final integration                            ... done (   0.1 sec)
Change in XC energy                          ...     0.000162363
Integrated number of electrons               ...    17.999983454
Previous integrated no of electrons          ...    18.001961812

----------------
TOTAL SCF ENERGY
----------------

Total Energy       :         -115.73450805 Eh           -3149.29607 eV

Components:
Nuclear Repulsion  :           39.82226016 Eh            1083.61879 eV
Electronic Energy  :         -155.55676821 Eh           -4232.91486 eV
One Electron Energy:         -236.08669172 Eh           -6424.24548 eV
Two Electron Energy:           80.52992351 Eh            2191.33062 eV

Virial components:
Potential Energy   :         -230.87805149 Eh           -6282.51118 eV
Kinetic Energy     :          115.14354345 Eh            3133.21511 eV
Virial Ratio       :            2.00513242


DFT components:
N(Alpha)           :        8.999991727149 electrons
N(Beta)            :        8.999991727149 electrons
N(Total)           :       17.999983454299 electrons
E(XC)              :      -10.630512899333 Eh       
DFET-embed. en.    :        0.000000000000 Eh       

---------------
SCF CONVERGENCE
---------------

  Last Energy change         ...   -2.4247e-09  Tolerance :   1.0000e-08
  Last MAX-Density change    ...    3.0959e-06  Tolerance :   1.0000e-07
  Last RMS-Density change    ...    1.7247e-07  Tolerance :   5.0000e-09
  Last Orbital Gradient      ...    1.9206e-06  Tolerance :   1.0000e-05
  Last Orbital Rotation      ...    2.7464e-06  Tolerance :   1.0000e-05

             **** THE GBW FILE WAS UPDATED (63_charges.gbw) ****
             **** DENSITY FILE WAS UPDATED (63_charges.scfp.tmp) ****
             **** ENERGY FILE WAS UPDATED (63_charges.en.tmp) ****
----------------
ORBITAL ENERGIES
----------------

  NO   OCC          E(Eh)            E(eV) 
   0   2.0000     -19.233160      -523.3609 
   1   2.0000     -10.320578      -280.8372 
   2   2.0000      -1.132401       -30.8142 
   3   2.0000      -0.791829       -21.5468 
   4   2.0000      -0.607792       -16.5389 
   5   2.0000      -0.537437       -14.6244 
   6   2.0000      -0.516150       -14.0451 
   7   2.0000      -0.440382       -11.9834 
   8   2.0000      -0.376609       -10.2480 
   9   0.0000       0.115805         3.1512 
  10   0.0000       0.151833         4.1316 
  11   0.0000       0.194482         5.2921 
  12   0.0000       0.202252         5.5036 
  13   0.0000       0.226214         6.1556 
  14   0.0000       0.305738         8.3195 
  15   0.0000       0.314645         8.5619 
  16   0.0000       0.387224        10.5369 
  17   0.0000       0.448788        12.2121 
  18   0.0000       0.489976        13.3329 
  19   0.0000       0.531092        14.4518 
  20   0.0000       0.544416        14.8143 
  21   0.0000       0.554282        15.0828 
  22   0.0000       0.588931        16.0256 
  23   0.0000       0.597238        16.2517 
  24   0.0000       0.673675        18.3316 
  25   0.0000       0.766050        20.8453 
  26   0.0000       0.811925        22.0936 
  27   0.0000       0.858334        23.3565 
  28   0.0000       0.989785        26.9334 
  29   0.0000       1.026542        27.9336 
  30   0.0000       1.097688        29.8696 
  31   0.0000       1.371933        37.3322 
  32   0.0000       1.501277        40.8518 
  33   0.0000       1.559047        42.4238 
  34   0.0000       1.593529        43.3621 
  35   0.0000       1.612172        43.8694 
  36   0.0000       1.622494        44.1503 
  37   0.0000       1.665459        45.3194 
  38   0.0000       1.674640        45.5693 
  39   0.0000       1.789384        48.6916 
  40   0.0000       1.949348        53.0445 
  41   0.0000       2.036276        55.4099 
  42   0.0000       2.062154        56.1141 
  43   0.0000       2.071749        56.3752 
  44   0.0000       2.100098        57.1466 
  45   0.0000       2.247144        61.1479 
  46   0.0000       2.312350        62.9222 
  47   0.0000       2.343455        63.7687 
  48   0.0000       2.384181        64.8769 
  49   0.0000       2.423156        65.9374 
  50   0.0000       2.476125        67.3788 
  51   0.0000       2.583699        70.3060 
  52   0.0000       2.626444        71.4692 
  53   0.0000       2.690294        73.2066 
  54   0.0000       2.802168        76.2509 
  55   0.0000       2.861016        77.8522 
  56   0.0000       2.886033        78.5330 
  57   0.0000       2.984504        81.2125 
  58   0.0000       3.083560        83.9079 
  59   0.0000       3.138972        85.4158 
  60   0.0000       3.265661        88.8631 
  61   0.0000       3.362385        91.4951 
  62   0.0000       3.393636        92.3455 
  63   0.0000       3.501629        95.2842 
  64   0.0000       3.567567        97.0784 
  65   0.0000       3.631386        98.8150 
  66   0.0000       3.647078        99.2420 
  67   0.0000       4.002214       108.9058 
  68   0.0000       4.200773       114.3088 
  69   0.0000       4.243108       115.4608 
  70   0.0000       4.410709       120.0215 
  71   0.0000       4.561197       124.1165 
  72   0.0000       5.341843       145.3589 
  73   0.0000       5.431828       147.8076 
  74   0.0000       5.536467       150.6549 
  75   0.0000       5.753504       156.5608 
  76   0.0000       5.777962       157.2263 
  77   0.0000       5.971364       162.4891 
  78   0.0000       6.357755       173.0033 
  79   0.0000       6.522645       177.4902 
  80   0.0000       6.761422       183.9877 
  81   0.0000       6.779299       184.4741 
  82   0.0000       7.030849       191.3191 
  83   0.0000       7.197456       195.8527 
  84   0.0000      22.269746       605.9906 
  85   0.0000      43.633431      1187.3260 

                    ********************************
                    * MULLIKEN POPULATION ANALYSIS *
                    ********************************

-----------------------
MULLIKEN ATOMIC CHARGES
-----------------------
   0 C :   -0.175724
   1 O :   -0.467420
   2 H :    0.311767
   3 H :    0.109076
   4 H :    0.103077
   5 H :    0.119223
Sum of atomic charges:   -0.0000000

--------------------------------
MULLIKEN REDUCED ORBITAL CHARGES
--------------------------------
  0 C s       :     3.236097  s :     3.236097
      pz      :     1.044193  p :     2.840482
      px      :     1.042001
      py      :     0.754288
      dz2     :     0.023359  d :     0.092080
      dxz     :     0.007789
      dyz     :     0.016728
      dx2y2   :     0.013975
      dxy     :     0.030228
      f0      :     0.000713  f :     0.007064
      f+1     :     0.000219
      f-1     :     0.001429
      f+2     :     0.000797
      f-2     :     0.000717
      f+3     :     0.001638
      f-3     :     0.001550
  1 O s       :     3.804662  s :     3.804662
      pz      :     1.403904  p :     4.630785
      px      :     1.803357
      py      :     1.423524
      dz2     :     0.008523  d :     0.030411
      dxz     :     0.004090
      dyz     :     0.005583
      dx2y2   :     0.007701
      dxy     :     0.004514
      f0      :     0.000205  f :     0.001562
      f+1     :     0.000494
      f-1     :     0.000129
      f+2     :     0.000197
      f-2     :     0.000134
      f+3     :     0.000184
      f-3     :     0.000218
  2 H s       :     0.640325  s :     0.640325
      pz      :     0.018468  p :     0.047908
      px      :     0.017960
      py      :     0.011480
  3 H s       :     0.871390  s :     0.871390
      pz      :     0.003995  p :     0.019534
      px      :     0.008411
      py      :     0.007128
  4 H s       :     0.877869  s :     0.877869
      pz      :     0.005320  p :     0.019053
      px      :     0.009512
      py      :     0.004221
  5 H s       :     0.861608  s :     0.861608
      pz      :     0.012109  p :     0.019169
      px      :     0.004400
      py      :     0.002660


                     *******************************
                     * LOEWDIN POPULATION ANALYSIS *
                     *******************************

----------------------
LOEWDIN ATOMIC CHARGES
----------------------
   0 C :   -0.379213
   1 O :   -0.091783
   2 H :    0.164547
   3 H :    0.093005
   4 H :    0.097964
   5 H :    0.115481

-------------------------------
LOEWDIN REDUCED ORBITAL CHARGES
-------------------------------
  0 C s       :     2.879902  s :     2.879902
      pz      :     1.075205  p :     3.054398
      px      :     1.092174
      py      :     0.887018
      dz2     :     0.090545  d :     0.393705
      dxz     :     0.028827
      dyz     :     0.063791
      dx2y2   :     0.074652
      dxy     :     0.135889
      f0      :     0.004512  f :     0.051209
      f+1     :     0.001423
      f-1     :     0.010066
      f+2     :     0.009816
      f-2     :     0.006157
      f+3     :     0.008722
      f-3     :     0.010513
  1 O s       :     3.389892  s :     3.389892
      pz      :     1.409324  p :     4.630168
      px      :     1.723418
      py      :     1.497425
      dz2     :     0.018565  d :     0.067352
      dxz     :     0.009183
      dyz     :     0.013250
      dx2y2   :     0.015035
      dxy     :     0.011319
      f0      :     0.000491  f :     0.004372
      f+1     :     0.000827
      f-1     :     0.000839
      f+2     :     0.000600
      f-2     :     0.000362
      f+3     :     0.000637
      f-3     :     0.000614
  2 H s       :     0.675315  s :     0.675315
      pz      :     0.072358  p :     0.160138
      px      :     0.052630
      py      :     0.035150
  3 H s       :     0.845496  s :     0.845496
      pz      :     0.013318  p :     0.061499
      px      :     0.026347
      py      :     0.021835
  4 H s       :     0.844392  s :     0.844392
      pz      :     0.016741  p :     0.057644
      px      :     0.028241
      py      :     0.012662
  5 H s       :     0.829901  s :     0.829901
      pz      :     0.033940  p :     0.054618
      px      :     0.012630
      py      :     0.008048


                      *****************************
                      * MAYER POPULATION ANALYSIS *
                      *****************************

  NA   - Mulliken gross atomic population
  ZA   - Total nuclear charge
  QA   - Mulliken gross atomic charge
  VA   - Mayer's total valence
  BVA  - Mayer's bonded valence
  FA   - Mayer's free valence

  ATOM       NA         ZA         QA         VA         BVA        FA
  0 C      6.1757     6.0000    -0.1757     3.9274     3.9274    -0.0000
  1 O      8.4674     8.0000    -0.4674     1.9007     1.9007    -0.0000
  2 H      0.6882     1.0000     0.3118     0.9147     0.9147    -0.0000
  3 H      0.8909     1.0000     0.1091     0.9553     0.9553    -0.0000
  4 H      0.8969     1.0000     0.1031     0.9596     0.9596    -0.0000
  5 H      0.8808     1.0000     0.1192     0.9617     0.9617    -0.0000

  Mayer bond orders larger than 0.1
B(  0-C ,  1-O ) :   1.0017 B(  0-C ,  3-H ) :   0.9672 B(  0-C ,  4-H ) :   0.9741 
B(  0-C ,  5-H ) :   0.9755 B(  1-O ,  2-H ) :   0.9036 


------------------
HIRSHFELD ANALYSIS
------------------

Total integrated alpha density =      9.000980906
Total integrated beta density  =      9.000980906

  ATOM     CHARGE      SPIN    
   0 C    0.006840    0.000000
   1 O   -0.253762    0.000000
   2 H    0.156531    0.000000
   3 H    0.026784    0.000000
   4 H    0.024178    0.000000
   5 H    0.037468    0.000000

  TOTAL  -0.001962    0.000000

-------
TIMINGS
-------

Total SCF time: 0 days 0 hours 0 min 26 sec 

Total time                  ....      26.621 sec
Sum of individual times     ....      22.808 sec  ( 85.7%)

Fock matrix formation       ....      15.623 sec  ( 58.7%)
  XC integration            ....       3.846 sec  ( 24.6% of F)
    Basis function eval.    ....       0.040 sec  (  1.0% of XC)
    Density eval.           ....       0.056 sec  (  1.5% of XC)
    XC-Functional eval.     ....       0.079 sec  (  2.0% of XC)
    XC-Potential eval.      ....       0.036 sec  (  0.9% of XC)
Diagonalization             ....       2.044 sec  (  7.7%)
Density matrix formation    ....       1.499 sec  (  5.6%)
Population analysis         ....       0.045 sec  (  0.2%)
Initial guess               ....       1.212 sec  (  4.6%)
Orbital Transformation      ....       0.000 sec  (  0.0%)
Orbital Orthonormalization  ....       0.000 sec  (  0.0%)
DIIS solution               ....       0.316 sec  (  1.2%)
SOSCF solution              ....       0.505 sec  (  1.9%)
Grid generation             ....       1.565 sec  (  5.9%)


-------------------------------------------------------------------------------
                          DFT DISPERSION CORRECTION                            
                                                                               
                              DFTD3 V3.1  Rev 1                                
                              USING zero damping                               
-------------------------------------------------------------------------------
The omegaB97X-D3 functional is recognized. Fit by Chai et al.
Active option DFTDOPT                   ...         3   

molecular C6(AA) [au] = 208.800456 


            DFT-D V3
 parameters
 s6 scaling factor         :     1.0000 
 rs6 scaling factor        :     1.2810 
 s8 scaling factor         :     1.0000 
 rs8 scaling factor        :     1.0940 
 Damping factor alpha6     :    14.0000 
 Damping factor alpha8     :    16.0000 
 ad hoc parameters k1-k3   :    16.0000     1.3333    -4.0000 

 Edisp/kcal,au: -0.162594202860  -0.000259110328 
 E6   /kcal   :  -0.031506718 
 E8   /kcal   :  -0.131087484 
 % E8         :  80.622483493 

-------------------------   ----------------
Dispersion correction           -0.000259110
-------------------------   ----------------


-------------------------   --------------------
FINAL SINGLE POINT ENERGY      -115.734767156535
-------------------------   --------------------


                            ***************************************
                            *     ORCA property calculations      *
                            ***************************************

                                    ---------------------
                                    Active property flags
                                    ---------------------
   (+) Dipole Moment


------------------------------------------------------------------------------
                       ORCA ELECTRIC PROPERTIES CALCULATION
------------------------------------------------------------------------------

Dipole Moment Calculation                       ... on
Quadrupole Moment Calculation                   ... off
Polarizability Calculation                      ... off
GBWName                                         ... 63_charges.gbw
Electron density file                           ... 63_charges.scfp.tmp
The origin for moment calculation is the CENTER OF MASS  = (-18.565241, 21.498364 -2.570330)

-------------
DIPOLE MOMENT
-------------
                                X             Y             Z
Electronic contribution:      0.37774       1.74553       0.58295
Nuclear contribution   :     -0.23341      -2.36095      -0.25009
                        -----------------------------------------
Total Dipole Moment    :      0.14433      -0.61542       0.33285
                        -----------------------------------------
Magnitude (a.u.)       :      0.71440
Magnitude (Debye)      :      1.81585



--------------------
Rotational spectrum 
--------------------
 
Rotational constants in cm-1:     4.187256     0.804856     0.775770 
Rotational constants in MHz : 125530.767261 24128.984815 23257.009041 

 Dipole components along the rotational axes: 
x,y,z [a.u.] :     0.390102     0.596899     0.043536 
x,y,z [Debye]:     0.991560     1.517196     0.110660 

 
------------------------------------------------------------------------------
                      ORCA CHELPG CHARGES GENERATION
------------------------------------------------------------------------------

GBW file                           ... 63_charges.gbw

Reading the GBW file               ... done

Grid spacing                       ...     0.300000
Point Cut-Off                      ...     2.800000
Van-der-Waals Radii                ...        COSMO
Total charge                       ...            0


Number of points X direction       ...           24
Number of points Y direction       ...           25
Number of points Z direction       ...           26
Maximum number of possible points  ...        15600
Final number of points             ...         5966


CHELPG Charges            
--------------------------------
  0   C   :       0.055893
  1   O   :      -0.584492
  2   H   :       0.393684
  3   H   :       0.025064
  4   H   :       0.027415
  5   H   :       0.082435
--------------------------------
Total charge:    -0.000000
--------------------------------

CHELPG charges calculated...

Timings for individual parts in CHELPG calculation:
Grid generation                 ...        0.001 sec (=   0.000 min)
Potential calculation           ...        0.660 sec (=   0.011 min)
Fit to the potential            ...        0.001 sec (=   0.000 min)
------------------------------------------------------------------------------


Timings for individual modules:

Sum of individual times         ...       37.326 sec (=   0.622 min)
GTO integral calculation        ...        5.480 sec (=   0.091 min)  14.7 %
SCF iterations                  ...       31.132 sec (=   0.519 min)  83.4 %
CHELPG charge generation        ...        0.714 sec (=   0.012 min)   1.9 %
                             ****ORCA TERMINATED NORMALLY****
TOTAL RUN TIME: 0 days 0 hours 0 minutes 41 seconds 283 msec
