LAMMPS data file via vdw_self_gen.py, on 2021-08-05 13:23:54.643731

9500 atoms
7 atom types
9000 bonds
7 bond types
16000 angles
12 angle types
21000 dihedrals
10 dihedral types

-55.0746406568430302  55.0746406568430231 xlo xhi
-55.0746406568430302  55.0746406568430231 ylo yhi
-55.0746406568430302  55.0746406568430231 zlo zhi

Masses

1  1.007940
2  1.007940
3  1.007940
4  12.011000
5  12.011000
6  12.011000
7  15.999400

Atoms

1         0    7   -0.6441380000000000  -18.8177518568789317  45.0010428094388999 -32.6524899470060390 0 0 0
2         0    5    0.2691680000000000  -17.7839673832614906  44.0392071042652162 -32.8057785726785056 0 0 0
3         0    6   -0.0368270000000000  -18.1046293943087164  42.7954818026848045 -31.9851336093844694 0 0 0
4         0    4   -0.0280880000000000  -18.1976180667837930  43.0910411528689323 -30.4843933727312155 0 0 0
5         0    6   -0.0368270000000000  -18.5135769365129335  41.8245523942223727 -29.6895088031480689 0 0 0
6         0    5    0.2691680000000000  -18.6389047787135773  42.1054516463238784 -28.1971015746952745 0 0 0
7         0    7   -0.6441380000000000  -18.9189681468658755  40.8952297052575702 -27.5031102794466342 0 0 0
8         0    3    0.4025730000000000  -18.5777617358310927  45.7676529070568847 -33.2011531991284841 0 0 0
9         0    2   -0.0094320000000000  -16.8362638169087155  44.4854249561442998 -32.4879274102035964 0 0 0
10        0    2   -0.0094320000000000  -17.7111953545061631  43.7788661986314338 -33.8665547371847637 0 0 0
11        0    1    0.0140440000000000  -17.3326283454174686  42.0386984880265118 -32.1661783764052842 0 0 0
12        0    1    0.0140440000000000  -19.0619803331940822  42.3803110992994760 -32.3230561338865101 0 0 0
13        0    1    0.0140440000000000  -18.9770457936170764  43.8394894226735303 -30.2987491294323661 0 0 0
14        0    1    0.0140440000000000  -17.2494695763370451  43.5176494446652455 -30.1354146999814567 0 0 0
15        0    1    0.0140440000000000  -17.7332708850031295  41.0703971181407042 -29.8517225785660543 0 0 0
16        0    1    0.0140440000000000  -19.4459142087740062  41.3739513501183964 -30.0525404761535881 0 0 0
17        0    2   -0.0094320000000000  -19.4436694125488430  42.8173952011403429 -27.9906986169081122 0 0 0
18        0    2   -0.0094320000000000  -17.7067603962506048  42.5143642371712147 -27.7972468958565173 0 0 0
19        0    3    0.4025730000000000  -19.7546810716256616  40.5445937796617102 -27.8546707427683451 0 0 0
20        1    7   -0.6441380000000000  -41.3560569558757081  15.8972935606349139  43.7730619775536596 0 0 0
21        1    5    0.2691680000000000  -41.4205035870958866  17.0725602171390385  44.5680025930929489 0 0 0
22        1    6   -0.0368270000000000  -42.6247796104105987  17.9122885653458006  44.1584779078940457 0 0 0
23        1    4   -0.0280880000000000  -42.5439969203348411  18.3823188638669848  42.7021918247166354 0 0 0
24        1    6   -0.0368270000000000  -43.7612049621627435  19.2258381038730910  42.3246403226020078 0 0 0
25        1    5    0.2691680000000000  -43.7119000521488346  19.6775392187201454  40.8701899377162050 0 0 0
26        1    7   -0.6441380000000000  -44.8572674677384740  20.4683430671325119  40.5744547329439413 0 0 0
27        1    3    0.4025730000000000  -40.5841671341951553  15.3892684260935351  44.0770590664544670 0 0 0
28        1    2   -0.0094320000000000  -40.4895480057375678  17.6347921081919168  44.4435084618220131 0 0 0
29        1    2   -0.0094320000000000  -41.5124434478509201  16.7734197964108844  45.6169932018168396 0 0 0
30        1    1    0.0140440000000000  -42.6985728655511849  18.7801486715963009  44.8239530794629246 0 0 0
31        1    1    0.0140440000000000  -43.5370146927858670  17.3170071001265029  44.2871103196344436 0 0 0
32        1    1    0.0140440000000000  -42.4816068524403079  17.5159969224474850  42.0330580920119843 0 0 0
33        1    1    0.0140440000000000  -41.6295414900056784  18.9700615450293881  42.5569468066212124 0 0 0
34        1    1    0.0140440000000000  -43.8287383422290304  20.1067775695185027  42.9752753384482133 0 0 0
35        1    1    0.0140440000000000  -44.6830799643766738  18.6557229793206467  42.4955242330488900 0 0 0
36        1    2   -0.0094320000000000  -43.6948775067954926  18.8232406505646175  40.1868188002681066 0 0 0
37        1    2   -0.0094320000000000  -42.8241557131923827  20.2874691644283693  40.6807648314627386 0 0 0
38        1    3    0.4025730000000000  -45.6413452468640912  19.9159709628985269  40.7327692902201477 0 0 0
39        2    7   -0.6441380000000000   15.5034794327152223 -43.2011026855500688  41.9185905610579610 0 0 0
40        2    5    0.2691680000000000   16.5167758928107276 -42.7513913472992542  41.0307135084169019 0 0 0
41        2    6   -0.0368270000000000   17.8869029135512037 -43.1729354759818378  41.5485816398075869 0 0 0
42        2    4   -0.0280880000000000   18.2107828663727176 -42.5610630183319998  42.9156724752424026 0 0 0
43        2    6   -0.0368270000000000   19.5917488749758029 -42.9971499726827986  43.4039616451283621 0 0 0
44        2    5    0.2691680000000000   19.9184364336249295 -42.4212499854301157  44.7763701984047628 0 0 0
45        2    7   -0.6441380000000000   21.2161851935837724 -42.8448503392041431  45.1777521250130718 0 0 0
46        2    3    0.4025730000000000   14.6506360503187505 -42.9221301012951244  41.5428910447731354 0 0 0
47        2    2   -0.0094320000000000   16.4494972245817799 -41.6625516538847478  40.9402508899143029 0 0 0
48        2    2   -0.0094320000000000   16.3350977195619791 -43.1973042912528342  40.0476194568228294 0 0 0
49        2    1    0.0140440000000000   18.6509592312482866 -42.8772798709026404  40.8203718355118497 0 0 0
50        2    1    0.0140440000000000   17.9163981787541573 -44.2659614302699609  41.6352041442919187 0 0 0
51        2    1    0.0140440000000000   17.4544241263789814 -42.8643366328996365  43.6492205310248238 0 0 0
52        2    1    0.0140440000000000   18.1736263782647747 -41.4672191515716904  42.8457346518394573 0 0 0
53        2    1    0.0140440000000000   20.3628418752935225 -42.6862448108298977  42.6879346982930983 0 0 0
54        2    1    0.0140440000000000   19.6479288049867264 -44.0921257739449715  43.4482097627632768 0 0 0
55        2    2   -0.0094320000000000   19.1975655774813241 -42.7515948311714453  45.5302464573192651 0 0 0
56        2    2   -0.0094320000000000   19.9141885670334595 -41.3279186570642381  44.7519779262036650 0 0 0
57        2    3    0.4025730000000000   21.2085821518010498 -43.8163907882240196  45.2094972659627672 0 0 0
58        3    7   -0.6441380000000000  -30.8614592874589739 -15.5936442781826319  19.5462754056282719 0 0 0
59        3    5    0.2691680000000000  -30.2344641503628324 -15.8047267971115559  18.2894313688996064 0 0 0
60        3    6   -0.0368270000000000  -30.7084463887502750 -17.1217714847624300  17.6862157894225369 0 0 0
61        3    4   -0.0280880000000000  -30.3448279267971941 -18.3297247866288586  18.5561893035233112 0 0 0
62        3    6   -0.0368270000000000  -30.8275202852465213 -19.6337541286769621  17.9220120221009722 0 0 0
63        3    5    0.2691680000000000  -30.5001636831787017 -20.8436239174619935  18.7885820092733056 0 0 0
64        3    7   -0.6441380000000000  -30.9569855989310554 -22.0296182632733064  18.1487166299223475 0 0 0
65        3    3    0.4025730000000000  -30.5405201881396096 -14.7402372004524018  19.8854097719316769 0 0 0
66        3    2   -0.0094320000000000  -29.1491172173875128 -15.8065182614676001  18.4319115718631252 0 0 0
67        3    2   -0.0094320000000000  -30.5004938170271949 -14.9735110375972837  17.6286531881993334 0 0 0
68        3    1    0.0140440000000000  -30.2678214089835969 -17.2376197241359002  16.6892641230215588 0 0 0
69        3    1    0.0140440000000000  -31.7981496258283549 -17.0889490016253838  17.5655977750040293 0 0 0
70        3    1    0.0140440000000000  -30.7937153124594865 -18.2223450132163833  19.5507323534991073 0 0 0
71        3    1    0.0140440000000000  -29.2575120831252953 -18.3679826721357919  18.6941998063722110 0 0 0
72        3    1    0.0140440000000000  -30.3739188246576326 -19.7644537841675785  16.9315049103616069 0 0 0
73        3    1    0.0140440000000000  -31.9108568601644365 -19.5925078336732490  17.7524045505863342 0 0 0
74        3    2   -0.0094320000000000  -30.9784562924794535 -20.7732772122789164  19.7701111443773847 0 0 0
75        3    2   -0.0094320000000000  -29.4207385001247452 -20.9364099176021767  18.9376405657768601 0 0 0
76        3    3    0.4025730000000000  -31.9182617044624095 -21.9453821788888348  18.0312052035755563 0 0 0
77        4    7   -0.6441380000000000  -41.8774338479205284  3.5706118319094218   19.6656501893914459 0 0 0
78        4    5    0.2691680000000000  -41.0493201195356789  4.3054769863622999   18.7759668063660676 0 0 0
79        4    6   -0.0368270000000000  -41.5173994247700477  5.7543386446790006   18.7064213825690295 0 0 0
80        4    4   -0.0280880000000000  -42.9466492878517840  5.8836997916283948   18.1690816360950294 0 0 0
81        4    6   -0.0368270000000000  -43.3836856312258377  7.3467937491330559   18.1056736856187506 0 0 0
82        4    5    0.2691680000000000  -44.8140626246607994  7.4923795862137403   17.6009785161417156 0 0 0
83        4    7   -0.6441380000000000  -45.1660710394675817  8.8700472855116601   17.5478904674264626 0 0 0
84        4    3    0.4025730000000000  -41.5350010042924538  2.6603582501227958   19.6879173995758094 0 0 0
85        4    2   -0.0094320000000000  -41.0852594868029470  3.8337303946867261   17.7888268478885969 0 0 0
86        4    2   -0.0094320000000000  -40.0209345712224263  4.2621453964424658   19.1486124340547228 0 0 0
87        4    1    0.0140440000000000  -40.8296235573894108  6.3221817827216134   18.0692382540049294 0 0 0
88        4    1    0.0140440000000000  -41.4770944853630397  6.1924557929369035   19.7111641565971638 0 0 0
89        4    1    0.0140440000000000  -43.6388603055820639  5.3260534307743557   18.8109699613970740 0 0 0
90        4    1    0.0140440000000000  -43.0036079192904168  5.4388712249487456   17.1682571913644040 0 0 0
91        4    1    0.0140440000000000  -42.7097868424169960  7.9159881236983018   17.4531254423407134 0 0 0
92        4    1    0.0140440000000000  -43.3011125830887167  7.8086089307806859   19.0976386625817049 0 0 0
93        4    2   -0.0094320000000000  -45.5233979359245566  6.9785658482796551   18.2566848383657359 0 0 0
94        4    2   -0.0094320000000000  -44.9162603668237495  7.0801509554264204   16.5932039389886619 0 0 0
95        4    3    0.4025730000000000  -45.0852397841623969  9.2262278248567799   18.4487556825711145 0 0 0
96        5    7   -0.6441380000000000  -17.0990212088348699  40.3821894363453922  7.3516121599055619  0 0 0
97        5    5    0.2691680000000000  -16.8761594044814203  41.6790354754255006  7.8862696497834737  0 0 0
98        5    6   -0.0368270000000000  -18.0039320890063905  42.6151271038228927  7.4679442475142723  0 0 0
99        5    4   -0.0280880000000000  -18.0906042406893803  42.7861025426434978  5.9475894145747024  0 0 0
100       5    6   -0.0368270000000000  -19.2254606448104717  43.7339506435214247  5.5611309021992072  0 0 0
101       5    5    0.2691680000000000  -19.3451299379911354  43.8927152524773945  4.0503814681060906  0 0 0
102       5    7   -0.6441380000000000  -20.4040104119807104  44.7928580404840631  3.7450756252153994  0 0 0
103       5    3    0.4025730000000000  -16.3654925026563021  39.8191720342082860  7.6537126503102684  0 0 0
104       5    2   -0.0094320000000000  -15.9085984722912492  42.0466228293136481  7.5299170683970136  0 0 0
105       5    2   -0.0094320000000000  -16.8413528529282566  41.5996458910909794  8.9775097811790197  0 0 0
106       5    1    0.0140440000000000  -17.8526062164654533  43.5916920164892403  7.9421860256704040  0 0 0
107       5    1    0.0140440000000000  -18.9570429002786014  42.2132065630369198  7.8327987747307084  0 0 0
108       5    1    0.0140440000000000  -18.2534497239939810  41.8122307041709433  5.4709331759735687  0 0 0
109       5    1    0.0140440000000000  -17.1389729091152603  43.1772639369431559  5.5679094427879141  0 0 0
110       5    1    0.0140440000000000  -19.0685694516654820  44.7193885497915105  6.0174622618487126  0 0 0
111       5    1    0.0140440000000000  -20.1778955415075316  43.3658581206310174  5.9629539328306445  0 0 0
112       5    2   -0.0094320000000000  -19.5529500288372304  42.9353351221896631  3.5631997586064790  0 0 0
113       5    2   -0.0094320000000000  -18.4235657476027903  44.3015598531601711  3.6266457528466653  0 0 0
114       5    3    0.4025730000000000  -21.2212432082027043  44.4168467020457598  4.1134537386328933  0 0 0
115       6    7   -0.6441380000000000   18.8977633237291727 -19.3608635038258612  33.3948503384348214 0 0 0
116       6    5    0.2691680000000000   17.9594045330246530 -20.0034175829885292  32.5440021148020975 0 0 0
117       6    6   -0.0368270000000000   18.2703376548001515 -19.6789811214636750  31.0875693209127952 0 0 0
118       6    4   -0.0280880000000000   18.1679954993838919 -18.1800601035458840  30.7859315482963467 0 0 0
119       6    6   -0.0368270000000000   18.4788604958698492 -17.8884575393225198  29.3182816715893111 0 0 0
120       6    5    0.2691680000000000   18.4105610451970740 -16.3983809481292866  29.0069976681202526 0 0 0
121       6    7   -0.6441380000000000   18.6935415998736119 -16.1827330383458765  27.6292768911189732 0 0 0
122       6    3    0.4025730000000000   18.6691137342919049 -19.6057471308482967  34.3081241411175029 0 0 0
123       6    2   -0.0094320000000000   16.9520860680179410 -19.6704870327708043  32.8137214898722576 0 0 0
124       6    2   -0.0094320000000000   18.0284083152247128 -21.0832965400870833  32.7095893804894899 0 0 0
125       6    1    0.0140440000000000   17.5800243738251503 -20.2343660893325215  30.4422020424776001 0 0 0
126       6    1    0.0140440000000000   19.2873353660682589 -20.0172665278287063  30.8544217178458275 0 0 0
127       6    1    0.0140440000000000   18.8657255952200984 -17.6226185600303396  31.4219958673140169 0 0 0
128       6    1    0.0140440000000000   17.1580263962136002 -17.8260898485044308  31.0255850018230710 0 0 0
129       6    1    0.0140440000000000   17.7779553047478913 -18.4267116251325085  28.6679314001454237 0 0 0
130       6    1    0.0140440000000000   19.4764893941443091 -18.2664901080210598  29.0615443659033801 0 0 0
131       6    2   -0.0094320000000000   19.1335802078296560 -15.8323323592001266  29.6019297714206040 0 0 0
132       6    2   -0.0094320000000000   17.4118192635981224 -16.0023539498053289  29.2111150147301650 0 0 0
133       6    3    0.4025730000000000   19.5870293222790863 -16.5254038841563755  27.4583594091511927 0 0 0
134       7    7   -0.6441380000000000   32.7643017867493569  19.4658111884049809  28.8080593805492455 0 0 0
135       7    5    0.2691680000000000   31.4313158785962372  19.3025333700855306  28.3456476731822775 0 0 0
136       7    6   -0.0368270000000000   30.4704122578261867  19.2718659482305092  29.5283812220967405 0 0 0
137       7    4   -0.0280880000000000   30.7435150437582649  18.0986149098437892  30.4755455952868353 0 0 0
138       7    6   -0.0368270000000000   29.7608721164332586  18.0920569877375605  31.6460305943943965 0 0 0
139       7    5    0.2691680000000000   30.0365312610826081  16.9483408020730870  32.6144396587986236 0 0 0
140       7    7   -0.6441380000000000   29.0885699802496802  16.9789691829887239  33.6751601059589873 0 0 0
141       7    3    0.4025730000000000   33.3374504036863044  19.4927621105980720  28.0225073613320710 0 0 0
142       7    2   -0.0094320000000000   31.3694927499030847  18.3761402941348884  27.7657722106135552 0 0 0
143       7    2   -0.0094320000000000   31.1896452973131488  20.1445088654553004  27.6891479992759422 0 0 0
144       7    1    0.0140440000000000   29.4424388303727689  19.2125919510817944  29.1525607354123579 0 0 0
145       7    1    0.0140440000000000   30.5645630233299315  20.2088078609768864  30.0908353546215253 0 0 0
146       7    1    0.0140440000000000   31.7675638147881543  18.1613798460306342  30.8622377937310723 0 0 0
147       7    1    0.0140440000000000   30.6635614487736738  17.1548921358260777  29.9225889450425662 0 0 0
148       7    1    0.0140440000000000   28.7308936877974048  18.0129952974096526  31.2761188359069067 0 0 0
149       7    1    0.0140440000000000   29.8125061253706569  19.0451174078302934  32.1874138695089087 0 0 0
150       7    2   -0.0094320000000000   31.0399780430398167  17.0218202466743271  33.0443317953873361 0 0 0
151       7    2   -0.0094320000000000   29.9475023782207721  15.9811987203068337  32.1117504182202964 0 0 0
152       7    3    0.4025730000000000   29.1823150282738126  17.8356503676501958  34.1248996062455205 0 0 0
153       8    7   -0.6441380000000000   43.1962653996298727 -27.7290178730103527  43.7126996045498544 0 0 0
154       8    5    0.2691680000000000   44.2503916586962731 -28.6752338823220043  43.8167609233431818 0 0 0
155       8    6   -0.0368270000000000   44.0167745394136602 -29.8236415834551210  42.8422263162325478 0 0 0
156       8    4   -0.0280880000000000   42.7220089167760904 -30.5885164379300534  43.1367970548130586 0 0 0
157       8    6   -0.0368270000000000   42.5198712409221145 -31.7359064121422207  42.1477056186061745 0 0 0
158       8    5    0.2691680000000000   41.2213651604056892 -32.4896663337864027  42.4077416406969760 0 0 0
159       8    7   -0.6441380000000000   41.0881578249428401 -33.5528250978736011  41.4714479886713576 0 0 0
160       8    3    0.4025730000000000   43.3935858332849307 -27.0120414187571924  44.3398575389720548 0 0 0
161       8    2   -0.0094320000000000   44.2978563448870446 -29.0392751432972140  44.8480236669601453 0 0 0
162       8    2   -0.0094320000000000   45.1914791775626909 -28.1689110743170836  43.5794621192419811 0 0 0
163       8    1    0.0140440000000000   44.8703561152055457 -30.5098534671906627  42.8868979693109580 0 0 0
164       8    1    0.0140440000000000   43.9659212822145093 -29.4232777631525302  41.8223234172637603 0 0 0
165       8    1    0.0140440000000000   41.8648688623135214 -29.9070394937251791  43.0816039342898875 0 0 0
166       8    1    0.0140440000000000   42.7550002342319999 -30.9850807378254594  44.1587631196219590 0 0 0
167       8    1    0.0140440000000000   43.3624574785197652 -32.4366238849865738  42.2023360026580008 0 0 0
168       8    1    0.0140440000000000   42.5157685677606025 -31.3517466905431306  41.1198483511931130 0 0 0
169       8    2   -0.0094320000000000   40.3518112048978494 -31.8325590451290950  42.3118362093903286 0 0 0
170       8    2   -0.0094320000000000   41.2160171932250918 -32.9231782054455522  43.4117462608445237 0 0 0
171       8    3    0.4025730000000000   41.0808437829013471 -33.1590346106759029  40.5827230811315616 0 0 0
172       9    7   -0.6441380000000000   28.7826418268748405 -15.9447661725630869  18.2712928454473804 0 0 0
173       9    5    0.2691680000000000   28.3365621642755947 -17.2246088243495912  17.8466148666405751 0 0 0
174       9    6   -0.0368270000000000   29.1918961925692919 -18.3122298825851217  18.4858480327275139 0 0 0
175       9    4   -0.0280880000000000   30.6659770690036844 -18.2139786291717058  18.0788397508301166 0 0 0
176       9    6   -0.0368270000000000   31.4948546173410904 -19.3204270040328296  18.7302990862681682 0 0 0
177       9    5    0.2691680000000000   32.9694868783847781 -19.2203471148145155  18.3597123840469152 0 0 0
178       9    7   -0.6441380000000000   33.6924956813165934 -20.2779754545500985  18.9788869317887077 0 0 0
179       9    3    0.4025730000000000   28.2026789769811543 -15.2865653738452760  17.8508972394874590 0 0 0
180       9    2   -0.0094320000000000   28.3915382176539950 -17.2734473194787270  16.7544270542893976 0 0 0
181       9    2   -0.0094320000000000   27.2918180621719486 -17.3430403412303917  18.1512506548023644 0 0 0
182       9    1    0.0140440000000000   28.7940714013459882 -19.2932882301798578  18.2016935560729607 0 0 0
183       9    1    0.0140440000000000   29.1207818686130580 -18.2287688545963249  19.5772032340415905 0 0 0
184       9    1    0.0140440000000000   31.0701076442880861 -17.2378347449436333  18.3720423674699092 0 0 0
185       9    1    0.0140440000000000   30.7504346601289917 -18.2848040476858067  16.9876857818625773 0 0 0
186       9    1    0.0140440000000000   31.1129240461624548 -20.3052585339769252  18.4333530982044671 0 0 0
187       9    1    0.0140440000000000   31.3921510476056085 -19.2758700851499363  19.8218817645583911 0 0 0
188       9    2   -0.0094320000000000   33.3998648155161248 -18.2688776229397938  18.6861975435292749 0 0 0
189       9    2   -0.0094320000000000   33.1069423968260637 -19.3071387106881716  17.2782505861845301 0 0 0
190       9    3    0.4025730000000000   33.5762015885058176 -20.1868305465574593  19.9396807150868405 0 0 0
191       10   7   -0.6441380000000000   27.6113255121018994  18.6049441395093496  18.7442161437370061 0 0 0
192       10   5    0.2691680000000000   28.1747955547282878  17.5653395323982409  17.9574128415477112 0 0 0
193       10   6   -0.0368270000000000   29.6256647990740554  17.3338963018668224  18.3630572347700891 0 0 0
194       10   4   -0.0280880000000000   30.5027311876750069  18.5694975264673516  18.1344360538788081 0 0 0
195       10   6   -0.0368270000000000   31.9508211208164852  18.3037399441538682  18.5444039978418012 0 0 0
196       10   5    0.2691680000000000   32.8317837776730386  19.5319502133081748  18.3512845390393515 0 0 0
197       10   7   -0.6441380000000000   34.1684039823508243  19.2283710010484086  18.7333612918401862 0 0 0
198       10   3    0.4025730000000000   26.6864636664704804  18.7079084997818725  18.4607614362282213 0 0 0
199       10   2   -0.0094320000000000   28.1022410076821885  17.8428457416309705  16.9010000793944819 0 0 0
200       10   2   -0.0094320000000000   27.5905269024738686  16.6543892655600345  18.1220912549485007 0 0 0
201       10   1    0.0140440000000000   30.0251020573344825  16.4861472905608579  17.7945017818517641 0 0 0
202       10   1    0.0140440000000000   29.6621655921471614  17.0670236717726702  19.4263191296537769 0 0 0
203       10   1    0.0140440000000000   30.1123276226688859  19.4164608645897232  18.7109638843493826 0 0 0
204       10   1    0.0140440000000000   30.4662134528426058  18.8541203035312606  17.0759358704026134 0 0 0
205       10   1    0.0140440000000000   32.3620842468671199  17.4682871094148631  17.9640401245023149 0 0 0
206       10   1    0.0140440000000000   31.9939401083703885  17.9889149606046779  19.5946954185653937 0 0 0
207       10   2   -0.0094320000000000   32.4814428559367911  20.3740198463180704  18.9556783624852656 0 0 0
208       10   2   -0.0094320000000000   32.8440964122016013  19.8425244544524695  17.3027720399871860 0 0 0
209       10   3    0.4025730000000000   34.1512992961500075  18.9656768263694389  19.6691260083152812 0 0 0
210       11   7   -0.6441380000000000  -32.2498167424770017 -44.3402077481448060  32.6291114036649219 0 0 0
211       11   5    0.2691680000000000  -31.1658048506667917 -44.9576432038802665  31.9501214620495801 0 0 0
212       11   6   -0.0368270000000000  -30.1986949674736920 -43.8956998485471885  31.4401119613594702 0 0 0
213       11   4   -0.0280880000000000  -30.8512714131091670 -42.9439551526049570  30.4318711682214591 0 0 0
214       11   6   -0.0368270000000000  -29.8555394124411535 -41.8962845830263788  29.9353135959454733 0 0 0
215       11   5    0.2691680000000000  -30.4957511594277193 -40.9226255481031842  28.9534746090780466 0 0 0
216       11   7   -0.6441380000000000  -29.5261303921237044 -39.9792572108218565  28.5123529676594849 0 0 0
217       11   3    0.4025730000000000  -32.8308291201462481 -45.0530014327834820  32.9463927367658798 0 0 0
218       11   2   -0.0094320000000000  -31.5616724706191327 -45.5569858859813905  31.1240712460305424 0 0 0
219       11   2   -0.0094320000000000  -30.6541262061564979 -45.6229163970489395  32.6529128747057555 0 0 0
220       11   1    0.0140440000000000  -29.3362203591458908 -44.3897648269233969  30.9780284628097675 0 0 0
221       11   1    0.0140440000000000  -29.8291169466457475 -43.3097032283785737  32.2904643667608084 0 0 0
222       11   1    0.0140440000000000  -31.7076634136062410 -42.4394902874453805  30.8947470914494176 0 0 0
223       11   1    0.0140440000000000  -31.2355760197105603 -43.5189850144649384  29.5807443058124271 0 0 0
224       11   1    0.0140440000000000  -28.9991116108816342 -42.3850639927126380  29.4540993684098922 0 0 0
225       11   1    0.0140440000000000  -29.4429207932824113 -41.3358840235099407  30.7837139576952765 0 0 0
226       11   2   -0.0094320000000000  -31.3248148853176005 -40.3774747710694228  29.4145341397387483 0 0 0
227       11   2   -0.0094320000000000  -30.8769424381332485 -41.4492084824126934  28.0740486353697207 0 0 0
228       11   3    0.4025730000000000  -29.2014259542008219 -39.5066491799320048  29.2973148020384677 0 0 0
229       12   7   -0.6441380000000000  -8.4095007710954874   4.3859998013006471  -19.2936429970765921 0 0 0
230       12   5    0.2691680000000000  -7.3051851292533270   3.8394936501208328  -18.5871349261351639 0 0 0
231       12   6   -0.0368270000000000  -6.6132415876185835   4.9306950657188642  -17.7786619750187747 0 0 0
232       12   4   -0.0280880000000000  -6.0476700678742175   6.0467056266053110  -18.6634629496135886 0 0 0
233       12   6   -0.0368270000000000  -5.3557075263116865   7.1207433202694812  -17.8248354186065754 0 0 0
234       12   5    0.2691680000000000  -4.8126505266392705   8.2539690960295520  -18.6866818258392051 0 0 0
235       12   7   -0.6441380000000000  -4.1680976953992870   9.2175392982048869  -17.8615874870389213 0 0 0
236       12   3    0.4025730000000000  -8.8257007169124737   3.6548925498692912  -19.7820869101376502 0 0 0
237       12   2   -0.0094320000000000  -6.6150671570426187   3.3864535811147576  -19.3060046381183241 0 0 0
238       12   2   -0.0094320000000000  -7.6781734176491350   3.0576929857397315  -17.9178168519784649 0 0 0
239       12   1    0.0140440000000000  -5.8061746800202378   4.4812964012811118  -17.1886046391935032 0 0 0
240       12   1    0.0140440000000000  -7.3337504982087500   5.3678290517635592  -17.0766221230838369 0 0 0
241       12   1    0.0140440000000000  -6.8545398824264785   6.5060389538790657  -19.2466611799092640 0 0 0
242       12   1    0.0140440000000000  -5.3332891107030242   5.6210535782011952  -19.3784779776518512 0 0 0
243       12   1    0.0140440000000000  -4.5339417169660647   6.6796734475187236  -17.2468221442415732 0 0 0
244       12   1    0.0140440000000000  -6.0552479822315597   7.5313339035053195  -17.0858194449703689 0 0 0
245       12   2   -0.0094320000000000  -5.6129181470801752   8.7527834010501468  -19.2415403185025724 0 0 0
246       12   2   -0.0094320000000000  -4.0772352356027577   7.8803379415321801  -19.4047003012273009 0 0 0
247       12   3    0.4025730000000000  -4.8305939820779820   9.5541541774083392  -17.2348933849956651 0 0 0
248       13   7   -0.6441380000000000  -44.4504459780832732 -40.7505856720783015 -44.3085946092416663 0 0 0
249       13   5    0.2691680000000000  -43.0711727023081608 -40.9511203451219075 -44.5819565305838807 0 0 0
250       13   6   -0.0368270000000000  -42.6532448444447567 -42.3515435084662428 -44.1491908017069505 0 0 0
251       13   4   -0.0280880000000000  -42.8303530986214227 -42.5774686747203504 -42.6439287095264845 0 0 0
252       13   6   -0.0368270000000000  -42.3973923714379310 -43.9867201052948218 -42.2411624296064758 0 0 0
253       13   5    0.2691680000000000  -42.5944813718859123 -44.2389349894543997 -40.7513858116161174 0 0 0
254       13   7   -0.6441380000000000  -42.1647647102211351 -45.5560413147057943 -40.4269307710166501 0 0 0
255       13   3    0.4025730000000000  -44.6738152990583615 -39.8535704087122227 -44.6115590096840080 0 0 0
256       13   2   -0.0094320000000000  -42.4915669119582731 -40.1877251805744038 -44.0532158256647577 0 0 0
257       13   2   -0.0094320000000000  -42.9128061961132374 -40.8293978174580303 -45.6582570938443126 0 0 0
258       13   1    0.0140440000000000  -41.6054446064019530 -42.5139645314751604 -44.4270718642898288 0 0 0
259       13   1    0.0140440000000000  -43.2582311274951365 -43.0892334860542903 -44.6903786249134782 0 0 0
260       13   1    0.0140440000000000  -43.8798613109182369 -42.4269149949703106 -42.3646219232945000 0 0 0
261       13   1    0.0140440000000000  -42.2387909407597064 -41.8383592869297871 -42.0902701189981201 0 0 0
262       13   1    0.0140440000000000  -41.3432134505637521 -44.1479468397945283 -42.4993363366286587 0 0 0
263       13   1    0.0140440000000000  -42.9634017788471283 -44.7331545099898875 -42.8126124414288682 0 0 0
264       13   2   -0.0094320000000000  -43.6453515942359829 -44.1368050653437365 -40.4644133800498409 0 0 0
265       13   2   -0.0094320000000000  -42.0051549943463485 -43.5365650758976628 -40.1552672444112346 0 0 0
266       13   3    0.4025730000000000  -42.7013075300906948 -46.1747490107496006 -40.9506472912855983 0 0 0
267       14   7   -0.6441380000000000   28.4910450596656091 -7.3093007933810039  -28.7878054875555485 0 0 0
268       14   5    0.2691680000000000   28.8168685714107262 -7.9010190541376204  -30.0372230332468462 0 0 0
269       14   6   -0.0368270000000000   30.2148237740511547 -7.4721292950762681  -30.4672343504035936 0 0 0
270       14   4   -0.0280880000000000   30.3279919175899835 -5.9569944108121131  -30.6666904467601249 0 0 0
271       14   6   -0.0368270000000000   31.7378588171822891 -5.5600724203041789  -31.1030315071535490 0 0 0