
                                 *****************
                                 * O   R   C   A *
                                 *****************

           --- An Ab Initio, DFT and Semiempirical electronic structure package ---

                  #######################################################
                  #                        -***-                        #
                  #          Department of theory and spectroscopy      #
                  #               Directorship: Frank Neese             #
                  #        Max Planck Institute fuer Kohlenforschung    #
                  #                Kaiser Wilhelm Platz 1               #
                  #                 D-45470 Muelheim/Ruhr               #
                  #                      Germany                        #
                  #                                                     #
                  #                  All rights reserved                #
                  #                        -***-                        #
                  #######################################################


                         Program Version 4.1.2  - RELEASE  -


 With contributions from (in alphabetic order):
   Daniel Aravena         : Magnetic Properties
   Michael Atanasov       : Ab Initio Ligand Field Theory
   Alexander A. Auer      : GIAO ZORA
   Ute Becker             : Parallelization
   Giovanni Bistoni       : ED, Open-shell LED
   Martin Brehm           : Molecular dynamics
   Dmytro Bykov           : SCF Hessian
   Vijay G. Chilkuri      : MRCI spin determinant printing
   Dipayan Datta          : RHF DLPNO-CCSD density
   Achintya Kumar Dutta   : EOM-CC, STEOM-CC
   Dmitry Ganyushin       : Spin-Orbit,Spin-Spin,Magnetic field MRCI
   Miquel Garcia          : C-PCM Hessian
   Yang Guo               : DLPNO-NEVPT2, CIM, IAO-localization
   Andreas Hansen         : Spin unrestricted coupled pair/coupled cluster methods
   Benjamin Helmich-Paris : CASSCF linear response (MC-RPA)
   Lee Huntington         : MR-EOM, pCC
   Robert Izsak           : Overlap fitted RIJCOSX, COSX-SCS-MP3, EOM
   Christian Kollmar      : KDIIS, OOCD, Brueckner-CCSD(T), CCSD density
   Simone Kossmann        : Meta GGA functionals, TD-DFT gradient, OOMP2, MP2 Hessian
   Martin Krupicka        : AUTO-CI
   Lucas Lang             : DCDCAS
   Dagmar Lenk            : GEPOL surface, SMD
   Dimitrios Liakos       : Extrapolation schemes; parallel MDCI
   Dimitrios Manganas     : ROCIS; embedding schemes
   Dimitrios Pantazis     : SARC Basis sets
   Taras Petrenko         : DFT Hessian,TD-DFT gradient, ASA, ECA, R-Raman, ABS, FL, XAS/XES, NRVS
   Peter Pinski           : DLPNO-MP2, DLPNO-MP2 Gradient
   Christoph Reimann      : Effective Core Potentials
   Marius Retegan         : Local ZFS, SOC
   Christoph Riplinger    : Optimizer, TS searches, QM/MM, DLPNO-CCSD(T), (RO)-DLPNO pert. Triples
   Tobias Risthaus        : Range-separated hybrids, TD-DFT gradient, RPA, STAB
   Michael Roemelt        : Restricted open shell CIS
   Masaaki Saitow         : Open-shell DLPNO
   Barbara Sandhoefer     : DKH picture change effects
   Avijit Sen             : IP-ROCIS
   Kantharuban Sivalingam : CASSCF convergence, NEVPT2, FIC-MRCI
   Bernardo de Souza      : ESD, SOC TD-DFT
   Georgi Stoychev        : AutoAux, RI-MP2 NMR
   Willem Van den Heuvel  : Paramagnetic NMR
   Boris Wezisla          : Elementary symmetry handling
   Frank Wennmohs         : Technical directorship


 We gratefully acknowledge several colleagues who have allowed us to
 interface, adapt or use parts of their codes:
   Stefan Grimme, W. Hujo, H. Kruse,             : VdW corrections, initial TS optimization,
                  C. Bannwarth                     DFT functionals, gCP, sTDA/sTD-DF
   Ed Valeev                                     : LibInt (2-el integral package), F12 methods
   Garnet Chan, S. Sharma, J. Yang, R. Olivares  : DMRG
   Ulf Ekstrom                                   : XCFun DFT Library
   Mihaly Kallay                                 : mrcc  (arbitrary order and MRCC methods)
   Andreas Klamt, Michael Diedenhofen            : otool_cosmo (COSMO solvation model)
   Jiri Pittner, Ondrej Demel                    : Mk-CCSD
   Frank Weinhold                                : gennbo (NPA and NBO analysis)
   Christopher J. Cramer and Donald G. Truhlar   : smd solvation model
   Lars Goerigk                                  : TD-DFT with DH, B97 family of functionals
   V. Asgeirsson, H. Jonsson                     : NEB implementation
   FAccTs GmbH                                   : IRC, NEB, NEB-TS, Multilevel


 Your calculation uses the libint2 library for the computation of 2-el integrals
 For citations please refer to: http://libint.valeyev.net

 This ORCA versions uses:
   CBLAS   interface :  Fast vector & matrix operations
   LAPACKE interface :  Fast linear algebra routines
   SCALAPACK package :  Parallel linear algebra routines


Your calculation utilizes the atom-pairwise dispersion correction
with the zero-damping scheme (D30)
Cite in your paper:
S.Grimme, J.Antony, S.Ehrlich and H.Krieg, J.Chem.Phys., 132, (2010), 154104 
   

XCFun DFT library Copyright 2009-2010 Ulf Ekstrom and contributors.
See http://admol.org/xcfun for more information. This is free soft-
ware; see the source code for copying conditions. There is ABSOLUTELY
NO WARRANTY; not even for MERCHANTABILITY or FITNESS FOR A PARTICULAR
PURPOSE. For details see the documentation. Scientific users of this 
library should cite U. Ekstrom, L. Visscher, R. Bast, A. J. Thorvald-
sen and K. Ruud; J.Chem.Theor.Comp. 2010, DOI: 10.1021/ct100117s
XCFun Version 0.99 
----- Orbital basis set information -----
Your calculation utilizes the basis: def2-TZVP
   F. Weigend and R. Ahlrichs, Phys. Chem. Chem. Phys. 7, 3297 (2005).

================================================================================
                                        WARNINGS
                       Please study these warnings very carefully!
================================================================================


INFO   : the flag for use of LIBINT has been found!

================================================================================
                                       INPUT FILE
================================================================================
NAME = 43.in
|  1> #Run DFT-D3 single point of the dimer
|  2> ! wB97X-D3 def2-TZVP TIGHTSCF  CHELPG PAL8
|  3> 
|  4> %base "43_charges"
|  5> 
|  6> %scf
|  7> MaxIter 1000
|  8> end
|  9> %output
| 10>   Print[ P_Mayer ] 1
| 11>   Print[ P_NatPop ] 1
| 12>   Print[ P_Hirshfeld ] 1
| 13>   Print[ P_Mulliken ] 1
| 14>   Print [ P_Loewdin ] 1
| 15> end
| 16> 
| 17> * xyz 0 1
| 18>   C                      10.538769            -11.833647           1.276454            
| 19>   O                      9.190175             -11.804958           1.401057            
| 20>   H                      8.884010             -11.609698           2.284324            
| 21>   H                      10.999319            -12.680412           0.669984            
| 22>   H                      11.005738            -10.876432           0.896081            
| 23>   H                      11.001721            -11.967255           2.217853            
| 24> *
| 25> 
| 26>                          ****END OF INPUT****
================================================================================

                       ****************************
                       * Single Point Calculation *
                       ****************************

---------------------------------
CARTESIAN COORDINATES (ANGSTROEM)
---------------------------------
  C     10.538769  -11.833647    1.276454
  O      9.190175  -11.804958    1.401057
  H      8.884010  -11.609698    2.284324
  H     10.999319  -12.680412    0.669984
  H     11.005738  -10.876432    0.896081
  H     11.001721  -11.967255    2.217853

----------------------------
CARTESIAN COORDINATES (A.U.)
----------------------------
  NO LB      ZA    FRAG     MASS         X           Y           Z
   0 C     6.0000    0    12.011   19.915387  -22.362352    2.412148
   1 O     8.0000    0    15.999   17.366914  -22.308138    2.647614
   2 H     1.0000    0     1.008   16.788346  -21.939150    4.316747
   3 H     1.0000    0     1.008   20.785701  -23.962506    1.266086
   4 H     1.0000    0     1.008   20.797831  -20.553478    1.693348
   5 H     1.0000    0     1.008   20.790240  -22.614835    4.191135

--------------------------------
INTERNAL COORDINATES (ANGSTROEM)
--------------------------------
 C      0   0   0     0.000000000000     0.00000000     0.00000000
 O      1   0   0     1.354641924335     0.00000000     0.00000000
 H      2   1   0     0.954999512101   114.11464812     0.00000000
 H      1   2   3     1.138825328409   117.86135326   136.28944649
 H      1   2   3     1.130930688555   115.09213500   263.25170313
 H      1   2   3     1.057547979606   110.89160024    19.69703878

---------------------------
INTERNAL COORDINATES (A.U.)
---------------------------
 C      0   0   0     0.000000000000     0.00000000     0.00000000
 O      1   0   0     2.559902246521     0.00000000     0.00000000
 H      2   1   0     1.804687535900   114.11464812     0.00000000
 H      1   2   3     2.152067985065   117.86135326   136.28944649
 H      1   2   3     2.137149277816   115.09213500   263.25170313
 H      1   2   3     1.998476054937   110.89160024    19.69703878

---------------------
BASIS SET INFORMATION
---------------------
There are 3 groups of distinct atoms

 Group   1 Type C   : 11s6p2d1f contracted to 5s3p2d1f pattern {62111/411/11/1}
 Group   2 Type O   : 11s6p2d1f contracted to 5s3p2d1f pattern {62111/411/11/1}
 Group   3 Type H   : 5s1p contracted to 3s1p pattern {311/1}

Atom   0C    basis set group =>   1
Atom   1O    basis set group =>   2
Atom   2H    basis set group =>   3
Atom   3H    basis set group =>   3
Atom   4H    basis set group =>   3
Atom   5H    basis set group =>   3


           ************************************************************
           *        Program running with 8 parallel MPI-processes     *
           *              working on a common directory               *
           ************************************************************
------------------------------------------------------------------------------
                           ORCA GTO INTEGRAL CALCULATION
------------------------------------------------------------------------------

                         BASIS SET STATISTICS AND STARTUP INFO

 # of primitive gaussian shells          ...   64
 # of primitive gaussian functions       ...  124
 # of contracted shells                  ...   38
 # of contracted basis functions         ...   86
 Highest angular momentum                ...    3
 Maximum contraction depth               ...    6
 Integral package used                   ... LIBINT
 Integral threshhold            Thresh   ...  2.500e-11
 Primitive cut-off              TCut     ...  2.500e-12


------------------------------ INTEGRAL EVALUATION ----------------------------


 * One electron integrals 
 Pre-screening matrix                    ... done
 Shell pair data                         ... done (   0.000 sec)



           ************************************************************
           *        Program running with 8 parallel MPI-processes     *
           *              working on a common directory               *
           ************************************************************
-------------------------------------------------------------------------------
                                 ORCA SCF
-------------------------------------------------------------------------------

------------
SCF SETTINGS
------------
Hamiltonian:
 Density Functional     Method          .... DFT(GTOs)
 Exchange Functional    Exchange        .... WB97X-D3
 Correlation Functional Correlation     .... WB97X-D3
 Gradients option       PostSCFGGA      .... off
 Hybrid DFT is turned on
   Fraction HF Exchange ScalHFX         ....  0.195728
   Scaling of DF-GGA-X  ScalDFX         ....  0.000000
   Scaling of DF-GGA-C  ScalDFC         ....  1.000000
   Scaling of DF-LDA-C  ScalLDAC        ....  1.000000
   Perturbative correction              ....  0.000000
   Density functional embedding theory  .... OFF
 Long-range corrected/Screened/Range-Separated Hybrid DFT is turned on
   Amount of maximum screened exact exchange              ....  0.804272
   Range separation parameter mu (erf(mu*r12)/r12)        ....  0.250000


General Settings:
 Integral files         IntName         .... 43_charges
 Hartree-Fock type      HFTyp           .... RHF
 Total Charge           Charge          ....    0
 Multiplicity           Mult            ....    1
 Number of Electrons    NEL             ....   18
 Basis Dimension        Dim             ....   86
 Nuclear Repulsion      ENuc            ....     41.0687758174 Eh

Convergence Acceleration:
 DIIS                   CNVDIIS         .... on
   Start iteration      DIISMaxIt       ....    12
   Startup error        DIISStart       ....  0.200000
   # of expansion vecs  DIISMaxEq       ....     5
   Bias factor          DIISBfac        ....   1.050
   Max. coefficient     DIISMaxC        ....  10.000
 Newton-Raphson         CNVNR           .... off
 SOSCF                  CNVSOSCF        .... on
   Start iteration      SOSCFMaxIt      ....   150
   Startup grad/error   SOSCFStart      ....  0.003300
 Level Shifting         CNVShift        .... on
   Level shift para.    LevelShift      ....    0.2500
   Turn off err/grad.   ShiftErr        ....    0.0010
 Zerner damping         CNVZerner       .... off
 Static damping         CNVDamp         .... on
   Fraction old density DampFac         ....    0.7000
   Max. Damping (<1)    DampMax         ....    0.9800
   Min. Damping (>=0)   DampMin         ....    0.0000
   Turn off err/grad.   DampErr         ....    0.1000
 Fernandez-Rico         CNVRico         .... off

SCF Procedure:
 Maximum # iterations   MaxIter         ....  1000
 SCF integral mode      SCFMode         .... Direct
   Integral package                     .... LIBINT
 Reset frequency        DirectResetFreq ....    20
 Integral Threshold     Thresh          ....  2.500e-11 Eh
 Primitive CutOff       TCut            ....  2.500e-12 Eh

Convergence Tolerance:
 Convergence Check Mode ConvCheckMode   .... Total+1el-Energy
 Convergence forced     ConvForced      .... 0
 Energy Change          TolE            ....  1.000e-08 Eh
 1-El. energy change                    ....  1.000e-05 Eh
 Orbital Gradient       TolG            ....  1.000e-05
 Orbital Rotation angle TolX            ....  1.000e-05
 DIIS Error             TolErr          ....  5.000e-07


Diagonalization of the overlap matrix:
Smallest eigenvalue                        ... 1.702e-03
Time for diagonalization                   ...    0.011 sec
Threshold for overlap eigenvalues          ... 1.000e-08
Number of eigenvalues below threshold      ... 0
Time for construction of square roots      ...    0.015 sec
Total time needed                          ...    0.026 sec

-------------------
DFT GRID GENERATION
-------------------

General Integration Accuracy     IntAcc      ...  4.340
Radial Grid Type                 RadialGrid  ... Gauss-Chebyshev
Angular Grid (max. acc.)         AngularGrid ... Lebedev-110
Angular grid pruning method      GridPruning ... 3 (G Style)
Weight generation scheme         WeightScheme... Becke
Basis function cutoff            BFCut       ...    1.0000e-11
Integration weight cutoff        WCut        ...    1.0000e-14
Grids for H and He will be reduced by one unit

# of grid points (after initial pruning)     ...   6548 (   0.0 sec)
# of grid points (after weights+screening)   ...   6364 (   0.0 sec)
nearest neighbour list constructed           ...    0.0 sec
Grid point re-assignment to atoms done       ...    0.0 sec
Grid point division into batches done        ...    0.0 sec
Reduced shell lists constructed in    0.0 sec

Total number of grid points                  ...     6364
Total number of batches                      ...      102
Average number of points per batch           ...       62
Average number of grid points per atom       ...     1061
Average number of shells per batch           ...    31.93 (84.02%)
Average number of basis functions per batch  ...    73.64 (85.63%)
Average number of large shells per batch     ...    30.64 (95.97%)
Average number of large basis fcns per batch ...    70.64 (95.93%)
Maximum spatial batch extension              ...  15.15, 25.60, 13.63 au
Average spatial batch extension              ...   0.41,  0.55,  0.37 au

Time for grid setup =    0.026 sec

------------------------------
INITIAL GUESS: MODEL POTENTIAL
------------------------------
Loading Hartree-Fock densities                     ... done
Calculating cut-offs                               ... done
Setting up the integral package                    ... done
Initializing the effective Hamiltonian             ... done
Starting the Coulomb interaction                   ... done (   0.0 sec)
Reading the grid                                   ... done
Mapping shells                                     ... done
Starting the XC term evaluation                    ... done (   0.0 sec)
  promolecular density results
     # of electrons  =     17.994937481
     EX              =    -14.442604954
     EC              =     -0.576879357
     EX+EC           =    -15.019484311
Transforming the Hamiltonian                       ... done (   0.0 sec)
Diagonalizing the Hamiltonian                      ... done (   0.0 sec)
Back transforming the eigenvectors                 ... done (   0.0 sec)
Now organizing SCF variables                       ... done
                      ------------------
                      INITIAL GUESS DONE (   0.1 sec)
                      ------------------
--------------
SCF ITERATIONS
--------------
ITER       Energy         Delta-E        Max-DP      RMS-DP      [F,P]     Damp
               ***  Starting incremental Fock matrix formation  ***
  0   -115.6373963877   0.000000000000 0.03846984  0.00151880  0.2590706 0.7000
  1   -115.6759160380  -0.038519650306 0.02261402  0.00108309  0.1309241 0.7000
                               ***Turning on DIIS***
  2   -115.6936092337  -0.017693195723 0.03396988  0.00195956  0.0523171 0.0000
  3   -115.7222248095  -0.028615575812 0.01848664  0.00070646  0.0624485 0.0000
  4   -115.7270182788  -0.004793469312 0.00384907  0.00013260  0.0059347 0.0000
                      *** Initiating the SOSCF procedure ***
                           *** Shutting down DIIS ***
                      *** Re-Reading the Fockian *** 
                      *** Removing any level shift *** 
ITER      Energy       Delta-E        Grad      Rot      Max-DP    RMS-DP
  5   -115.72710439  -0.0000861120  0.000453  0.000453  0.000759  0.000045
               *** Restarting incremental Fock matrix formation ***
  6   -115.72711232  -0.0000079282  0.000136  0.000171  0.000397  0.000027
  7   -115.72711302  -0.0000007044  0.000058  0.000117  0.000201  0.000013
  8   -115.72711307  -0.0000000486  0.000039  0.000028  0.000044  0.000002
  9   -115.72711310  -0.0000000237  0.000008  0.000008  0.000012  0.000001
 10   -115.72711310  -0.0000000005  0.000003  0.000003  0.000004  0.000000
                 **** Energy Check signals convergence ****
              ***Rediagonalizing the Fockian in SOSCF/NRSCF***

               *****************************************************
               *                     SUCCESS                       *
               *           SCF CONVERGED AFTER  11 CYCLES          *
               *****************************************************

Setting up the final grid:

General Integration Accuracy     IntAcc      ...  4.670
Radial Grid Type                 RadialGrid  ... Gauss-Chebyshev
Angular Grid (max. acc.)         AngularGrid ... Lebedev-302
Angular grid pruning method      GridPruning ... 3 (G Style)
Weight generation scheme         WeightScheme... Becke
Basis function cutoff            BFCut       ...    1.0000e-11
Integration weight cutoff        WCut        ...    1.0000e-14
Grids for H and He will be reduced by one unit

# of grid points (after initial pruning)     ...  26000 (   0.0 sec)
# of grid points (after weights+screening)   ...  25152 (   0.2 sec)
nearest neighbour list constructed           ...    0.0 sec
Grid point re-assignment to atoms done       ...    0.0 sec
Grid point division into batches done        ...    0.2 sec
Reduced shell lists constructed in    0.2 sec

Total number of grid points                  ...    25152
Total number of batches                      ...      396
Average number of points per batch           ...       63
Average number of grid points per atom       ...     4192
Average number of shells per batch           ...    31.86 (83.85%)
Average number of basis functions per batch  ...    72.96 (84.84%)
Average number of large shells per batch     ...    30.16 (94.65%)
Average number of large basis fcns per batch ...    69.80 (95.67%)
Maximum spatial batch extension              ...  15.15, 16.88, 13.59 au
Average spatial batch extension              ...   0.29,  0.32,  0.27 au

Final grid set up in    0.8 sec
Final integration                            ... done (   0.4 sec)
Change in XC energy                          ...     0.000022688
Integrated number of electrons               ...    17.999991983
Previous integrated no of electrons          ...    17.999057791

----------------
TOTAL SCF ENERGY
----------------

Total Energy       :         -115.72709041 Eh           -3149.09423 eV

Components:
Nuclear Repulsion  :           41.06877582 Eh            1117.53820 eV
Electronic Energy  :         -156.79586623 Eh           -4266.63243 eV
One Electron Energy:         -238.46761824 Eh           -6489.03379 eV
Two Electron Energy:           81.67175201 Eh            2222.40136 eV

Virial components:
Potential Energy   :         -231.01686134 Eh           -6286.28839 eV
Kinetic Energy     :          115.28977093 Eh            3137.19416 eV
Virial Ratio       :            2.00379322


DFT components:
N(Alpha)           :        8.999995991545 electrons
N(Beta)            :        8.999995991545 electrons
N(Total)           :       17.999991983090 electrons
E(XC)              :      -10.664564877592 Eh       
DFET-embed. en.    :        0.000000000000 Eh       

---------------
SCF CONVERGENCE
---------------

  Last Energy change         ...   -1.6307e-10  Tolerance :   1.0000e-08
  Last MAX-Density change    ...    1.2512e-06  Tolerance :   1.0000e-07
  Last RMS-Density change    ...    7.3026e-08  Tolerance :   5.0000e-09
  Last Orbital Gradient      ...    4.7962e-07  Tolerance :   1.0000e-05
  Last Orbital Rotation      ...    9.9480e-07  Tolerance :   1.0000e-05

             **** THE GBW FILE WAS UPDATED (43_charges.gbw) ****
             **** DENSITY FILE WAS UPDATED (43_charges.scfp.tmp) ****
             **** ENERGY FILE WAS UPDATED (43_charges.en.tmp) ****
----------------
ORBITAL ENERGIES
----------------

  NO   OCC          E(Eh)            E(eV) 
   0   2.0000     -19.231923      -523.3272 
   1   2.0000     -10.313131      -280.6346 
   2   2.0000      -1.155281       -31.4368 
   3   2.0000      -0.795760       -21.6537 
   4   2.0000      -0.632965       -17.2238 
   5   2.0000      -0.539087       -14.6693 
   6   2.0000      -0.535504       -14.5718 
   7   2.0000      -0.418835       -11.3971 
   8   2.0000      -0.371490       -10.1087 
   9   0.0000       0.114503         3.1158 
  10   0.0000       0.148755         4.0478 
  11   0.0000       0.206406         5.6166 
  12   0.0000       0.208483         5.6731 
  13   0.0000       0.236327         6.4308 
  14   0.0000       0.307269         8.3612 
  15   0.0000       0.315129         8.5751 
  16   0.0000       0.426081        11.5943 
  17   0.0000       0.470655        12.8072 
  18   0.0000       0.472642        12.8612 
  19   0.0000       0.520580        14.1657 
  20   0.0000       0.547402        14.8956 
  21   0.0000       0.569757        15.5039 
  22   0.0000       0.607692        16.5361 
  23   0.0000       0.613106        16.6835 
  24   0.0000       0.688941        18.7470 
  25   0.0000       0.771968        21.0063 
  26   0.0000       0.787726        21.4351 
  27   0.0000       0.858621        23.3643 
  28   0.0000       1.001401        27.2495 
  29   0.0000       1.071291        29.1513 
  30   0.0000       1.129041        30.7228 
  31   0.0000       1.379057        37.5261 
  32   0.0000       1.463258        39.8173 
  33   0.0000       1.553544        42.2741 
  34   0.0000       1.605178        43.6791 
  35   0.0000       1.624451        44.2036 
  36   0.0000       1.647655        44.8350 
  37   0.0000       1.677865        45.6570 
  38   0.0000       1.715545        46.6823 
  39   0.0000       1.764591        48.0170 
  40   0.0000       1.929418        52.5021 
  41   0.0000       1.998787        54.3898 
  42   0.0000       2.048382        55.7393 
  43   0.0000       2.093149        56.9575 
  44   0.0000       2.138635        58.1952 
  45   0.0000       2.289328        62.2958 
  46   0.0000       2.306273        62.7569 
  47   0.0000       2.397103        65.2285 
  48   0.0000       2.444156        66.5089 
  49   0.0000       2.459067        66.9146 
  50   0.0000       2.497539        67.9615 
  51   0.0000       2.569181        69.9110 
  52   0.0000       2.631580        71.6089 
  53   0.0000       2.684156        73.0396 
  54   0.0000       2.830871        77.0319 
  55   0.0000       2.911914        79.2372 
  56   0.0000       2.967274        80.7436 
  57   0.0000       2.972923        80.8973 
  58   0.0000       3.095617        84.2360 
  59   0.0000       3.176768        86.4442 
  60   0.0000       3.223113        87.7054 
  61   0.0000       3.317427        90.2718 
  62   0.0000       3.483976        94.8038 
  63   0.0000       3.591096        97.7187 
  64   0.0000       3.625491        98.6546 
  65   0.0000       3.658018        99.5397 
  66   0.0000       3.736302       101.6700 
  67   0.0000       3.987976       108.5183 
  68   0.0000       4.195570       114.1673 
  69   0.0000       4.294170       116.8503 
  70   0.0000       4.394641       119.5843 
  71   0.0000       4.528331       123.2222 
  72   0.0000       5.353895       145.6869 
  73   0.0000       5.414003       147.3225 
  74   0.0000       5.606620       152.5639 
  75   0.0000       5.921838       161.1414 
  76   0.0000       5.925321       161.2362 
  77   0.0000       6.031331       164.1209 
  78   0.0000       6.395732       174.0367 
  79   0.0000       6.518358       177.3735 
  80   0.0000       6.758157       183.8988 
  81   0.0000       6.833028       185.9362 
  82   0.0000       7.037005       191.4866 
  83   0.0000       7.231722       196.7852 
  84   0.0000      22.501185       612.2884 
  85   0.0000      43.680355      1188.6029 

                    ********************************
                    * MULLIKEN POPULATION ANALYSIS *
                    ********************************

-----------------------
MULLIKEN ATOMIC CHARGES
-----------------------
   0 C :   -0.156341
   1 O :   -0.467106
   2 H :    0.326089
   3 H :    0.107143
   4 H :    0.088720
   5 H :    0.101496
Sum of atomic charges:   -0.0000000

--------------------------------
MULLIKEN REDUCED ORBITAL CHARGES
--------------------------------
  0 C s       :     3.206954  s :     3.206954
      pz      :     1.089649  p :     2.829014
      px      :     0.684883
      py      :     1.054483
      dz2     :     0.009314  d :     0.111719
      dxz     :     0.035090
      dyz     :     0.005634
      dx2y2   :     0.011761
      dxy     :     0.049921
      f0      :     0.000854  f :     0.008653
      f+1     :     0.001160
      f-1     :     0.000197
      f+2     :     0.001716
      f-2     :    -0.000042
      f+3     :     0.001688
      f-3     :     0.003080
  1 O s       :     3.770230  s :     3.770230
      pz      :     1.452251  p :     4.664405
      px      :     1.355278
      py      :     1.856876
      dz2     :     0.009779  d :     0.030554
      dxz     :     0.006254
      dyz     :     0.002639
      dx2y2   :     0.007031
      dxy     :     0.004851
      f0      :     0.000333  f :     0.001918
      f+1     :     0.000332
      f-1     :     0.000170
      f+2     :     0.000283
      f-2     :     0.000070
      f+3     :     0.000416
      f-3     :     0.000314
  2 H s       :     0.625760  s :     0.625760
      pz      :     0.017956  p :     0.048151
      px      :     0.012225
      py      :     0.017969
  3 H s       :     0.874021  s :     0.874021
      pz      :     0.006582  p :     0.018836
      px      :     0.003965
      py      :     0.008289
  4 H s       :     0.892199  s :     0.892199
      pz      :     0.005163  p :     0.019082
      px      :     0.004162
      py      :     0.009757
  5 H s       :     0.877715  s :     0.877715
      pz      :     0.010360  p :     0.020789
      px      :     0.005120
      py      :     0.005309


                     *******************************
                     * LOEWDIN POPULATION ANALYSIS *
                     *******************************

----------------------
LOEWDIN ATOMIC CHARGES
----------------------
   0 C :   -0.441350
   1 O :   -0.027415
   2 H :    0.173395
   3 H :    0.110972
   4 H :    0.097842
   5 H :    0.086556

-------------------------------
LOEWDIN REDUCED ORBITAL CHARGES
-------------------------------
  0 C s       :     2.849603  s :     2.849603
      pz      :     1.114678  p :     3.063139
      px      :     0.858155
      py      :     1.090306
      dz2     :     0.046103  d :     0.462411
      dxz     :     0.124732
      dyz     :     0.031781
      dx2y2   :     0.094275
      dxy     :     0.165520
      f0      :     0.007318  f :     0.066196
      f+1     :     0.011585
      f-1     :     0.001354
      f+2     :     0.010685
      f-2     :     0.002773
      f+3     :     0.012395
      f-3     :     0.020087
  1 O s       :     3.320099  s :     3.320099
      pz      :     1.445632  p :     4.622420
      px      :     1.430983
      py      :     1.745805
      dz2     :     0.019314  d :     0.079568
      dxz     :     0.023971
      dyz     :     0.002788
      dx2y2   :     0.016677
      dxy     :     0.016818
      f0      :     0.001154  f :     0.005329
      f+1     :     0.000739
      f-1     :     0.000308
      f+2     :     0.000895
      f-2     :     0.000112
      f+3     :     0.000935
      f-3     :     0.001184
  2 H s       :     0.667113  s :     0.667113
      pz      :     0.078312  p :     0.159492
      px      :     0.031686
      py      :     0.049494
  3 H s       :     0.835782  s :     0.835782
      pz      :     0.018326  p :     0.053246
      px      :     0.010455
      py      :     0.024465
  4 H s       :     0.847702  s :     0.847702
      pz      :     0.014822  p :     0.054456
      px      :     0.011145
      py      :     0.028489
  5 H s       :     0.846747  s :     0.846747
      pz      :     0.033393  p :     0.066697
      px      :     0.016139
      py      :     0.017165


                      *****************************
                      * MAYER POPULATION ANALYSIS *
                      *****************************

  NA   - Mulliken gross atomic population
  ZA   - Total nuclear charge
  QA   - Mulliken gross atomic charge
  VA   - Mayer's total valence
  BVA  - Mayer's bonded valence
  FA   - Mayer's free valence

  ATOM       NA         ZA         QA         VA         BVA        FA
  0 C      6.1563     6.0000    -0.1563     3.9609     3.9609     0.0000
  1 O      8.4671     8.0000    -0.4671     1.8975     1.8975    -0.0000
  2 H      0.6739     1.0000     0.3261     0.9046     0.9046    -0.0000
  3 H      0.8929     1.0000     0.1071     0.9541     0.9541     0.0000
  4 H      0.9113     1.0000     0.0887     0.9542     0.9542     0.0000
  5 H      0.8985     1.0000     0.1015     0.9561     0.9561     0.0000

  Mayer bond orders larger than 0.1
B(  0-C ,  1-O ) :   1.0187 B(  0-C ,  3-H ) :   0.9683 B(  0-C ,  4-H ) :   0.9724 
B(  0-C ,  5-H ) :   0.9890 B(  1-O ,  2-H ) :   0.8889 


------------------
HIRSHFELD ANALYSIS
------------------

Total integrated alpha density =      8.999528895
Total integrated beta density  =      8.999528895

  ATOM     CHARGE      SPIN    
   0 C    0.005517    0.000000
   1 O   -0.243192    0.000000
   2 H    0.172976    0.000000
   3 H    0.031064    0.000000
   4 H    0.016347    0.000000
   5 H    0.018231    0.000000

  TOTAL   0.000942    0.000000

-------
TIMINGS
-------

Total SCF time: 0 days 0 hours 0 min 25 sec 

Total time                  ....      25.109 sec
Sum of individual times     ....      21.840 sec  ( 87.0%)

Fock matrix formation       ....      17.156 sec  ( 68.3%)
  XC integration            ....       4.077 sec  ( 23.8% of F)
    Basis function eval.    ....       0.042 sec  (  1.0% of XC)
    Density eval.           ....       0.050 sec  (  1.2% of XC)
    XC-Functional eval.     ....       0.084 sec  (  2.1% of XC)
    XC-Potential eval.      ....       0.083 sec  (  2.0% of XC)
Diagonalization             ....       1.100 sec  (  4.4%)
Density matrix formation    ....       1.440 sec  (  5.7%)
Population analysis         ....       0.098 sec  (  0.4%)
Initial guess               ....       0.105 sec  (  0.4%)
Orbital Transformation      ....       0.000 sec  (  0.0%)
Orbital Orthonormalization  ....       0.000 sec  (  0.0%)
DIIS solution               ....       0.382 sec  (  1.5%)
SOSCF solution              ....       0.780 sec  (  3.1%)
Grid generation             ....       0.780 sec  (  3.1%)


-------------------------------------------------------------------------------
                          DFT DISPERSION CORRECTION                            
                                                                               
                              DFTD3 V3.1  Rev 1                                
                              USING zero damping                               
-------------------------------------------------------------------------------
The omegaB97X-D3 functional is recognized. Fit by Chai et al.
Active option DFTDOPT                   ...         3   

molecular C6(AA) [au] = 208.794048 


            DFT-D V3
 parameters
 s6 scaling factor         :     1.0000 
 rs6 scaling factor        :     1.2810 
 s8 scaling factor         :     1.0000 
 rs8 scaling factor        :     1.0940 
 Damping factor alpha6     :    14.0000 
 Damping factor alpha8     :    16.0000 
 ad hoc parameters k1-k3   :    16.0000     1.3333    -4.0000 

 Edisp/kcal,au: -0.157599176725  -0.000251150248 
 E6   /kcal   :  -0.034523891 
 E8   /kcal   :  -0.123075286 
 % E8         :  78.093863600 

-------------------------   ----------------
Dispersion correction           -0.000251150
-------------------------   ----------------


-------------------------   --------------------
FINAL SINGLE POINT ENERGY      -115.727341558982
-------------------------   --------------------


                            ***************************************
                            *     ORCA property calculations      *
                            ***************************************

                                    ---------------------
                                    Active property flags
                                    ---------------------
   (+) Dipole Moment


------------------------------------------------------------------------------
                       ORCA ELECTRIC PROPERTIES CALCULATION
------------------------------------------------------------------------------

Dipole Moment Calculation                       ... on
Quadrupole Moment Calculation                   ... off
Polarizability Calculation                      ... off
GBWName                                         ... 43_charges.gbw
Electron density file                           ... 43_charges.scfp.tmp
The origin for moment calculation is the CENTER OF MASS  = (18.627189, -22.323345  2.586934)

-------------
DIPOLE MOMENT
-------------
                                X             Y             Z
Electronic contribution:     -2.01147      -0.01287       0.05232
Nuclear contribution   :      2.30035       0.11104       0.55630
                        -----------------------------------------
Total Dipole Moment    :      0.28888       0.09817       0.60863
                        -----------------------------------------
Magnitude (a.u.)       :      0.68082
Magnitude (Debye)      :      1.73051



--------------------
Rotational spectrum 
--------------------
 
Rotational constants in cm-1:     4.506046     0.858784     0.838302 
Rotational constants in MHz : 135087.872346 25745.709487 25131.648081 

 Dipole components along the rotational axes: 
x,y,z [a.u.] :     0.190146     0.639351    -0.136346 
x,y,z [Debye]:     0.483313     1.625102    -0.346564 

 
------------------------------------------------------------------------------
                      ORCA CHELPG CHARGES GENERATION
------------------------------------------------------------------------------

GBW file                           ... 43_charges.gbw

Reading the GBW file               ... done

Grid spacing                       ...     0.300000
Point Cut-Off                      ...     2.800000
Van-der-Waals Radii                ...        COSMO
Total charge                       ...            0


Number of points X direction       ...           25
Number of points Y direction       ...           24
Number of points Z direction       ...           24
Maximum number of possible points  ...        14400
Final number of points             ...         5875


CHELPG Charges            
--------------------------------
  0   C   :       0.282688
  1   O   :      -0.657810
  2   H   :       0.426122
  3   H   :       0.007916
  4   H   :      -0.025744
  5   H   :      -0.033171
--------------------------------
Total charge:     0.000000
--------------------------------

CHELPG charges calculated...

Timings for individual parts in CHELPG calculation:
Grid generation                 ...        0.001 sec (=   0.000 min)
Potential calculation           ...        0.677 sec (=   0.011 min)
Fit to the potential            ...        0.034 sec (=   0.001 min)
------------------------------------------------------------------------------


Timings for individual modules:

Sum of individual times         ...       35.531 sec (=   0.592 min)
GTO integral calculation        ...        5.466 sec (=   0.091 min)  15.4 %
SCF iterations                  ...       28.548 sec (=   0.476 min)  80.3 %
CHELPG charge generation        ...        1.517 sec (=   0.025 min)   4.3 %
                             ****ORCA TERMINATED NORMALLY****
TOTAL RUN TIME: 0 days 0 hours 0 minutes 40 seconds 585 msec
