LAMMPS data file via vdw_self_gen.py, on 2021-08-05 13:22:33.669270

5000 atoms
4 atom types
4500 bonds
3 bond types
7500 angles
4 angle types
6000 dihedrals
2 dihedral types

-39.1527845130436134  39.1527845130436134 xlo xhi
-39.1527845130436134  39.1527845130436134 ylo yhi
-39.1527845130436134  39.1527845130436134 zlo zhi

Masses

1  32.066000
2  1.007940
3  12.011000
4  15.999400

Atoms

1         0    3   -0.2186791000000000  -22.8295403167608129 -5.1210156612305395   4.0656696703526771  0 0 0
2         0    1    0.1551339000000000  -22.0066277036636571 -4.2699092503924687   5.4550443101586392  0 0 0
3         0    2    0.1111729000000000  -22.8468896836928650 -4.4940255138254592   3.1485288037329351  0 0 0
4         0    2    0.1111729000000000  -23.8724377086726776 -5.3645050613053487   4.3559875363110772  0 0 0
5         0    2    0.1111729000000000  -22.2964608920364000 -6.0697424636438537   3.8481506564295307  0 0 0
6         0    3   -0.2186791000000000  -20.4929412669291153 -3.8748890445821287   4.5145073885827571  0 0 0
7         0    2    0.1111729000000000  -19.9375122150904076 -4.8117345445848816   4.3015062083086910  0 0 0
8         0    2    0.1111729000000000  -19.8452636823342274 -3.2164588748812490   5.1294748591379102  0 0 0
9         0    2    0.1111729000000000  -20.7235266880837443 -3.3618576641997429   3.5562725504069128  0 0 0
10        0    4   -0.3848131000000000  -22.6642693596450400 -2.9189558247361163   5.1279519199606574  0 0 0
11        1    3   -0.2186791000000000  -21.3135613728482731 -31.3854818158374407 -29.5722979341255154 0 0 0
12        1    1    0.1551339000000000  -21.0826348087028457 -29.6343694132538573 -30.0329577398280883 0 0 0
13        1    2    0.1111729000000000  -22.3857407650193991 -31.6769461248750126 -29.5790003412153943 0 0 0
14        1    2    0.1111729000000000  -20.9012203315182319 -31.5504578319485987 -28.5554575823283656 0 0 0
15        1    2    0.1111729000000000  -20.7567102410038515 -32.0293932170736184 -30.2842429210603541 0 0 0
16        1    3   -0.2186791000000000  -22.0511495564476583 -29.7553353128909990 -31.5754374729609992 0 0 0
17        1    2    0.1111729000000000  -21.5011782419061817 -30.3835108984590825 -32.3065170939173711 0 0 0
18        1    2    0.1111729000000000  -22.1727730869578075 -28.7407345129360223 -32.0078660397289312 0 0 0
19        1    2    0.1111729000000000  -23.0559238102431117 -30.1958150589098118 -31.3993944922517727 0 0 0
20        1    4   -0.3848131000000000  -22.2945773022615832 -29.1696131374880743 -29.2084857062557255 0 0 0
21        2    3   -0.2186791000000000  -13.0542659360617925  29.3074830319523620 -5.0760972353840748  0 0 0
22        2    1    0.1551339000000000  -11.9772325429300182  30.3171690665487823 -4.0025692372768953  0 0 0
23        2    2    0.1111729000000000  -14.0868861744861320  29.2325373540908657 -4.6728062693727681  0 0 0
24        2    2    0.1111729000000000  -12.6260676920327075  28.2875445959501270 -5.1631510800764477  0 0 0
25        2    2    0.1111729000000000  -13.0908790080769055  29.7590836649052832 -6.0891555216510271  0 0 0
26        2    3   -0.2186791000000000  -13.1113538598842823  31.7465744716105860 -3.9529071892923184  0 0 0
27        2    2    0.1111729000000000  -13.1482864934232104  32.2215259655426252 -4.9552082839198768  0 0 0
28        2    2    0.1111729000000000  -12.7246251012126912  32.4913754988559162 -3.2270188860178886  0 0 0
29        2    2    0.1111729000000000  -14.1388382177744472  31.4490117423198150 -3.6523790621094183  0 0 0
30        2    4   -0.3848131000000000  -12.5508466842631758  29.7093519318961548 -2.7118011382810709  0 0 0
31        3    3   -0.2186791000000000  -31.2840199844135327  21.0994815353047969  3.5018361630488606  0 0 0
32        3    1    0.1551339000000000  -31.1803095558086447  21.7021526746310478  5.2217084914272736  0 0 0
33        3    2    0.1111729000000000  -30.8837425321500660  21.8419576543805931  2.7785988655374538  0 0 0
34        3    2    0.1111729000000000  -32.3452170882093952  20.8904264733701623  3.2541201779474047  0 0 0
35        3    2    0.1111729000000000  -30.7102576721759490  20.1541631683184690  3.4083442693142763  0 0 0
36        3    3   -0.2186791000000000  -29.4047261748479336  22.1153720146642918  5.1297806562595936  0 0 0
37        3    2    0.1111729000000000  -28.8130902232784862  21.1797034491915781  5.0520525294537109  0 0 0
38        3    2    0.1111729000000000  -29.1061752954612771  22.6416649452460419  6.0598799280779971  0 0 0
39        3    2    0.1111729000000000  -29.1758910084827399  22.7649207974997694  4.2578255632923216  0 0 0
40        3    4   -0.3848131000000000  -31.6182277888445071  23.1256268043021969  4.8389472590228992  0 0 0
41        4    3   -0.2186791000000000  -23.0048972371684037 -21.6026425015990853  4.8442913211385932  0 0 0
42        4    1    0.1551339000000000  -21.2684734147552810 -21.1604313599815264  5.1924447302637740  0 0 0
43        4    2    0.1111729000000000  -23.2532098966475793 -21.4869148728784083  3.7674844889755263  0 0 0
44        4    2    0.1111729000000000  -23.6726778101536794 -20.9474447493938456  5.4409415814659177  0 0 0
45        4    2    0.1111729000000000  -23.1843507595628679 -22.6547467855371671  5.1483369577120346  0 0 0
46        4    3   -0.2186791000000000  -20.5736462345386499 -22.2553799144707405  3.9078435683251000  0 0 0
47        4    2    0.1111729000000000  -20.7297349626788616 -23.3136782240734597  4.2031255050222098  0 0 0
48        4    2    0.1111729000000000  -19.4822770851444815 -22.0722723116700514  3.8266862066920981  0 0 0
49        4    2    0.1111729000000000  -21.0440151051218187 -22.0802821467056987  2.9165420319044131  0 0 0
50        4    4   -0.3848131000000000  -21.3021870111373204 -19.9416766505989500  4.2553975118821272  0 0 0
51        5    3   -0.2186791000000000  -21.1847666129787626 -14.2798098976393710  13.1263428309814749 0 0 0
52        5    1    0.1551339000000000  -20.8022592295221997 -12.5538174967591196  12.6718458400070233 0 0 0
53        5    2    0.1111729000000000  -21.7933588755930145 -14.3379937812761717  14.0541332751395274 0 0 0
54        5    2    0.1111729000000000  -20.2354658490533872 -14.8327107680239578  13.2823402939053103 0 0 0
55        5    2    0.1111729000000000  -21.7393325728554174 -14.7642971716054809  12.2961022528289945 0 0 0
56        5    3   -0.2186791000000000  -22.5379933774844510 -11.9926594816334475  12.7368530877411761 0 0 0
57        5    2    0.1111729000000000  -23.1053484898694030 -12.4551792289885217  11.9027463289523183 0 0 0
58        5    2    0.1111729000000000  -22.5678365067683231 -10.8905910192270063  12.6113300874438465 0 0 0
59        5    2    0.1111729000000000  -23.0231882897547315 -12.2597984519357990  13.7000807381192349 0 0 0
60        5    4   -0.3848131000000000  -20.5259197130292499 -12.1424244130564887  14.1275069750264617 0 0 0
61        6    3   -0.2186791000000000   21.1993292015362513  4.0098436057707572  -29.2621168983801603 0 0 0
62        6    1    0.1551339000000000   20.7490838541405260  4.4154089116498598  -30.9839546058647208 0 0 0
63        6    2    0.1111729000000000   22.0858212365351463  3.3418091662847647  -29.2128535829807205 0 0 0
64        6    2    0.1111729000000000   20.3406592939776516  3.5065681358837004  -28.7716005249905677 0 0 0
65        6    2    0.1111729000000000   21.4181796811753173  4.9467030101902090  -28.7089716516207112 0 0 0
66        6    3   -0.2186791000000000   22.4220834622723721  4.9785482462045803  -31.4485444181378213 0 0 0
67        6    2    0.1111729000000000   22.6524398287347601  5.9247587126436487  -30.9164052230662634 0 0 0
68        6    2    0.1111729000000000   22.4482576372122331  5.1759143412083768  -32.5401318259568910 0 0 0
69        6    2    0.1111729000000000   23.1970337271412923  4.2222296530607686  -31.1995080524308044 0 0 0
70        6    4   -0.3848131000000000   21.0025815941833933  2.9813101204851198  -31.4775705402438604 0 0 0
71        7    3   -0.2186791000000000  -5.4336500955794884   29.9160200388739490  12.4377411416043824 0 0 0
72        7    1    0.1551339000000000  -3.7967258313574161   30.6380861428755935  12.0757623083103507 0 0 0
73        7    2    0.1111729000000000  -5.3984653408393797   29.2276878492476868  13.3092489410291410 0 0 0
74        7    2    0.1111729000000000  -5.7870072924222349   29.3543310697945081  11.5484432642011363 0 0 0
75        7    2    0.1111729000000000  -6.1570091002650358   30.7313055240579871  12.6466240468133897 0 0 0
76        7    3   -0.2186791000000000  -3.5146970646856843   31.2331322517258805  13.7781950369994313 0 0 0
77        7    2    0.1111729000000000  -4.2196174543944283   32.0611215440002795  13.9997156937152667 0 0 0
78        7    2    0.1111729000000000  -2.4794406311746164   31.6241972135302980  13.8589034276588965 0 0 0
79        7    2    0.1111729000000000  -3.6548952346472525   30.4246736095263159  14.5274105839498837 0 0 0
80        7    4   -0.3848131000000000  -3.0615858580162514   29.3111020800400226  12.3272372658634861 0 0 0
81        8    3   -0.2186791000000000   3.6936948550298858   5.4767523588320293  -3.9800916002825963  0 0 0
82        8    1    0.1551339000000000   5.1539848106840109   4.4673680449049744  -3.5550907375614980  0 0 0
83        8    2    0.1111729000000000   3.5726374754713932   5.5867576104665160  -5.0790952263763662  0 0 0
84        8    2    0.1111729000000000   3.8042355512989552   6.4834751545981604  -3.5267743953882951  0 0 0
85        8    2    0.1111729000000000   2.7833338013357900   5.0016964573791380  -3.5592170554218381  0 0 0
86        8    3   -0.2186791000000000   4.6878501184647270   3.0678108862310425  -4.6301979419435444  0 0 0
87        8    2    0.1111729000000000   3.7871154708960093   2.5696873084097671  -4.2153480640505974  0 0 0
88        8    2    0.1111729000000000   5.5178642277421446   2.3316194655469054  -4.6475271748023177  0 0 0
89        8    2    0.1111729000000000   4.4758007102018169   3.3976771688375296  -5.6698171620692248  0 0 0
90        8    4   -0.3848131000000000   6.0265768822570571   5.1202494481757279  -4.6399345454855094  0 0 0
91        9    3   -0.2186791000000000  -13.9888834964713187 -5.2701904848329590  -22.0849179173722980 0 0 0
92        9    1    0.1551339000000000  -13.4689568676138300 -3.5595922067132530  -22.4529654857636380 0 0 0
93        9    2    0.1111729000000000  -13.1207671043111187 -5.9600133356687754  -22.0136200995410576 0 0 0
94        9    2    0.1111729000000000  -14.6660779811344995 -5.6244881312267703  -22.8893353021928760 0 0 0
95        9    2    0.1111729000000000  -14.5467025912786632 -5.2865204592043451  -21.1256776296938966 0 0 0
96        9    3   -0.2186791000000000  -12.2624393370768843 -3.4713985414115411  -21.0860585326363719 0 0 0
97        9    2    0.1111729000000000  -12.8038589746907832 -3.4703412368082467  -20.1173407804438078 0 0 0
98        9    2    0.1111729000000000  -11.6902048194674126 -2.5242705411410418  -21.1678982525763217 0 0 0
99        9    2    0.1111729000000000  -11.5520348438029270 -4.3255195929243921  -21.1057441644208907 0 0 0
100       9    4   -0.3848131000000000  -12.4093556942979291 -4.0107593734504636  -23.4719113522677851 0 0 0
101       10   3   -0.2186791000000000  -13.9030376955165451 -30.1332463689317187 -31.4567937327732920 0 0 0
102       10   1    0.1551339000000000  -12.8300060567447023 -31.4870534451730606 -30.8671000125985948 0 0 0
103       10   2    0.1111729000000000  -14.4685814647843856 -29.6614977413339531 -30.6248210817192223 0 0 0
104       10   2    0.1111729000000000  -14.6225597234070204 -30.5375344816562091 -32.1984443881293387 0 0 0
105       10   2    0.1111729000000000  -13.2809046279911342 -29.3624841700109833 -31.9572403524104871 0 0 0
106       10   3   -0.2186791000000000  -12.0145579279779682 -30.4829305338729704 -29.5792029589126066 0 0 0
107       10   2    0.1111729000000000  -11.3742571867666307 -29.7156842993206425 -30.0617986506354882 0 0 0
108       10   2    0.1111729000000000  -11.3678523449437954 -31.1402956002467199 -28.9620768857445228 0 0 0
109       10   2    0.1111729000000000  -12.7524358412235799 -29.9790453883950541 -28.9187328353559074 0 0 0
110       10   4   -0.3848131000000000  -13.8950888407896027 -32.0218852947312129 -29.8954464253930645 0 0 0
111       11   3   -0.2186791000000000  -30.7111349369956947  30.3125107052971856  5.6733774331043758  0 0 0
112       11   1    0.1551339000000000  -31.1083693066254661  29.5731742187881785  4.0524161145031732  0 0 0
113       11   2    0.1111729000000000  -29.6335028512066856  30.5697426995414716  5.7576733613282620  0 0 0
114       11   2    0.1111729000000000  -30.9737208630881433  29.5916225508910244  6.4749854554912867  0 0 0
115       11   2    0.1111729000000000  -31.3170763343829641  31.2311092844634572  5.8168431550942330  0 0 0
116       11   3   -0.2186791000000000  -30.3479195934389416  30.9194634689258123  3.0823033472032200  0 0 0
117       11   2    0.1111729000000000  -30.9505655967523587  31.8437471597110182  3.2009114368887226  0 0 0
118       11   2    0.1111729000000000  -30.3474129899668981  30.6376222810205299  2.0090993498415561  0 0 0
119       11   2    0.1111729000000000  -29.3035192565077161  31.1215003206728085  3.4032299518250659  0 0 0
120       11   4   -0.3848131000000000  -29.8284355947076598  28.7211646343610347  4.0322542981018925  0 0 0
121       12   3   -0.2186791000000000   12.5407680715381922 -14.3003788175262656  12.9256789149101117 0 0 0
122       12   1    0.1551339000000000   13.2241074839116166 -13.1525992902272488  14.1696960310746682 0 0 0
123       12   2    0.1111729000000000   11.8514499560200690 -13.7855941322529620  12.2225414616859211 0 0 0
124       12   2    0.1111729000000000   11.9879372619863585 -15.1105112207858294  13.4445913415286622 0 0 0
125       12   2    0.1111729000000000   13.3728308081178735 -14.7573278033133040  12.3508398357899392 0 0 0
126       12   3   -0.2186791000000000   13.8116474582599338 -11.9342612970412425  12.9439935363793737 0 0 0
127       12   2    0.1111729000000000   14.6559698482729139 -12.3686128898377792  12.3695295942055559 0 0 0
128       12   2    0.1111729000000000   14.1781151723907719 -11.0321977413771108  13.4761441615244522 0 0 0
129       12   2    0.1111729000000000   13.0064281872765815 -11.6355979444994304  12.2390063263638140 0 0 0
130       12   4   -0.3848131000000000   11.8800274623710607 -12.4322005732841951  14.3672605066828734 0 0 0
131       13   3   -0.2186791000000000  -29.8349303987702790 -31.5670230309600086  3.8885828824843385  0 0 0
132       13   1    0.1551339000000000  -31.4398945990463048 -30.9839298955722597  4.5335801634057509  0 0 0
133       13   2    0.1111729000000000  -29.3874787480326312 -30.8415772374782655  3.1757852704851173  0 0 0
134       13   2    0.1111729000000000  -29.9829745321953638 -32.5371120498603403  3.3706864147734539  0 0 0
135       13   2    0.1111729000000000  -29.1344382745193897 -31.7255290465331186  4.7346073307065000  0 0 0
136       13   3   -0.2186791000000000  -30.8061749481075253 -29.3571150158492244  5.0662808708632756  0 0 0
137       13   2    0.1111729000000000  -30.1151435670918843 -29.4945905251496008  5.9236760773428907  0 0 0
138       13   2    0.1111729000000000  -31.6570245012106710 -28.7280534872593840  5.4002541677485008  0 0 0
139       13   2    0.1111729000000000  -30.2698493478783455 -28.8334450995843135  4.2460921681015806  0 0 0
140       13   4   -0.3848131000000000  -31.8937484068201194 -30.4532819354260091  3.1635485574703863  0 0 0
141       14   3   -0.2186791000000000  -20.9755746052235814 -13.6221662566171524  5.3035310793466053  0 0 0
142       14   1    0.1551339000000000  -22.1944707796252416 -12.2847613068382469  5.0635950515478010  0 0 0
143       14   2    0.1111729000000000  -21.2733847302772041 -14.5528995144220783  4.7747497002007711  0 0 0
144       14   2    0.1111729000000000  -20.8821597399853651 -13.8375229825476982  6.3880132898272599  0 0 0
145       14   2    0.1111729000000000  -19.9861725787827389 -13.2898083177312909  4.9264467775859817  0 0 0
146       14   3   -0.2186791000000000  -22.2019536506591777 -12.4125695531744977  3.2427418582865943  0 0 0
147       14   2    0.1111729000000000  -21.2243185749663006 -12.0684460108014413  2.8460567543822481  0 0 0
148       14   2    0.1111729000000000  -22.9961229914861320 -11.7529206440226002  2.8360971650405302  0 0 0
149       14   2    0.1111729000000000  -22.3875770736254935 -13.4537379165536741  2.9020114329580089  0 0 0
150       14   4   -0.3848131000000000  -23.3937347922776979 -13.2344492074366862  5.2198507942059873  0 0 0
151       15   3   -0.2186791000000000   3.3939172323489188   29.8842304923073350 -5.1248035636898823  0 0 0
152       15   1    0.1551339000000000   5.1752448194962017   29.7751174022792853 -4.7415340215233277  0 0 0
153       15   2    0.1111729000000000   2.7814983670614435   30.0239477955540472 -4.2082953949791708  0 0 0
154       15   2    0.1111729000000000   3.0745015806062268   28.9511932579990017 -5.6333521671842277  0 0 0
155       15   2    0.1111729000000000   3.2176719281547754   30.7360938540153086 -5.8138878443327542  0 0 0
156       15   3   -0.2186791000000000   5.2146745999104551   31.3184852393708688 -3.7676971232453242  0 0 0
157       15   2    0.1111729000000000   5.0560232392574278   32.1839918848927766 -4.4439207679224015  0 0 0
158       15   2    0.1111729000000000   6.2126189303489872   31.4230910552962968 -3.2940239570007512  0 0 0
159       15   2    0.1111729000000000   4.4359206126414223   31.3274430065411948 -2.9752030699427721  0 0 0
160       15   4   -0.3848131000000000   4.9410225935559247   28.8980633354164098 -3.5003759935611840  0 0 0
161       16   3   -0.2186791000000000   20.9366864718123580  30.9694155895500813  5.3019041596057859  0 0 0
162       16   1    0.1551339000000000   22.4880481322397259  31.3162114914267029  4.4047203534113075  0 0 0
163       16   2    0.1111729000000000   20.1473906040277733  30.5755905937491264  4.6262719220086215  0 0 0
164       16   2    0.1111729000000000   20.5734699975406237  31.9057174412184672  5.7737295051309783  0 0 0
165       16   2    0.1111729000000000   21.1335050998370377  30.2274177912531172  6.1033231730344299  0 0 0
166       16   3   -0.2186791000000000   22.5937445707814106  29.6615498925241603  3.6412935078020725  0 0 0
167       16   2    0.1111729000000000   22.8065966579825385  28.9071661626822021  4.4268822058011299  0 0 0
168       16   2    0.1111729000000000   23.4293465916413197  29.6515977658127525  2.9113128575730745  0 0 0
169       16   2    0.1111729000000000   21.6531341925970615  29.3869519109067028  3.1174300678260476  0 0 0
170       16   4   -0.3848131000000000   21.7535471984490947  31.9200386845492012  3.1962261511883501  0 0 0
171       17   3   -0.2186791000000000   13.2343634817553699  22.8669306974381890  3.6024135367481516  0 0 0
172       17   1    0.1551339000000000   12.2666060764098468  21.3199602211751120  3.6499228102564345  0 0 0
173       17   2    0.1111729000000000   13.2994234161582447  23.3449517059195450  4.6033271869128178  0 0 0
174       17   2    0.1111729000000000   12.7533789578425019  23.5741055755998978  2.8954735811979746  0 0 0
175       17   2    0.1111729000000000   14.2588346626351541  22.6485377746014720  3.2358974103613036  0 0 0
176       17   3   -0.2186791000000000   13.2223287647205101  20.5863727799265668  5.0211780387571805  0 0 0
177       17   2    0.1111729000000000   14.2465870854027603  20.3460414550793089  4.6680687467379371  0 0 0
178       17   2    0.1111729000000000   12.7324656737581368  19.6435417071684100  5.3410299609875862  0 0 0
179       17   2    0.1111729000000000   13.2887249895045336  21.2726148573341725  5.8925265289318780  0 0 0
180       17   4   -0.3848131000000000   11.2065686019583186  21.9124127426662731  4.5932561024905194  0 0 0
181       18   3   -0.2186791000000000   20.9044387043340230  29.8430620680599255  22.6166931617088096 0 0 0
182       18   1    0.1551339000000000   20.9417390605579214  30.6460219039430122  20.9778541316377769 0 0 0
183       18   2    0.1111729000000000   21.7808839066479045  29.1778627366058991  22.7713497861194298 0 0 0
184       18   2    0.1111729000000000   19.9756413476875743  29.2424860571667509  22.7052959084281625 0 0 0
185       18   2    0.1111729000000000   20.8942379302182637  30.6216888274918304  23.4073935182308119 0 0 0
186       18   3   -0.2186791000000000   22.6375412897866362  31.2945714662420471  21.1663629038066929 0 0 0
187       18   2    0.1111729000000000   22.6437573823629243  32.0871877800082146  21.9430682305843661 0 0 0
188       18   2    0.1111729000000000   22.9628951227014326  31.7440042476476556  20.2054484486101522 0 0 0
189       18   2    0.1111729000000000   23.3557917493356086  30.4969669938683126  21.4536401597931530 0 0 0
190       18   4   -0.3848131000000000   21.4185430232766549  29.3678052426388767  20.2683632679896064 0 0 0
191       19   3   -0.2186791000000000  -5.0424199782207202  -22.8992261732511935 -21.5493268739027677 0 0 0
192       19   1    0.1551339000000000  -3.8978930376814485  -21.7522614131513805 -20.7088156588859889 0 0 0
193       19   2    0.1111729000000000  -5.8179188573038836  -22.3568645394696155 -22.1315728369136977 0 0 0
194       19   2    0.1111729000000000  -5.5411659177831121  -23.5356476771551328 -20.7894409098011259 0 0 0
195       19   2    0.1111729000000000  -4.4671439200715586  -23.5570176078525151 -22.2333872700561415 0 0 0
196       19   3   -0.2186791000000000  -3.5002170859731176  -20.8040410515801106 -22.2170030729478150 0 0 0
197       19   2    0.1111729000000000  -2.9100419182615802  -21.4418208073191217 -22.9072788728177983 0 0 0
198       19   2    0.1111729000000000  -2.8833140351273792  -19.9242626614801495 -21.9401960246807306 0 0 0
199       19   2    0.1111729000000000  -4.4164559634495344  -20.4531056232392636 -22.7384774091677180 0 0 0
200       19   4   -0.3848131000000000  -5.0265231895094562  -20.7912219624104786 -20.2999705877351744 0 0 0
201       20   3   -0.2186791000000000  -22.7133418873965311  22.4970336478501416  31.0490557631279991 0 0 0
202       20   1    0.1551339000000000  -22.2479898351377798  20.7636856224364656  30.7160673679051897 0 0 0
203       20   2    0.1111729000000000  -21.8377410185822640  23.1088575053269523  31.3549310655861824 0 0 0
204       20   2    0.1111729000000000  -23.4704193653223285  22.5199776399758207  31.8599280014879369 0 0 0
205       20   2    0.1111729000000000  -23.1648907992146924  22.9382549880593380  30.1363684950674404 0 0 0
206       20   3   -0.2186791000000000  -20.9024285762024853  21.1886732212568241  29.5581607516785887 0 0 0
207       20   2    0.1111729000000000  -21.3367789271388340  21.6171889548241509  28.6311955613792293 0 0 0
208       20   2    0.1111729000000000  -20.3489760462959559  20.2649607190390562  29.2904911004540764 0 0 0
209       20   2    0.1111729000000000  -20.1922278583286712  21.9201051906224151  29.9999831745155170 0 0 0
210       20   4   -0.3848131000000000  -21.3006752032894084  20.6967320275177968  31.9254760424703470 0 0 0
211       21   3   -0.2186791000000000   30.7135334548278855 -12.1117382079455194 -29.5105252764356010 0 0 0
212       21   1    0.1551339000000000   29.8237595759551617 -12.3478125209313117 -31.0867551277974066 0 0 0
213       21   2    0.1111729000000000   30.5796594392848071 -12.9769950396753710 -28.8264394793259271 0 0 0
214       21   2    0.1111729000000000   30.3328706931590730 -11.1960329536089489 -29.0127439284934816 0 0 0
215       21   2    0.1111729000000000   31.7953589457147672 -11.9740702465093971 -29.7161265404428860 0 0 0
216       21   3   -0.2186791000000000   30.5555403001225869 -13.9846135749525562 -31.4292118022715705 0 0 0
217       21   2    0.1111729000000000   31.6357929350905422 -13.8647145897520101 -31.6533298588682399 0 0 0
218       21   2    0.1111729000000000   30.0603463390231269 -14.4242143925617334 -32.3195688058650532 0 0 0
219       21   2    0.1111729000000000   30.4363299708210349 -14.6788831896760819 -30.5699310342687802 0 0 0
220       21   4   -0.3848131000000000   28.5884656696735568 -12.9502069945324365 -30.3970254699035642 0 0 0
221       22   3   -0.2186791000000000   3.4359084741750876  -22.6935246317268380  4.0132238876015460  0 0 0
222       22   1    0.1551339000000000   4.8008268586338456  -22.3794555132812718  5.1838167176262751  0 0 0
223       22   2    0.1111729000000000   2.7858598006574260  -21.8013085306599592  3.8869220041835617  0 0 0
224       22   2    0.1111729000000000   2.8215092720325474  -23.5370360422735914  4.3903294987823394  0 0 0
225       22   2    0.1111729000000000   3.8561410566742964  -22.9804359864048990  3.0269900455220622  0 0 0
226       22   3   -0.2186791000000000   5.3754533145928560  -20.8649287671659600  4.3424425654125809  0 0 0
227       22   2    0.1111729000000000   5.8143776817782378  -21.1344891418182108  3.3594710349966439  0 0 0
228       22   2    0.1111729000000000   6.1642523109856775  -20.3851421861659396  4.9579119080950438  0 0 0
229       22   2    0.1111729000000000   4.5483561747809125  -20.1396888619601029  4.1858467799906842  0 0 0
230       22   4   -0.3848131000000000   3.9004089590708961  -21.5994598554521744  6.1561394611710281  0 0 0
231       23   3   -0.2186791000000000  -3.3847017438866454  -29.9250962738233390 -29.6604099112294683 0 0 0
232       23   1    0.1551339000000000  -5.0548274105071869  -29.5720905155313822 -30.3069363015709605 0 0 0
233       23   2    0.1111729000000000  -3.2807001170883079  -30.9837541338874978 -29.3394859145454276 0 0 0
234       23   2    0.1111729000000000  -3.1845201287458798  -29.2636447092492560 -28.7922995092746632 0 0 0
235       23   2    0.1111729000000000  -2.6325056983150805  -29.7074065802361496 -30.4467832617649705 0 0 0
236       23   3   -0.2186791000000000  -5.0515456920596300  -30.9563960158945051 -31.4967198132185153 0 0 0
237       23   2    0.1111729000000000  -4.3154051607003767  -30.7483758074975171 -32.3006944000610261 0 0 0
238       23   2    0.1111729000000000  -6.0575436561129052  -31.0413650178107936 -31.9570999787708665 0 0 0
239       23   2    0.1111729000000000  -4.7951655672611011  -31.9209060337925941 -31.0082789306313593 0 0 0
240       23   4   -0.3848131000000000  -5.7461787287046526  -30.4026222359494938 -29.2129493026052707 0 0 0
241       24   3   -0.2186791000000000  -12.6581544295470501  29.5008891180493720  29.5701911225362473 0 0 0
242       24   1    0.1551339000000000  -11.9872617591850084  30.7324173674925980  30.7385961793456488 0 0 0
243       24   2    0.1111729000000000  -13.5311569215873391  28.9605085484381206  29.9949504703769350 0 0 0
244       24   2    0.1111729000000000  -11.8645977310223287  28.7659529622168755  29.3225156607385600 0 0 0
245       24   2    0.1111729000000000  -12.9662081031453909  30.0116980984237713  28.6343771133167628 0 0 0
246       24   3   -0.2186791000000000  -13.5921490576870188  31.5506427315516902  31.0331149483863342 0 0 0
247       24   2    0.1111729000000000  -13.9089373986171303  32.0811683016172680  30.1113024989925684 0 0 0
248       24   2    0.1111729000000000  -13.4744831949320023  32.2986495071523834  31.8441896306428873 0 0 0
249       24   2    0.1111729000000000  -14.3799959847105896  30.8231783541839377  31.3241091717662279 0 0 0
250       24   4   -0.3848131000000000  -12.1463371297115241  29.7965523345465009  31.9483105275703245 0 0 0
251       25   3   -0.2186791000000000   13.0178437222478021  29.1073316770317945 -30.6177084887197886 0 0 0
252       25   1    0.1551339000000000   14.0059167438245389  30.5783723075319287 -31.0555216321382730 0 0 0
253       25   2    0.1111729000000000   12.6786411334919649  29.1367797758465557 -29.5600509695021927 0 0 0
254       25   2    0.1111729000000000   13.6332711603128445  28.1973676936276192 -30.7739811308677638 0 0 0
255       25   2    0.1111729000000000   12.1314675828409406  29.0485823146449995 -31.2828825952583287 0 0 0
256       25   3   -0.2186791000000000   12.7631384819957496  31.7766065014776515 -30.4625340260409700 0 0 0
257       25   2    0.1111729000000000   11.8744676566118006  31.7434324669736831 -31.1263970185673919 0 0 0
258       25   2    0.1111729000000000   13.1943724134506493  32.7980412077296748 -30.5062372184390753 0 0 0
259       25   2    0.1111729000000000   12.4469690064335197  31.5623101914542978 -29.4191267263573408 0 0 0
260       25   4   -0.3848131000000000   14.7631938089355330  30.5728331873543020 -29.7172175177813962 0 0 0
261       26   3   -0.2186791000000000  -12.8714659011020167 -14.3780030869090805  21.5423984814542173 0 0 0
262       26   1    0.1551339000000000  -12.3081691658721670 -13.0094860024697496  22.6109427991018563 0 0 0
263       26   2    0.1111729000000000  -13.9693943463076558 -14.3467195618675127  21.3746502028660714 0 0 0
264       26   2    0.1111729000000000  -12.6069194148371153 -15.3438374863951026  22.0202955317426401 0 0 0
265       26   2    0.1111729000000000  -12.3517195439991649 -14.3180823805702921  20.5637034455363938 0 0 0
266       26   3   -0.2186791000000000  -13.1063380067682616 -11.7034310577978715  21.6164357475830258 0 0 0
267       26   2    0.1111729000000000  -12.5886458318875647 -11.6178943256143832  20.6385662753043064 0 0 0
268       26   2    0.1111729000000000  -13.0120079421691308 -10.7340546260693781  22.1480490509549881 0 0 0
269       26   2    0.1111729000000000  -14.1827747538302287 -11.9163485120508614  21.4416932912391864 0 0 0
270       26   4   -0.3848131000000000  -13.5118468033720660 -13.1414246704011486  23.5587346911262365 0 0 0
271       27   3   -0.2186791000000000   4.6048468611326570   23.0785294742345819 -30.5589631206599996 0 0 0