LAMMPS data file via vdw_self_gen.py, on 2021-08-05 13:22:51.314398

2500 atoms
3 atom types
2000 bonds
2 bond types
3000 angles
3 angle types

-32.0321699552541617  32.0321699552541617 xlo xhi
-32.0321699552541617  32.0321699552541617 ylo yhi
-32.0321699552541617  32.0321699552541617 zlo zhi

Masses

1  1.007940
2  79.904000
3  12.011000

Atoms

1         0    2   -0.1475638000000000   2.6452460579820745   9.8688439261798191   4.9394992744568826  0 0 0
2         0    3    0.2754312000000000   3.5830893063702227   10.5875022640009071  3.4091436291466173  0 0 0
3         0    2   -0.1475638000000000   4.2327631514207349   12.3876860233751440  3.6834984797370969  0 0 0
4         0    1    0.0098482000000000   2.8947983541430324   10.5989667817052844  2.5621796715805392  0 0 0
5         0    1    0.0098482000000000   4.4397531052251340   9.9439509301624600   3.2013289202200639  0 0 0
6         1    2   -0.1475638000000000   16.3925045091076562 -11.6565354201616866  17.1124172582215230 0 0 0
7         1    3    0.2754312000000000   17.9449796224312799 -10.7613775081849088  17.8380352715978319 0 0 0
8         1    2   -0.1475638000000000   17.7006475268308954 -8.8556588031813686   18.0537811891934048 0 0 0
9         1    1    0.0098482000000000   18.7813390744396251 -10.9226354321956372  17.1555965824249164 0 0 0
10        1    1    0.0098482000000000   18.1587791428965524 -11.1907427617000046  18.8184195742683400 0 0 0
11        2    2   -0.1475638000000000  -2.8547988485722842   24.3118370690112577 -19.3880619165564063 0 0 0
12        2    3    0.2754312000000000  -3.7271319137975074   24.8756899536257556 -17.7573831885334137 0 0 0
13        2    2   -0.1475638000000000  -2.5780553820057031   25.8995294627252193 -16.5871763520330084 0 0 0
14        2    1    0.0098482000000000  -4.0535832128887161   23.9838284577359104 -17.2195761255723667 0 0 0
15        2    1    0.0098482000000000  -4.5820806178769882   25.4986648828902709 -18.0260522930108209 0 0 0
16        3    2   -0.1475638000000000   11.8484400342775125  25.8110417265487371 -4.6628266528163884  0 0 0
17        3    3    0.2754312000000000   10.7120841529364945  24.9071850483361068 -3.3862113691885756  0 0 0
18        3    2   -0.1475638000000000   9.1583237819495587   24.0841299873676178 -4.1902121979597240  0 0 0
19        3    1    0.0098482000000000   10.3689433493494700  25.6417038819689722 -2.6554855057813311  0 0 0
20        3    1    0.0098482000000000   11.2991586069105825  24.1254891817669730 -2.9009142493951829  0 0 0
21        4    2   -0.1475638000000000  -10.7450010560029607 -26.0014853505227386 -2.0735464559176462  0 0 0
22        4    3    0.2754312000000000  -10.6999710854957222 -24.9864419671401699 -3.7184377586508681  0 0 0
23        4    2   -0.1475638000000000  -10.3831170048404910 -23.0986737180249158 -3.4465135307776298  0 0 0
24        4    1    0.0098482000000000  -11.6641819812578387 -25.1018746228305254 -4.2166309601238350  0 0 0
25        4    1    0.0098482000000000  -9.8946787978265895  -25.3810741674700644 -4.3405212696712177  0 0 0
26        5    2   -0.1475638000000000  -18.3955983277880826  16.0603763048027375  24.7614724680442997 0 0 0
27        5    3    0.2754312000000000  -17.6454331096740304  17.8408646363296661  24.8330379138150796 0 0 0
28        5    2   -0.1475638000000000  -18.7026562065190838  19.0773080370177972  25.8777844366100247 0 0 0
29        5    1    0.0098482000000000  -17.5809042848134602  18.2247208650368222  23.8133741251352866 0 0 0
30        5    1    0.0098482000000000  -16.6536579469113555  17.7749800325189860  25.2838808823837198 0 0 0
31        6    2   -0.1475638000000000  -5.1317288768148170   25.7564841254597496  17.3359201971038246 0 0 0
32        6    3    0.2754312000000000  -3.4983440072850422   24.7850676968402617  17.6914650696577382 0 0 0
33        6    2   -0.1475638000000000  -2.5963978866390982   25.3638310542949199  19.3006681109236773 0 0 0
34        6    1    0.0098482000000000  -2.8217100380971223   24.9359817137268784  16.8484850896177925 0 0 0
35        6    1    0.0098482000000000  -3.7474691663051223   23.7281852356666008  17.8017114084029799 0 0 0
36        7    2   -0.1475638000000000  -3.7417453142868080  -11.9040647174565155  9.3149397388427921  0 0 0
37        7    3    0.2754312000000000  -3.6762768864513498  -10.6791770195661382  10.8093868535690341 0 0 0
38        7    2   -0.1475638000000000  -2.2013258252276180  -9.4326922307430792   10.7155609790581838 0 0 0
39        7    1    0.0098482000000000  -3.5706139619934523  -11.2638965402958178  11.7248988654905908 0 0 0
40        7    1    0.0098482000000000  -4.6056879871819714  -10.1071194173620551  10.8221634884630102 0 0 0
41        8    2   -0.1475638000000000  -23.0943097672184194  3.2899773768967999   3.6638291593937504  0 0 0
42        8    3    0.2754312000000000  -24.9886358137437306  3.6766597150619238   3.6675392816225019  0 0 0
43        8    2   -0.1475638000000000  -25.9838778306220526  2.6491015502813768   2.3669141233494471  0 0 0
44        8    1    0.0098482000000000  -25.1207463878319466  4.7356037932045432   3.4386112337979537  0 0 0
45        8    1    0.0098482000000000  -25.3819800265722542  3.4443075396965530   4.6587561769775476  0 0 0
46        9    2   -0.1475638000000000   23.3825599383653717  4.1091756334608114   18.6598066844908459 0 0 0
47        9    3    0.2754312000000000   25.0670425567275998  3.5637084594266404   17.8832810656689567 0 0 0
48        9    2   -0.1475638000000000   24.9090224738106798  2.9632579964209915   16.0522985012049375 0 0 0
49        9    1    0.0098482000000000   25.4661004978367345  2.7405853502641380   18.4786338369738310 0 0 0
50        9    1    0.0098482000000000   25.7448243592480175  4.4189225355686217   17.9042297873674450 0 0 0
51        10   2   -0.1475638000000000   9.4807274093123883   18.8193386705807129  11.6336378932797118 0 0 0
52        10   3    0.2754312000000000   10.6202363710590202  17.6466912768146038  10.6019278651261253 0 0 0
53        10   2   -0.1475638000000000   12.4474805215525546  18.2662887781862970  10.4782912715095069 0 0 0
54        10   1    0.0098482000000000   10.2140566949374456  17.5794257873704503  9.5911275682644703  0 0 0
55        10   1    0.0098482000000000   10.6244489285622006  16.6665053627539557  11.0819653272438075 0 0 0
56        11   2   -0.1475638000000000  -4.9810449842930069  -3.4010540169527328   16.6348228235757070 0 0 0
57        11   3    0.2754312000000000  -3.4069212961487629  -3.6246347010668476   17.7348930296599505 0 0 0
58        11   2   -0.1475638000000000  -3.6642406196405366  -3.0601553867738565   19.5660560824744891 0 0 0
59        11   1    0.0098482000000000  -2.6021307884872655  -3.0265609283023323   17.3037969654130528 0 0 0
60        11   1    0.0098482000000000  -3.1413122865716376  -4.6832449420454294   17.7386809745828096 0 0 0
61        12   2   -0.1475638000000000  -23.1744487413318012 -4.1611360923156875   10.5985658970927847 0 0 0
62        12   3    0.2754312000000000  -25.0060000076504139 -3.5850818490734264   10.8256994126497670 0 0 0
63        12   2   -0.1475638000000000  -25.7295556857045433 -2.6968651518382152   9.2682827901597484  0 0 0
64        12   1    0.0098482000000000  -25.0422067824409886 -2.8868626093750169   11.6637941437358386 0 0 0
65        12   1    0.0098482000000000  -25.6173386088606527 -4.4657042725388569   11.0306076817854706 0 0 0
66        13   2   -0.1475638000000000  -24.0853681941964126  4.3740305401430586  -16.3660326967657390 0 0 0
67        13   3    0.2754312000000000  -24.8156383850231954  3.5094276933096618  -17.9335707447369543 0 0 0
68        13   2   -0.1475638000000000  -26.7283736538499355  3.2429571778047817  -17.8416712765509367 0 0 0
69        13   1    0.0098482000000000  -24.3400135911374598  2.5325034169600054  -18.0366427061030166 0 0 0
70        13   1    0.0098482000000000  -24.6001560017814072  4.1367311469236983  -18.8003324515493588 0 0 0
71        14   2   -0.1475638000000000  -23.8660709269801430  5.0604860665076821   10.4716882010108563 0 0 0
72        14   3    0.2754312000000000  -24.8749232518018459  3.4455680799543456   10.8067479712136816 0 0 0
73        14   2   -0.1475638000000000  -26.3528178661037877  3.1969833004524375   9.5852565169180313  0 0 0
74        14   1    0.0098482000000000  -25.2758453445975384  3.4983592715246674   11.8205025673072832 0 0 0
75        14   1    0.0098482000000000  -24.1998924365050918  2.5942532567020731   10.7027546689737569 0 0 0
76        15   2   -0.1475638000000000  -2.9016403748234376  -26.6190853338938389  25.1472215351355644 0 0 0
77        15   3    0.2754312000000000  -3.7165534801945697  -24.8735555201513918  24.9827512757248051 0 0 0
78        15   2   -0.1475638000000000  -2.6373578885492122  -23.6135958192378794  23.9898531522765026 0 0 0
79        15   1    0.0098482000000000  -3.8707339386603601  -24.4734934159997088  25.9864457085822345 0 0 0
80        15   1    0.0098482000000000  -4.6693642929136141  -24.9898197367055950  24.4632781542693003 0 0 0
81        16   2   -0.1475638000000000  -5.3472771036697155  -10.8158818493203750 -17.3741053763741533 0 0 0
82        16   3    0.2754312000000000  -3.5103202101035289  -10.5644179770677749 -17.9221596239914867 0 0 0
83        16   2   -0.1475638000000000  -2.2606476299057299  -11.6723566998500612 -16.9480967485253622 0 0 0
84        16   1    0.0098482000000000  -3.2439153478733291  -9.5197447990669364  -17.7521295794530900 0 0 0
85        16   1    0.0098482000000000  -3.4334896835888991  -10.8145486001184636 -18.9817585473619168 0 0 0
86        17   2   -0.1475638000000000   10.4602958568432989 -25.2783457241173828 -12.4702666245821874 0 0 0
87        17   3    0.2754312000000000   10.6016253347174114 -24.7692331829690922 -10.6104713225853882 0 0 0
88        17   2   -0.1475638000000000   11.6546834374985462 -26.0008506675190283 -9.5558646374093996  0 0 0
89        17   1    0.0098482000000000   9.5953234754154675  -24.7340613131020532 -10.1893498163244267 0 0 0
90        17   1    0.0098482000000000   11.0750218209488942 -23.7870589382808575 -10.5609975245222092 0 0 0
91        18   2   -0.1475638000000000  -2.7013698595067543   12.0032195273585973 -18.7447408570360921 0 0 0
92        18   3    0.2754312000000000  -3.7309340056413043   10.6962658730311126 -17.7599170247522302 0 0 0
93        18   2   -0.1475638000000000  -2.6932789317369048   9.1622299135985674  -17.2049270435198416 0 0 0
94        18   1    0.0098482000000000  -4.5405183154333857   10.3456916303695579 -18.4024859013878412 0 0 0
95        18   1    0.0098482000000000  -4.1295488628228432   11.1795429810657811 -16.8661790490100074 0 0 0
96        19   2   -0.1475638000000000   4.7884427564706318   16.8241625346893713 -9.7081881408070512  0 0 0
97        19   3    0.2754312000000000   3.5644353151701638   17.7873979926858752 -10.8536100728038800 0 0 0
98        19   2   -0.1475638000000000   2.2766524089787170   18.8500317465972174 -9.8787085659482372  0 0 0
99        19   1    0.0098482000000000   3.0188379123113833   17.0601061267631380 -11.4574261302720224 0 0 0
100       19   1    0.0098482000000000   4.1472815822103062   18.4565514749704143 -11.4890170155924096 0 0 0
101       20   2   -0.1475638000000000   16.5064178686207619  4.6025343673118231  -25.7161180546410471 0 0 0
102       20   3    0.2754312000000000   17.8550479213474311  3.4167964645780513  -24.9997167892157428 0 0 0
103       20   2   -0.1475638000000000   18.4889125963526944  3.9435812887953228  -23.2507966711843750 0 0 0
104       20   1    0.0098482000000000   18.7053181846929419  3.4147587833520676  -25.6840121513405890 0 0 0
105       20   1    0.0098482000000000   17.4225533046921797  2.4179790711039351  -24.9189061596066495 0 0 0
106       21   2   -0.1475638000000000  -12.1826464162990682 -18.8572816527060283  24.8752941027736796 0 0 0
107       21   3    0.2754312000000000  -10.6371621572301027 -17.7109433914695096  25.0634301227041831 0 0 0
108       21   2   -0.1475638000000000  -9.5757585514260679  -17.5837132155446554  23.4524542928357391 0 0 0
109       21   1    0.0098482000000000  -10.0062019138139462 -18.1169141503665898  25.8560843535316920 0 0 0
110       21   1    0.0098482000000000  -10.9851808866544207 -16.7093974656192259  25.3222869541431095 0 0 0
111       22   2   -0.1475638000000000   10.2688796868884040  2.3986065950837752  -23.5425403207177908 0 0 0
112       22   3    0.2754312000000000   10.5517620886758010  3.6680539102547862  -24.9730958865606958 0 0 0
113       22   2   -0.1475638000000000   12.3462121305152195  3.6268243032839989  -25.6916064455308089 0 0 0
114       22   1    0.0098482000000000   10.3641795042469376  4.6695997530242606  -24.5820172316200711 0 0 0
115       22   1    0.0098482000000000   9.8559165150972579   3.4325654134943742  -25.7802899415590510 0 0 0
116       23   2   -0.1475638000000000  -4.0007880095562935  -8.9307388491724318  -10.2920356871049901 0 0 0
117       23   3    0.2754312000000000  -3.5945983569129822  -10.8022112362244442 -10.5577596732021277 0 0 0
118       23   2   -0.1475638000000000  -2.7615259717002107  -11.1717996795424508 -12.2628705317863069 0 0 0
119       23   1    0.0098482000000000  -4.5286703050295767  -11.3643841706021096 -10.5058462539844317 0 0 0
120       23   1    0.0098482000000000  -2.9100673319421269  -11.1178159898821711 -9.7684377793457529  0 0 0
121       24   2   -0.1475638000000000   11.5979629367939054 -24.7701329639000676  1.9697201857495521  0 0 0
122       24   3    0.2754312000000000   10.5043637532228527 -24.8791228439893857  3.5603710581696588  0 0 0
123       24   2   -0.1475638000000000   11.4926849255422798 -25.4065680015384565  5.1361347214844297  0 0 0
124       24   1    0.0098482000000000   9.7214062161565149  -25.6191591124307827  3.3855922492643864  0 0 0
125       24   1    0.0098482000000000   10.0705320937080671 -23.8945669041297144  3.7438317604731797  0 0 0
126       25   2   -0.1475638000000000  -10.8218825688055524  2.6871199391977036   5.1756293866557499  0 0 0
127       25   3    0.2754312000000000  -10.7767966896568215  3.7021773502080109   3.5307482717862153  0 0 0
128       25   2   -0.1475638000000000  -9.5357024876867307   2.9959829060233885   2.2272979101157024  0 0 0
129       25   1    0.0098482000000000  -10.4760966795780117  4.7239668535514570   3.7689698709239843  0 0 0
130       25   1    0.0098482000000000  -11.7764714996964912  3.6864029261606324   3.0930045356595395  0 0 0
131       26   2   -0.1475638000000000   18.8960459109245598  11.2957199445199308 -26.2559780607607678 0 0 0
132       26   3    0.2754312000000000   17.8672617901318311  10.6351510250913037 -24.7582263785084571 0 0 0
133       26   2   -0.1475638000000000   15.9768226032086353  10.4826928728684621 -25.1337319695000652 0 0 0
134       26   1    0.0098482000000000   17.9943867619086149  11.3286828550060701 -23.9251137462996866 0 0 0
135       26   1    0.0098482000000000   18.2437328095323679  9.6447032279378391  -24.4964996709194374 0 0 0
136       27   2   -0.1475638000000000  -11.1621321814415193  18.8465143761661089 -26.3474576417964599 0 0 0
137       27   3    0.2754312000000000  -10.7943745959856852  17.7697880681278093 -24.7843124207379972 0 0 0
138       27   2   -0.1475638000000000  -9.0189705078716429   17.0043250264164527 -24.7804507912976817 0 0 0
139       27   1    0.0098482000000000  -11.5177206080844883  16.9529959899020923 -24.7552424494880547 0 0 0
140       27   1    0.0098482000000000  -10.8937520320402630  18.4046264150935492 -23.9020865226682098 0 0 0
141       28   2   -0.1475638000000000  -23.6109176239351797  9.4607862402059340   17.3304229188448495 0 0 0
142       28   3    0.2754312000000000  -24.9156858175653291  10.8345943676100447  17.7154415627694348 0 0 0
143       28   2   -0.1475638000000000  -26.1990310652153369  10.3169284819994314  19.0656471999629353 0 0 0
144       28   1    0.0098482000000000  -25.4594906257440705  11.0555989257885088  16.7953018280736508 0 0 0
145       28   1    0.0098482000000000  -24.3844246935284943  11.7190419098197012  18.0714363660551527 0 0 0
146       29   2   -0.1475638000000000   1.9113504508813892   17.8607963314845328 -24.0923696719080667 0 0 0
147       29   3    0.2754312000000000   3.5661335799013223   17.7655113341667068 -25.0876694917599252 0 0 0
148       29   2   -0.1475638000000000   5.1366751666895407   18.0327438867000822 -23.9922270498510741 0 0 0
149       29   1    0.0098482000000000   3.5484605987065665   18.5429720709622359 -25.8534803587349558 0 0 0
150       29   1    0.0098482000000000   3.6330301789623878   16.7762262523924441 -25.5438032537343851 0 0 0
151       30   2   -0.1475638000000000   3.9513914285521055   23.9103839357063102 -23.4194480542561259 0 0 0
152       30   3    0.2754312000000000   3.3915976750823167   24.9614725538643754 -24.9425540376186667 0 0 0
153       30   2   -0.1475638000000000   4.8475850858919891   25.4401837865318292 -26.1210889211845867 0 0 0
154       30   1    0.0098482000000000   2.9359224086350788   25.8816655595687450 -24.5726504024635126 0 0 0
155       30   1    0.0098482000000000   2.6691533769797102   24.3758439903171436 -25.5138084104655256 0 0 0
156       31   2   -0.1475638000000000  -10.5794578751274333  11.9782665907159043  4.8600832171360970  0 0 0
157       31   3    0.2754312000000000  -10.6975703940312350  10.7269808125040775  3.3909537128639164  0 0 0
158       31   2   -0.1475638000000000  -10.5729877232556913  8.8789800437746216   3.9453728444040892  0 0 0
159       31   1    0.0098482000000000  -9.8765107365938007   10.9321077357085574  2.7017456167090708  0 0 0
160       31   1    0.0098482000000000  -11.6604231964154543  10.8706147427204503  2.8974945840280282  0 0 0
161       32   2   -0.1475638000000000   16.3131251863813276  11.7433606725128907  10.9226993236929744 0 0 0
162       32   3    0.2754312000000000   17.7923020371636404  10.5119952572245587  10.7388971900233265 0 0 0
163       32   2   -0.1475638000000000   19.3118276334175611  11.2707383390466571  9.8151227832462915  0 0 0
164       32   1    0.0098482000000000   17.4463568071204271  9.6459892442025978   10.1718175671129671 0 0 0
165       32   1    0.0098482000000000   18.1146382116230633  10.2148664124369155  11.7384130613480622 0 0 0
166       33   2   -0.1475638000000000   26.4572489001579427 -24.0430677437267519 -4.0632020975010077  0 0 0
167       33   3    0.2754312000000000   24.7856942118586119 -24.8209897070106607 -3.4811793236638997  0 0 0
168       33   2   -0.1475638000000000   24.6569022188408908 -26.7169945521311014 -3.8369692986692954  0 0 0
169       33   1    0.0098482000000000   23.9736941834308155 -24.3190325441697226 -4.0102528308497414  0 0 0
170       33   1    0.0098482000000000   24.6960103117001530 -24.6694652789501809 -2.4040464244572459  0 0 0
171       34   2   -0.1475638000000000  -11.7959704377547716 -23.6835375705305964 -17.0023584343457230 0 0 0
172       34   3    0.2754312000000000  -10.5365184818403836 -24.8555370749683213 -17.8845183396583387 0 0 0
173       34   2   -0.1475638000000000  -10.9721305872909358 -26.7299098747120958 -17.6974970636878624 0 0 0
174       34   1    0.0098482000000000  -9.5511662179673067  -24.6892152262235207 -17.4456085833184886 0 0 0
175       34   1    0.0098482000000000  -10.5311642005702151 -24.6113500795538833 -18.9482674546956069 0 0 0
176       35   2   -0.1475638000000000  -17.0841875004263670 -18.9228891517185147 -16.5238390956414349 0 0 0
177       35   3    0.2754312000000000  -17.7272615418033439 -17.7974304602621523 -17.9583448214342738 0 0 0
178       35   2   -0.1475638000000000  -19.1931382844044336 -16.6504467064405119 -17.4352368971295064 0 0 0
179       35   1    0.0098482000000000  -18.0714407251493583 -18.4420075769758256 -18.7690758778644273 0 0 0
180       35   1    0.0098482000000000  -16.9022218239225133 -17.1654759803089974 -18.2917531836363629 0 0 0
181       36   2   -0.1475638000000000   3.0089062990198485  -23.5992757424848882  16.6280281732827291 0 0 0
182       36   3    0.2754312000000000   3.6981391602083442  -25.0134614025298809  17.7518809875698373 0 0 0
183       36   2   -0.1475638000000000   2.7147008430110766  -25.2299083359747200  19.4023379115065211 0 0 0
184       36   1    0.0098482000000000   4.7340241535703775  -24.7765627145228962  18.0009695413973958 0 0 0
185       36   1    0.0098482000000000   3.6398795193315410  -25.9503416304760250  17.1950332619495292 0 0 0
186       37   2   -0.1475638000000000  -5.1929995036096965   25.3990248788345134 -2.8594987515528274  0 0 0
187       37   3    0.2754312000000000  -3.4775760980304473   25.0252061179803462 -3.6691840236335111  0 0 0
188       37   2   -0.1475638000000000  -2.7434702725013489   23.3121761794736280 -3.1547665635838711  0 0 0
189       37   1    0.0098482000000000  -2.7775571851061178   25.8029931340477070 -3.3589507328904520  0 0 0
190       37   1    0.0098482000000000  -3.6040469158935946   25.0301495156522051 -4.7532499034805369  0 0 0
191       38   2   -0.1475638000000000   16.9433882050183975  18.2461766253079425 -1.9890900146364314  0 0 0
192       38   3    0.2754312000000000   17.7117895631895621  17.6914397503672234 -3.6742708709666170  0 0 0
193       38   2   -0.1475638000000000   19.4892863965253760  18.3904907936751201 -3.9740055917303412  0 0 0
194       38   1    0.0098482000000000   17.0651469697479286  18.0486324935285616 -4.4776951151116116  0 0 0
195       38   1    0.0098482000000000   17.7686387412247555  16.6015102128271650 -3.6805883826961887  0 0 0
196       39   2   -0.1475638000000000  -10.5004727871550756  26.0029881708890045 -19.2711020734205505 0 0 0
197       39   3    0.2754312000000000  -10.7259033938068704  24.7459099296738465 -17.8195706396417179 0 0 0
198       39   2   -0.1475638000000000  -10.3677238162379606  25.5102815918588881 -16.0801881030037741 0 0 0
199       39   1    0.0098482000000000  -10.0339376353665060  23.9165692706584387 -17.9764185785824040 0 0 0
200       39   1    0.0098482000000000  -11.7589122928571967  24.3938008629082468 -17.8309704810575660 0 0 0
201       40   2   -0.1475638000000000  -9.5915726726191046  -18.3459853341484731  12.0603150314731096 0 0 0
202       40   3    0.2754312000000000  -10.8492973538599156 -17.7712825908872247  10.7090735470278915 0 0 0
203       40   2   -0.1475638000000000  -10.0386119214501814 -17.4898850131783092  8.9765572298065468  0 0 0
204       40   1    0.0098482000000000  -11.2926570260492003 -16.8287241314938107  11.0350176637137540 0 0 0
205       40   1    0.0098482000000000  -11.6148109514451896 -18.5423728059982054  10.6059864534023109 0 0 0
206       41   2   -0.1475638000000000  -24.3940608026084327 -19.0366830126195694 -11.9359382659998836 0 0 0
207       41   3    0.2754312000000000  -24.8663368057653145 -17.8203457087661050 -10.5092332837780269 0 0 0
208       41   2   -0.1475638000000000  -25.9111381632947442 -16.3069072752059121 -11.1058089182348301 0 0 0
209       41   1    0.0098482000000000  -23.9441333525408986 -17.4433738513052923 -10.0635239333673496 0 0 0
210       41   1    0.0098482000000000  -25.4538807017790276 -18.3709400278091373 -9.7724455240435297  0 0 0
211       42   2   -0.1475638000000000  -4.1194253604041622   12.3383156215039715 -4.1263557535896904  0 0 0
212       42   3    0.2754312000000000  -3.4769351264015813   10.6641891118875360 -3.4035038356903042  0 0 0
213       42   2   -0.1475638000000000  -3.8233262107886095   9.1488948451181713  -4.5532450058034222  0 0 0
214       42   1    0.0098482000000000  -3.9782794563190649   10.4900003550048453 -2.4498078907816279  0 0 0
215       42   1    0.0098482000000000  -2.3976838212277833   10.7455499919090975 -3.2627374892761707  0 0 0
216       43   2   -0.1475638000000000   5.3639130186815702   3.9259974204233927   17.7454856744014116 0 0 0
217       43   3    0.2754312000000000   3.4495088707836601   3.6594716134938436   17.7004421515390646 0 0 0
218       43   2   -0.1475638000000000   2.8540654420352451   2.1856728545875512   18.8010658828417334 0 0 0
219       43   1    0.0098482000000000   3.1582317866922205   3.4538662106907982   16.6688860967745214 0 0 0
220       43   1    0.0098482000000000   2.9699308569485168   4.5706418759456104   18.0623700701492922 0 0 0
221       44   2   -0.1475638000000000   10.1080830179842582 -11.9865383054713490  2.3944969284395481  0 0 0
222       44   3    0.2754312000000000   10.8126281615979885 -10.7127118738869278  3.6668925151213112  0 0 0
223       44   2   -0.1475638000000000   9.8898725724045669  -9.0139041491015792   3.6427534736752429  0 0 0
224       44   1    0.0098482000000000   11.8618173704978318 -10.5341099459648433  3.4249686205374195  0 0 0
225       44   1    0.0098482000000000   10.7145488029389533 -11.1396856509989117  4.6665384373676693  0 0 0
226       45   2   -0.1475638000000000   16.4750559710442168 -26.1751407329965993 -25.1582015001563839 0 0 0
227       45   3    0.2754312000000000   17.8594416542911567 -24.8882998735103982 -24.7513538031274720 0 0 0
228       45   2   -0.1475638000000000   18.4761976392566716 -23.9095062177574498 -26.3004126435099188 0 0 0
229       45   1    0.0098482000000000   18.7095795745973419 -25.4251153760613455 -24.3267146054802836 0 0 0
230       45   1    0.0098482000000000   17.4579750365166078 -24.1714876256626212 -24.0328672737143627 0 0 0
231       46   2   -0.1475638000000000  -3.1494349670648565   5.0913271442215571  -16.8581683446982424 0 0 0
232       46   3    0.2754312000000000  -3.4553752499253267   3.5118310418982355  -17.9303627171273767 0 0 0
233       46   2   -0.1475638000000000  -5.0098017455021351   2.5014960755214855  -17.3817373603808001 0 0 0
234       46   1    0.0098482000000000  -2.5803285854043483   2.8654732836240004  -17.8423922747650963 0 0 0
235       46   1    0.0098482000000000  -3.6007094272445412   3.8255224298759374  -18.9655891787344899 0 0 0
236       47   2   -0.1475638000000000   12.2222811469133532  18.1406853072040875 -2.6164678895609215  0 0 0
237       47   3    0.2754312000000000   10.6905346899193230  17.7411378144526601 -3.7264781411902934  0 0 0
238       47   2   -0.1475638000000000   9.0006032708960859   17.9976096945308264 -2.8229504823843827  0 0 0
239       47   1    0.0098482000000000   10.7567306652125936  16.6964222912662912 -4.0353654733494562  0 0 0
240       47   1    0.0098482000000000   10.7168001524822660  18.4023947682521580 -4.5943879886561332  0 0 0
241       48   2   -0.1475638000000000   4.5333242940745109   4.2222513108749133  -9.2612100828379909  0 0 0
242       48   3    0.2754312000000000   3.6057970393079315   3.4038578970440501  -10.7471217821201037 0 0 0
243       48   2   -0.1475638000000000   2.1168173894701328   4.4537981864053853  -11.3940941521984200 0 0 0
244       48   1    0.0098482000000000   3.2230601642881500   2.4359825571970539  -10.4185588102012439 0 0 0
245       48   1    0.0098482000000000   4.3166510880004791   3.2797600236198114  -11.5659650980658402 0 0 0
246       49   2   -0.1475638000000000  -26.7023610132491882 -24.6134781549508119 -18.1205091807477139 0 0 0
247       49   3    0.2754312000000000  -24.8419331627821478 -24.8470091639176722 -17.6490437554432447 0 0 0
248       49   2   -0.1475638000000000  -23.8475019593926483 -25.8854149778525873 -18.9416489557312104 0 0 0
249       49   1    0.0098482000000000  -24.7959844244025440 -25.3637829816081322 -16.6888055817118790 0 0 0
250       49   1    0.0098482000000000  -24.3817692661618928 -23.8598645476592068 -17.5782424020719787 0 0 0
251       50   2   -0.1475638000000000   10.7031066576009337 -2.8748689841024579  -19.5060521059378047 0 0 0
252       50   3    0.2754312000000000   10.7756165845046183 -3.4810039532679879  -17.6715628375431528 0 0 0
253       50   2   -0.1475638000000000   9.6663243452604117  -5.0272596588629987  -17.3301360117554566 0 0 0
254       50   1    0.0098482000000000   10.4328334871620179 -2.6673021117101898  -17.0299922048598447 0 0 0
255       50   1    0.0098482000000000   11.8090688508956312 -3.7452152671975703  -17.4405067156097680 0 0 0
256       51   2   -0.1475638000000000   12.3819675178893327 -10.9688199167800917  10.0419106723436862 0 0 0
257       51   3    0.2754312000000000   10.5414735275371481 -10.6930947158441292  10.5659007974856944 0 0 0
258       51   2   -0.1475638000000000   10.3363581483857345 -10.2282831165749002  12.4313460834483696 0 0 0
259       51   1    0.0098482000000000   9.9927420490571688  -11.6186516299329181  10.3829746407786416 0 0 0
260       51   1    0.0098482000000000   10.1344086825542465 -9.8781005462915630   9.9648177313672246  0 0 0
261       52   2   -0.1475638000000000  -9.4024721345170708   17.3342378808670716 -2.3117193645967196  0 0 0
262       52   3    0.2754312000000000  -10.6570635539317546  17.9458074666552392 -3.6496248837833174  0 0 0
263       52   2   -0.1475638000000000  -12.1563086096196411  16.7506985068604273 -3.8985969579474649  0 0 0
264       52   1    0.0098482000000000  -10.1273197219096431  18.0305876951293662 -4.6001024483761919  0 0 0
265       52   1    0.0098482000000000  -11.0437859054454943  18.9169183261939011 -3.3356063204374911  0 0 0
266       53   2   -0.1475638000000000   23.7956945913070328 -3.5316319738183681   26.3778731354230054 0 0 0
267       53   3    0.2754312000000000   24.9543725511243153 -3.4064226345032549   24.8352143354993302 0 0 0
268       53   2   -0.1475638000000000   25.6261099830573613 -5.1186516112904474   24.2393544441739550 0 0 0
269       53   1    0.0098482000000000   25.8073736734681489 -2.7790032731200878   25.0997097905485589 0 0 0
270       53   1    0.0098482000000000   24.3859990270315379 -2.9599404824090492   24.0173981203435716 0 0 0
271       54   2   -0.1475638000000000  -4.6754811904282843  -24.3672291330856758 -12.0372613038800917 0 0 0
272       54   3    0.2754312000000000  -3.4105263846780698  -24.8233201363859486 -10.6480606335959145 0 0 0