
                                 *****************
                                 * O   R   C   A *
                                 *****************

           --- An Ab Initio, DFT and Semiempirical electronic structure package ---

                  #######################################################
                  #                        -***-                        #
                  #          Department of theory and spectroscopy      #
                  #               Directorship: Frank Neese             #
                  #        Max Planck Institute fuer Kohlenforschung    #
                  #                Kaiser Wilhelm Platz 1               #
                  #                 D-45470 Muelheim/Ruhr               #
                  #                      Germany                        #
                  #                                                     #
                  #                  All rights reserved                #
                  #                        -***-                        #
                  #######################################################


                         Program Version 4.1.2  - RELEASE  -


 With contributions from (in alphabetic order):
   Daniel Aravena         : Magnetic Properties
   Michael Atanasov       : Ab Initio Ligand Field Theory
   Alexander A. Auer      : GIAO ZORA
   Ute Becker             : Parallelization
   Giovanni Bistoni       : ED, Open-shell LED
   Martin Brehm           : Molecular dynamics
   Dmytro Bykov           : SCF Hessian
   Vijay G. Chilkuri      : MRCI spin determinant printing
   Dipayan Datta          : RHF DLPNO-CCSD density
   Achintya Kumar Dutta   : EOM-CC, STEOM-CC
   Dmitry Ganyushin       : Spin-Orbit,Spin-Spin,Magnetic field MRCI
   Miquel Garcia          : C-PCM Hessian
   Yang Guo               : DLPNO-NEVPT2, CIM, IAO-localization
   Andreas Hansen         : Spin unrestricted coupled pair/coupled cluster methods
   Benjamin Helmich-Paris : CASSCF linear response (MC-RPA)
   Lee Huntington         : MR-EOM, pCC
   Robert Izsak           : Overlap fitted RIJCOSX, COSX-SCS-MP3, EOM
   Christian Kollmar      : KDIIS, OOCD, Brueckner-CCSD(T), CCSD density
   Simone Kossmann        : Meta GGA functionals, TD-DFT gradient, OOMP2, MP2 Hessian
   Martin Krupicka        : AUTO-CI
   Lucas Lang             : DCDCAS
   Dagmar Lenk            : GEPOL surface, SMD
   Dimitrios Liakos       : Extrapolation schemes; parallel MDCI
   Dimitrios Manganas     : ROCIS; embedding schemes
   Dimitrios Pantazis     : SARC Basis sets
   Taras Petrenko         : DFT Hessian,TD-DFT gradient, ASA, ECA, R-Raman, ABS, FL, XAS/XES, NRVS
   Peter Pinski           : DLPNO-MP2, DLPNO-MP2 Gradient
   Christoph Reimann      : Effective Core Potentials
   Marius Retegan         : Local ZFS, SOC
   Christoph Riplinger    : Optimizer, TS searches, QM/MM, DLPNO-CCSD(T), (RO)-DLPNO pert. Triples
   Tobias Risthaus        : Range-separated hybrids, TD-DFT gradient, RPA, STAB
   Michael Roemelt        : Restricted open shell CIS
   Masaaki Saitow         : Open-shell DLPNO
   Barbara Sandhoefer     : DKH picture change effects
   Avijit Sen             : IP-ROCIS
   Kantharuban Sivalingam : CASSCF convergence, NEVPT2, FIC-MRCI
   Bernardo de Souza      : ESD, SOC TD-DFT
   Georgi Stoychev        : AutoAux, RI-MP2 NMR
   Willem Van den Heuvel  : Paramagnetic NMR
   Boris Wezisla          : Elementary symmetry handling
   Frank Wennmohs         : Technical directorship


 We gratefully acknowledge several colleagues who have allowed us to
 interface, adapt or use parts of their codes:
   Stefan Grimme, W. Hujo, H. Kruse,             : VdW corrections, initial TS optimization,
                  C. Bannwarth                     DFT functionals, gCP, sTDA/sTD-DF
   Ed Valeev                                     : LibInt (2-el integral package), F12 methods
   Garnet Chan, S. Sharma, J. Yang, R. Olivares  : DMRG
   Ulf Ekstrom                                   : XCFun DFT Library
   Mihaly Kallay                                 : mrcc  (arbitrary order and MRCC methods)
   Andreas Klamt, Michael Diedenhofen            : otool_cosmo (COSMO solvation model)
   Jiri Pittner, Ondrej Demel                    : Mk-CCSD
   Frank Weinhold                                : gennbo (NPA and NBO analysis)
   Christopher J. Cramer and Donald G. Truhlar   : smd solvation model
   Lars Goerigk                                  : TD-DFT with DH, B97 family of functionals
   V. Asgeirsson, H. Jonsson                     : NEB implementation
   FAccTs GmbH                                   : IRC, NEB, NEB-TS, Multilevel


 Your calculation uses the libint2 library for the computation of 2-el integrals
 For citations please refer to: http://libint.valeyev.net

 This ORCA versions uses:
   CBLAS   interface :  Fast vector & matrix operations
   LAPACKE interface :  Fast linear algebra routines
   SCALAPACK package :  Parallel linear algebra routines


Your calculation utilizes the atom-pairwise dispersion correction
with the zero-damping scheme (D30)
Cite in your paper:
S.Grimme, J.Antony, S.Ehrlich and H.Krieg, J.Chem.Phys., 132, (2010), 154104 
   

XCFun DFT library Copyright 2009-2010 Ulf Ekstrom and contributors.
See http://admol.org/xcfun for more information. This is free soft-
ware; see the source code for copying conditions. There is ABSOLUTELY
NO WARRANTY; not even for MERCHANTABILITY or FITNESS FOR A PARTICULAR
PURPOSE. For details see the documentation. Scientific users of this 
library should cite U. Ekstrom, L. Visscher, R. Bast, A. J. Thorvald-
sen and K. Ruud; J.Chem.Theor.Comp. 2010, DOI: 10.1021/ct100117s
XCFun Version 0.99 
----- Orbital basis set information -----
Your calculation utilizes the basis: def2-TZVP
   F. Weigend and R. Ahlrichs, Phys. Chem. Chem. Phys. 7, 3297 (2005).

================================================================================
                                        WARNINGS
                       Please study these warnings very carefully!
================================================================================


INFO   : the flag for use of LIBINT has been found!

Your calculation utilizes the atom-pairwise dispersion correction
with the zero-damping scheme (D30)
Cite in your paper:
S.Grimme, J.Antony, S.Ehrlich and H.Krieg, J.Chem.Phys., 132, (2010), 154104 
   

XCFun DFT library Copyright 2009-2010 Ulf Ekstrom and contributors.
See http://admol.org/xcfun for more information. This is free soft-
ware; see the source code for copying conditions. There is ABSOLUTELY
NO WARRANTY; not even for MERCHANTABILITY or FITNESS FOR A PARTICULAR
PURPOSE. For details see the documentation. Scientific users of this 
library should cite U. Ekstrom, L. Visscher, R. Bast, A. J. Thorvald-
sen and K. Ruud; J.Chem.Theor.Comp. 2010, DOI: 10.1021/ct100117s
XCFun Version 0.99 
----- Orbital basis set information -----
Your calculation utilizes the basis: def2-TZVP
   F. Weigend and R. Ahlrichs, Phys. Chem. Chem. Phys. 7, 3297 (2005).

================================================================================
                                        WARNINGS
                       Please study these warnings very carefully!
================================================================================


WARNING: MOInp is set but Guess=PModel. MOInp will be ignored!
         To read the initial guess from a file you must also specify
         'MORead' in the simple input or 'Guess MORead' in the %scf block


INFO   : the flag for use of LIBINT has been found!

Your calculation utilizes the atom-pairwise dispersion correction
with the zero-damping scheme (D30)
Cite in your paper:
S.Grimme, J.Antony, S.Ehrlich and H.Krieg, J.Chem.Phys., 132, (2010), 154104 
   

XCFun DFT library Copyright 2009-2010 Ulf Ekstrom and contributors.
See http://admol.org/xcfun for more information. This is free soft-
ware; see the source code for copying conditions. There is ABSOLUTELY
NO WARRANTY; not even for MERCHANTABILITY or FITNESS FOR A PARTICULAR
PURPOSE. For details see the documentation. Scientific users of this 
library should cite U. Ekstrom, L. Visscher, R. Bast, A. J. Thorvald-
sen and K. Ruud; J.Chem.Theor.Comp. 2010, DOI: 10.1021/ct100117s
XCFun Version 0.99 
----- Orbital basis set information -----
Your calculation utilizes the basis: def2-TZVP
   F. Weigend and R. Ahlrichs, Phys. Chem. Chem. Phys. 7, 3297 (2005).

================================================================================
                                        WARNINGS
                       Please study these warnings very carefully!
================================================================================


WARNING: MOInp is set but Guess=PModel. MOInp will be ignored!
         To read the initial guess from a file you must also specify
         'MORead' in the simple input or 'Guess MORead' in the %scf block


INFO   : the flag for use of LIBINT has been found!

================================================================================
                                       INPUT FILE
================================================================================
NAME = 9-7.in
|  1> #Run DFT-D3 single point of the dimer
|  2> ! wB97X-D3 def2-TZVP TIGHTSCF CHELPG PMODEL PAL8
|  3> 
|  4> %base "9-7_DFT_AB"
|  5> 
|  6> %scf
|  7> MaxIter 1000
|  8> end
|  9> 
| 10> * xyz 0 1
| 11>   C                      5.326910             4.806322             -3.533113           
| 12>   O                      6.034877             3.972360             -4.447765           
| 13>   H                      6.237275             3.163824             -3.960999           
| 14>   H                      6.014065             5.326131             -2.833834           
| 15>   H                      4.817935             5.581777             -4.157801           
| 16>   H                      4.623172             4.233674             -2.922331           
| 17>   C                      2.965190             6.623918             0.967026            
| 18>   O                      3.087321             7.178349             2.250108            
| 19>   H                      2.300229             6.975506             2.740599            
| 20>   H                      3.202862             5.599845             0.971613            
| 21>   H                      1.936361             6.698119             0.639535            
| 22>   H                      3.581406             7.209717             0.268602            
| 23> *
| 24> 
| 25> #Run DFT-D3 single point of the molecule with dimer basis set
| 26> $new_job
| 27> %base "9-7_DFT_A"
| 28> ! wB97X-D3 def2-TZVP TIGHTSCF CHELPG PMODEL
| 29> 
| 30> %scf
| 31> MaxIter 1000
| 32> end
| 33> 
| 34> * xyz 0 1
| 35>   C                      5.326910             4.806322             -3.533113           
| 36>   O                      6.034877             3.972360             -4.447765           
| 37>   H                      6.237275             3.163824             -3.960999           
| 38>   H                      6.014065             5.326131             -2.833834           
| 39>   H                      4.817935             5.581777             -4.157801           
| 40>   H                      4.623172             4.233674             -2.922331           
| 41>   C                    : 2.965190             6.623918             0.967026            
| 42>   O                    : 3.087321             7.178349             2.250108            
| 43>   H                    : 2.300229             6.975506             2.740599            
| 44>   H                    : 3.202862             5.599845             0.971613            
| 45>   H                    : 1.936361             6.698119             0.639535            
| 46>   H                    : 3.581406             7.209717             0.268602            
| 47> *
| 48> 
| 49> #Run DFT-D3 single point of the particle with dimer basis set
| 50> $new_job
| 51> %base "9-7_DFT_B"
| 52> ! wB97X-D3 def2-TZVP TIGHTSCF CHELPG PMODEL
| 53> 
| 54> %scf
| 55> MaxIter 1000
| 56> end
| 57> 
| 58> * xyz 0 1
| 59>   C                    : 5.326910             4.806322             -3.533113           
| 60>   O                    : 6.034877             3.972360             -4.447765           
| 61>   H                    : 6.237275             3.163824             -3.960999           
| 62>   H                    : 6.014065             5.326131             -2.833834           
| 63>   H                    : 4.817935             5.581777             -4.157801           
| 64>   H                    : 4.623172             4.233674             -2.922331           
| 65>   C                      2.965190             6.623918             0.967026            
| 66>   O                      3.087321             7.178349             2.250108            
| 67>   H                      2.300229             6.975506             2.740599            
| 68>   H                      3.202862             5.599845             0.971613            
| 69>   H                      1.936361             6.698119             0.639535            
| 70>   H                      3.581406             7.209717             0.268602            
| 71> *
| 72> 
| 73>                          ****END OF INPUT****
================================================================================


                 $$$$$$$$$$$$$$$$$$$$$$$$$$$$$$$$$$$$$$$$$$$$$$ 
                 $ THERE ARE  3 JOBS TO BE PROCESSED THIS RUN $
                 $$$$$$$$$$$$$$$$$$$$$$$$$$$$$$$$$$$$$$$$$$$$$$ 




                 $$$$$$$$$$$$$$$$  JOB NUMBER  1 $$$$$$$$$$$$$$


                       ****************************
                       * Single Point Calculation *
                       ****************************

---------------------------------
CARTESIAN COORDINATES (ANGSTROEM)
---------------------------------
  C      5.326910    4.806322   -3.533113
  O      6.034877    3.972360   -4.447765
  H      6.237275    3.163824   -3.960999
  H      6.014065    5.326131   -2.833834
  H      4.817935    5.581777   -4.157801
  H      4.623172    4.233674   -2.922331
  C      2.965190    6.623918    0.967026
  O      3.087321    7.178349    2.250108
  H      2.300229    6.975506    2.740599
  H      3.202862    5.599845    0.971613
  H      1.936361    6.698119    0.639535
  H      3.581406    7.209717    0.268602

----------------------------
CARTESIAN COORDINATES (A.U.)
----------------------------
  NO LB      ZA    FRAG     MASS         X           Y           Z
   0 C     6.0000    0    12.011   10.066401    9.082632   -6.676616
   1 O     8.0000    0    15.999   11.404265    7.506673   -8.405058
   2 H     1.0000    0     1.008   11.786742    5.978761   -7.485203
   3 H     1.0000    0     1.008   11.364936   10.064929   -5.355170
   4 H     1.0000    0     1.008    9.104578   10.548030   -7.857105
   5 H     1.0000    0     1.008    8.736529    8.000484   -5.522405
   6 C     6.0000    0    12.011    5.603397   12.517391    1.827414
   7 O     8.0000    0    15.999    5.834191   13.565114    4.252088
   8 H     1.0000    0     1.008    4.346803   13.181796    5.178982
   9 H     1.0000    0     1.008    6.052532   10.582173    1.836082
  10 H     1.0000    0     1.008    3.659192   12.657611    1.208546
  11 H     1.0000    0     1.008    6.767877   13.624391    0.507584

--------------------------------
INTERNAL COORDINATES (ANGSTROEM)
--------------------------------
 C      0   0   0     0.000000000000     0.00000000     0.00000000
 O      1   0   0     1.425937646476     0.00000000     0.00000000
 H      2   1   0     0.965213216060   105.69659910     0.00000000
 H      1   2   3     1.109673154738   111.76062891    79.98103605
 H      1   2   3     1.118311720852   105.85510962   197.32067911
 H      1   2   3     1.093721882414   111.80522431   320.10734656
 C      6   1   2     4.856878479570   114.15299349   165.17852989
 O      7   6   1     1.403071321653   153.77504643   287.20596567
 H      8   7   6     0.949336884459   108.41400236   222.67533802
 H      7   6   1     1.051301350461    56.42210796   218.69884468
 H      7   6   1     1.082240848759    96.65776015   113.35992062
 H      7   6   1     1.100308461675    64.05713518     6.89838095

---------------------------
INTERNAL COORDINATES (A.U.)
---------------------------
 C      0   0   0     0.000000000000     0.00000000     0.00000000
 O      1   0   0     2.694631635888     0.00000000     0.00000000
 H      2   1   0     1.823988639194   105.69659910     0.00000000
 H      1   2   3     2.096978360620   111.76062891    79.98103605
 H      1   2   3     2.113302884764   105.85510962   197.32067911
 H      1   2   3     2.066834824440   111.80522431   320.10734656
 C      6   1   2     9.178170192123   114.15299349   165.17852989
 O      7   6   1     2.651420544284   153.77504643   287.20596567
 H      8   7   6     1.793986720457   108.41400236   222.67533802
 H      7   6   1     1.986671636594    56.42210796   218.69884468
 H      7   6   1     2.045138815097    96.65776015   113.35992062
 H      7   6   1     2.079281655401    64.05713518     6.89838095

---------------------
BASIS SET INFORMATION
---------------------
There are 3 groups of distinct atoms

 Group   1 Type C   : 11s6p2d1f contracted to 5s3p2d1f pattern {62111/411/11/1}
 Group   2 Type O   : 11s6p2d1f contracted to 5s3p2d1f pattern {62111/411/11/1}
 Group   3 Type H   : 5s1p contracted to 3s1p pattern {311/1}

Atom   0C    basis set group =>   1
Atom   1O    basis set group =>   2
Atom   2H    basis set group =>   3
Atom   3H    basis set group =>   3
Atom   4H    basis set group =>   3
Atom   5H    basis set group =>   3
Atom   6C    basis set group =>   1
Atom   7O    basis set group =>   2
Atom   8H    basis set group =>   3
Atom   9H    basis set group =>   3
Atom  10H    basis set group =>   3
Atom  11H    basis set group =>   3


           ************************************************************
           *        Program running with 8 parallel MPI-processes     *
           *              working on a common directory               *
           ************************************************************
------------------------------------------------------------------------------
                           ORCA GTO INTEGRAL CALCULATION
------------------------------------------------------------------------------

                         BASIS SET STATISTICS AND STARTUP INFO

 # of primitive gaussian shells          ...  128
 # of primitive gaussian functions       ...  248
 # of contracted shells                  ...   76
 # of contracted basis functions         ...  172
 Highest angular momentum                ...    3
 Maximum contraction depth               ...    6
 Integral package used                   ... LIBINT
 Integral threshhold            Thresh   ...  2.500e-11
 Primitive cut-off              TCut     ...  2.500e-12


------------------------------ INTEGRAL EVALUATION ----------------------------


 * One electron integrals 
 Pre-screening matrix                    ... done
 Shell pair data                         ... done (   0.001 sec)



           ************************************************************
           *        Program running with 8 parallel MPI-processes     *
           *              working on a common directory               *
           ************************************************************
-------------------------------------------------------------------------------
                                 ORCA SCF
-------------------------------------------------------------------------------

------------
SCF SETTINGS
------------
Hamiltonian:
 Density Functional     Method          .... DFT(GTOs)
 Exchange Functional    Exchange        .... WB97X-D3
 Correlation Functional Correlation     .... WB97X-D3
 Gradients option       PostSCFGGA      .... off
 Hybrid DFT is turned on
   Fraction HF Exchange ScalHFX         ....  0.195728
   Scaling of DF-GGA-X  ScalDFX         ....  0.000000
   Scaling of DF-GGA-C  ScalDFC         ....  1.000000
   Scaling of DF-LDA-C  ScalLDAC        ....  1.000000
   Perturbative correction              ....  0.000000
   Density functional embedding theory  .... OFF
 Long-range corrected/Screened/Range-Separated Hybrid DFT is turned on
   Amount of maximum screened exact exchange              ....  0.804272
   Range separation parameter mu (erf(mu*r12)/r12)        ....  0.250000


General Settings:
 Integral files         IntName         .... 9-7_DFT_AB
 Hartree-Fock type      HFTyp           .... RHF
 Total Charge           Charge          ....    0
 Multiplicity           Mult            ....    1
 Number of Electrons    NEL             ....   36
 Basis Dimension        Dim             ....  172
 Nuclear Repulsion      ENuc            ....    107.3316720835 Eh

Convergence Acceleration:
 DIIS                   CNVDIIS         .... on
   Start iteration      DIISMaxIt       ....    12
   Startup error        DIISStart       ....  0.200000
   # of expansion vecs  DIISMaxEq       ....     5
   Bias factor          DIISBfac        ....   1.050
   Max. coefficient     DIISMaxC        ....  10.000
 Newton-Raphson         CNVNR           .... off
 SOSCF                  CNVSOSCF        .... on
   Start iteration      SOSCFMaxIt      ....   150
   Startup grad/error   SOSCFStart      ....  0.003300
 Level Shifting         CNVShift        .... on
   Level shift para.    LevelShift      ....    0.2500
   Turn off err/grad.   ShiftErr        ....    0.0010
 Zerner damping         CNVZerner       .... off
 Static damping         CNVDamp         .... on
   Fraction old density DampFac         ....    0.7000
   Max. Damping (<1)    DampMax         ....    0.9800
   Min. Damping (>=0)   DampMin         ....    0.0000
   Turn off err/grad.   DampErr         ....    0.1000
 Fernandez-Rico         CNVRico         .... off

SCF Procedure:
 Maximum # iterations   MaxIter         ....  1000
 SCF integral mode      SCFMode         .... Direct
   Integral package                     .... LIBINT
 Reset frequency        DirectResetFreq ....    20
 Integral Threshold     Thresh          ....  2.500e-11 Eh
 Primitive CutOff       TCut            ....  2.500e-12 Eh

Convergence Tolerance:
 Convergence Check Mode ConvCheckMode   .... Total+1el-Energy
 Convergence forced     ConvForced      .... 0
 Energy Change          TolE            ....  1.000e-08 Eh
 1-El. energy change                    ....  1.000e-05 Eh
 Orbital Gradient       TolG            ....  1.000e-05
 Orbital Rotation angle TolX            ....  1.000e-05
 DIIS Error             TolErr          ....  5.000e-07


Diagonalization of the overlap matrix:
Smallest eigenvalue                        ... 1.519e-03
Time for diagonalization                   ...    0.012 sec
Threshold for overlap eigenvalues          ... 1.000e-08
Number of eigenvalues below threshold      ... 0
Time for construction of square roots      ...    0.014 sec
Total time needed                          ...    0.026 sec

-------------------
DFT GRID GENERATION
-------------------

General Integration Accuracy     IntAcc      ...  4.340
Radial Grid Type                 RadialGrid  ... Gauss-Chebyshev
Angular Grid (max. acc.)         AngularGrid ... Lebedev-110
Angular grid pruning method      GridPruning ... 3 (G Style)
Weight generation scheme         WeightScheme... Becke
Basis function cutoff            BFCut       ...    1.0000e-11
Integration weight cutoff        WCut        ...    1.0000e-14
Grids for H and He will be reduced by one unit

# of grid points (after initial pruning)     ...  13096 (   0.0 sec)
# of grid points (after weights+screening)   ...  12618 (   0.0 sec)
nearest neighbour list constructed           ...    0.0 sec
Grid point re-assignment to atoms done       ...    0.0 sec
Grid point division into batches done        ...    0.0 sec
Reduced shell lists constructed in    0.0 sec

Total number of grid points                  ...    12618
Total number of batches                      ...      201
Average number of points per batch           ...       62
Average number of grid points per atom       ...     1052
Average number of shells per batch           ...    40.96 (53.90%)
Average number of basis functions per batch  ...    89.26 (51.89%)
Average number of large shells per batch     ...    33.81 (82.55%)
Average number of large basis fcns per batch ...    77.59 (86.93%)
Maximum spatial batch extension              ...  17.60, 16.01, 15.16 au
Average spatial batch extension              ...   0.47,  0.41,  0.40 au

Time for grid setup =    0.053 sec

------------------------------
INITIAL GUESS: MODEL POTENTIAL
------------------------------
Loading Hartree-Fock densities                     ... done
Calculating cut-offs                               ... done
Setting up the integral package                    ... done
Initializing the effective Hamiltonian             ... done
Starting the Coulomb interaction                   ... done (   0.0 sec)
Reading the grid                                   ... done
Mapping shells                                     ... done
Starting the XC term evaluation                    ... done (   0.0 sec)
  promolecular density results
     # of electrons  =     35.997463020
     EX              =    -28.862089234
     EC              =     -1.150794323
     EX+EC           =    -30.012883557
Transforming the Hamiltonian                       ... done (   0.0 sec)
Diagonalizing the Hamiltonian                      ... done (   0.0 sec)
Back transforming the eigenvectors                 ... done (   0.0 sec)
Now organizing SCF variables                       ... done
                      ------------------
                      INITIAL GUESS DONE (   0.2 sec)
                      ------------------
--------------
SCF ITERATIONS
--------------
ITER       Energy         Delta-E        Max-DP      RMS-DP      [F,P]     Damp
               ***  Starting incremental Fock matrix formation  ***
  0   -231.2965466589   0.000000000000 0.03703777  0.00105331  0.2552016 0.7000
  1   -231.3709243568  -0.074377697828 0.02218551  0.00074362  0.1285170 0.7000
                               ***Turning on DIIS***
  2   -231.4051227353  -0.034198378560 0.03215610  0.00134105  0.0508013 0.0000
  3   -231.4607113723  -0.055588637017 0.01752236  0.00048760  0.0608901 0.0000
  4   -231.4697910064  -0.009079634091 0.00423026  0.00009562  0.0064380 0.0000
                      *** Initiating the SOSCF procedure ***
                           *** Shutting down DIIS ***
                      *** Re-Reading the Fockian *** 
                      *** Removing any level shift *** 
ITER      Energy       Delta-E        Grad      Rot      Max-DP    RMS-DP
  5   -231.46998040  -0.0001893905  0.000431  0.000431  0.000771  0.000032
               *** Restarting incremental Fock matrix formation ***
  6   -231.46999709  -0.0000166944  0.000155  0.000169  0.000521  0.000020
  7   -231.46999862  -0.0000015301  0.000042  0.000086  0.000241  0.000009
  8   -231.46999873  -0.0000001123  0.000043  0.000027  0.000058  0.000001
  9   -231.46999876  -0.0000000299  0.000014  0.000009  0.000021  0.000001
                  ***Gradient check signals convergence***
              ***Rediagonalizing the Fockian in SOSCF/NRSCF***

               *****************************************************
               *                     SUCCESS                       *
               *           SCF CONVERGED AFTER  10 CYCLES          *
               *****************************************************

Setting up the final grid:

General Integration Accuracy     IntAcc      ...  4.670
Radial Grid Type                 RadialGrid  ... Gauss-Chebyshev
Angular Grid (max. acc.)         AngularGrid ... Lebedev-302
Angular grid pruning method      GridPruning ... 3 (G Style)
Weight generation scheme         WeightScheme... Becke
Basis function cutoff            BFCut       ...    1.0000e-11
Integration weight cutoff        WCut        ...    1.0000e-14
Grids for H and He will be reduced by one unit

# of grid points (after initial pruning)     ...  52000 (   0.0 sec)
# of grid points (after weights+screening)   ...  49806 (   0.0 sec)
nearest neighbour list constructed           ...    0.0 sec
Grid point re-assignment to atoms done       ...    0.0 sec
Grid point division into batches done        ...    0.2 sec
Reduced shell lists constructed in    0.2 sec

Total number of grid points                  ...    49806
Total number of batches                      ...      783
Average number of points per batch           ...       63
Average number of grid points per atom       ...     4150
Average number of shells per batch           ...    39.41 (51.86%)
Average number of basis functions per batch  ...    86.34 (50.20%)
Average number of large shells per batch     ...    32.17 (81.62%)
Average number of large basis fcns per batch ...    74.21 (85.95%)
Maximum spatial batch extension              ...  15.68, 14.85, 13.62 au
Average spatial batch extension              ...   0.27,  0.27,  0.27 au

Final grid set up in    0.3 sec
Final integration                            ... done (   0.1 sec)
Change in XC energy                          ...     0.000171786
Integrated number of electrons               ...    36.000009314
Previous integrated no of electrons          ...    36.002434592

----------------
TOTAL SCF ENERGY
----------------

Total Energy       :         -231.46982698 Eh           -6298.61421 eV

Components:
Nuclear Repulsion  :          107.33167208 Eh            2920.64328 eV
Electronic Energy  :         -338.80149906 Eh           -9219.25749 eV
One Electron Energy:         -527.42994748 Eh          -14352.09852 eV
Two Electron Energy:          188.62844841 Eh            5132.84103 eV

Virial components:
Potential Energy   :         -462.00663185 Eh          -12571.83959 eV
Kinetic Energy     :          230.53680487 Eh            6273.22539 eV
Virial Ratio       :            2.00404717


DFT components:
N(Alpha)           :       18.000004656943 electrons
N(Beta)            :       18.000004656943 electrons
N(Total)           :       36.000009313887 electrons
E(XC)              :      -21.314583264152 Eh       
DFET-embed. en.    :        0.000000000000 Eh       

---------------
SCF CONVERGENCE
---------------

  Last Energy change         ...   -3.7096e-09  Tolerance :   1.0000e-08
  Last MAX-Density change    ...    5.4565e-06  Tolerance :   1.0000e-07
  Last RMS-Density change    ...    1.7982e-07  Tolerance :   5.0000e-09
  Last Orbital Gradient      ...    2.2584e-06  Tolerance :   1.0000e-05
  Last Orbital Rotation      ...    2.5288e-06  Tolerance :   1.0000e-05

             **** THE GBW FILE WAS UPDATED (9-7_DFT_AB.gbw) ****
             **** DENSITY FILE WAS UPDATED (9-7_DFT_AB.scfp.tmp) ****
             **** ENERGY FILE WAS UPDATED (9-7_DFT_AB.en.tmp) ****
----------------
ORBITAL ENERGIES
----------------

  NO   OCC          E(Eh)            E(eV) 
   0   2.0000     -19.231916      -523.3270 
   1   2.0000     -19.227941      -523.2189 
   2   2.0000     -10.319277      -280.8018 
   3   2.0000     -10.309676      -280.5406 
   4   2.0000      -1.142554       -31.0905 
   5   2.0000      -1.134096       -30.8603 
   6   2.0000      -0.801390       -21.8069 
   7   2.0000      -0.791617       -21.5410 
   8   2.0000      -0.618561       -16.8319 
   9   2.0000      -0.611137       -16.6299 
  10   2.0000      -0.552553       -15.0357 
  11   2.0000      -0.537350       -14.6220 
  12   2.0000      -0.529588       -14.4108 
  13   2.0000      -0.522130       -14.2079 
  14   2.0000      -0.441205       -12.0058 
  15   2.0000      -0.434762       -11.8305 
  16   2.0000      -0.375592       -10.2204 
  17   2.0000      -0.373531       -10.1643 
  18   0.0000       0.109341         2.9753 
  19   0.0000       0.114427         3.1137 
  20   0.0000       0.131397         3.5755 
  21   0.0000       0.171826         4.6756 
  22   0.0000       0.186115         5.0645 
  23   0.0000       0.196355         5.3431 
  24   0.0000       0.201751         5.4899 
  25   0.0000       0.211326         5.7505 
  26   0.0000       0.229631         6.2486 
  27   0.0000       0.242666         6.6033 
  28   0.0000       0.298012         8.1093 
  29   0.0000       0.304461         8.2848 
  30   0.0000       0.307356         8.3636 
  31   0.0000       0.313891         8.5414 
  32   0.0000       0.393545        10.7089 
  33   0.0000       0.413450        11.2506 
  34   0.0000       0.438259        11.9256 
  35   0.0000       0.459034        12.4910 
  36   0.0000       0.486757        13.2453 
  37   0.0000       0.489882        13.3304 
  38   0.0000       0.524164        14.2632 
  39   0.0000       0.540661        14.7121 
  40   0.0000       0.545113        14.8333 
  41   0.0000       0.546729        14.8773 
  42   0.0000       0.558824        15.2064 
  43   0.0000       0.566210        15.4073 
  44   0.0000       0.585759        15.9393 
  45   0.0000       0.601869        16.3777 
  46   0.0000       0.609885        16.5958 
  47   0.0000       0.621834        16.9210 
  48   0.0000       0.677538        18.4368 
  49   0.0000       0.680015        18.5042 
  50   0.0000       0.770176        20.9576 
  51   0.0000       0.779903        21.2222 
  52   0.0000       0.814186        22.1551 
  53   0.0000       0.819379        22.2964 
  54   0.0000       0.850292        23.1376 
  55   0.0000       0.876749        23.8576 
  56   0.0000       0.978766        26.6336 
  57   0.0000       0.990461        26.9518 
  58   0.0000       1.026852        27.9421 
  59   0.0000       1.035190        28.1689 
  60   0.0000       1.098433        29.8899 
  61   0.0000       1.135581        30.9007 
  62   0.0000       1.368737        37.2452 
  63   0.0000       1.379296        37.5325 
  64   0.0000       1.485332        40.4179 
  65   0.0000       1.490602        40.5613 
  66   0.0000       1.536669        41.8149 
  67   0.0000       1.559622        42.4395 
  68   0.0000       1.582187        43.0535 
  69   0.0000       1.592871        43.3442 
  70   0.0000       1.607300        43.7369 
  71   0.0000       1.629793        44.3489 
  72   0.0000       1.641366        44.6638 
  73   0.0000       1.645185        44.7678 
  74   0.0000       1.670610        45.4596 
  75   0.0000       1.674059        45.5535 
  76   0.0000       1.679747        45.7082 
  77   0.0000       1.709884        46.5283 
  78   0.0000       1.766584        48.0712 
  79   0.0000       1.774358        48.2827 
  80   0.0000       1.952674        53.1350 
  81   0.0000       1.956308        53.2338 
  82   0.0000       2.002092        54.4797 
  83   0.0000       2.023152        55.0528 
  84   0.0000       2.049659        55.7741 
  85   0.0000       2.071469        56.3675 
  86   0.0000       2.088833        56.8400 
  87   0.0000       2.101415        57.1824 
  88   0.0000       2.120790        57.7096 
  89   0.0000       2.149359        58.4870 
  90   0.0000       2.256855        61.4121 
  91   0.0000       2.276121        61.9364 
  92   0.0000       2.293375        62.4059 
  93   0.0000       2.299051        62.5604 
  94   0.0000       2.334524        63.5256 
  95   0.0000       2.363291        64.3084 
  96   0.0000       2.392349        65.0991 
  97   0.0000       2.410035        65.5804 
  98   0.0000       2.436423        66.2984 
  99   0.0000       2.463445        67.0338 
 100   0.0000       2.475350        67.3577 
 101   0.0000       2.502097        68.0855 
 102   0.0000       2.585074        70.3434 
 103   0.0000       2.612087        71.0785 
 104   0.0000       2.615337        71.1669 
 105   0.0000       2.651752        72.1578 
 106   0.0000       2.680003        72.9266 
 107   0.0000       2.681386        72.9642 
 108   0.0000       2.819326        76.7178 
 109   0.0000       2.854191        77.6665 
 110   0.0000       2.863842        77.9291 
 111   0.0000       2.873497        78.1918 
 112   0.0000       2.910338        79.1943 
 113   0.0000       2.925733        79.6133 
 114   0.0000       2.976787        81.0025 
 115   0.0000       2.984142        81.2026 
 116   0.0000       3.093502        84.1785 
 117   0.0000       3.111718        84.6742 
 118   0.0000       3.153859        85.8209 
 119   0.0000       3.174046        86.3702 
 120   0.0000       3.285214        89.3952 
 121   0.0000       3.308853        90.0385 
 122   0.0000       3.400929        92.5440 
 123   0.0000       3.404273        92.6350 
 124   0.0000       3.423961        93.1707 
 125   0.0000       3.470877        94.4474 
 126   0.0000       3.498080        95.1876 
 127   0.0000       3.527515        95.9885 
 128   0.0000       3.598266        97.9138 
 129   0.0000       3.626726        98.6882 
 130   0.0000       3.639975        99.0487 
 131   0.0000       3.643423        99.1426 
 132   0.0000       3.646299        99.2208 
 133   0.0000       3.664253        99.7094 
 134   0.0000       3.984511       108.4240 
 135   0.0000       4.020391       109.4004 
 136   0.0000       4.202468       114.3550 
 137   0.0000       4.231941       115.1570 
 138   0.0000       4.258551       115.8811 
 139   0.0000       4.322453       117.6199 
 140   0.0000       4.432529       120.6152 
 141   0.0000       4.484350       122.0254 
 142   0.0000       4.555311       123.9563 
 143   0.0000       4.556310       123.9835 
 144   0.0000       5.346351       145.4816 
 145   0.0000       5.357845       145.7944 
 146   0.0000       5.429363       147.7405 
 147   0.0000       5.430038       147.7588 
 148   0.0000       5.539466       150.7365 
 149   0.0000       5.573045       151.6503 
 150   0.0000       5.777742       157.2204 
 151   0.0000       5.799479       157.8118 
 152   0.0000       5.834662       158.7692 
 153   0.0000       5.850064       159.1883 
 154   0.0000       5.973406       162.5446 
 155   0.0000       5.995910       163.1570 
 156   0.0000       6.334149       172.3610 
 157   0.0000       6.386643       173.7894 
 158   0.0000       6.527694       177.6276 
 159   0.0000       6.538069       177.9099 
 160   0.0000       6.761795       183.9978 
 161   0.0000       6.764544       184.0726 
 162   0.0000       6.796317       184.9372 
 163   0.0000       6.819573       185.5700 
 164   0.0000       7.034224       191.4110 
 165   0.0000       7.041722       191.6150 
 166   0.0000       7.195727       195.8057 
 167   0.0000       7.223010       196.5481 
 168   0.0000      22.316065       607.2510 
 169   0.0000      22.496060       612.1489 
 170   0.0000      43.651328      1187.8130 
 171   0.0000      43.668269      1188.2740 

                    ********************************
                    * MULLIKEN POPULATION ANALYSIS *
                    ********************************

-----------------------
MULLIKEN ATOMIC CHARGES
-----------------------
   0 C :   -0.163269
   1 O :   -0.469560
   2 H :    0.312083
   3 H :    0.100386
   4 H :    0.120019
   5 H :    0.100350
   6 C :   -0.148255
   7 O :   -0.479128
   8 H :    0.314236
   9 H :    0.101239
  10 H :    0.099229
  11 H :    0.112670
Sum of atomic charges:   -0.0000000

--------------------------------
MULLIKEN REDUCED ORBITAL CHARGES
--------------------------------
  0 C s       :     3.230638  s :     3.230638
      pz      :     0.914707  p :     2.829792
      px      :     0.965011
      py      :     0.950074
      dz2     :     0.019268  d :     0.095449
      dxz     :     0.019941
      dyz     :     0.021235
      dx2y2   :     0.018437
      dxy     :     0.016568
      f0      :     0.000481  f :     0.007390
      f+1     :     0.000800
      f-1     :     0.001173
      f+2     :     0.001542
      f-2     :     0.002110
      f+3     :     0.000529
      f-3     :     0.000756
  1 O s       :     3.803066  s :     3.803066
      pz      :     1.540895  p :     4.634345
      px      :     1.749119
      py      :     1.344331
      dz2     :     0.005018  d :     0.030549
      dxz     :     0.006396
      dyz     :     0.011692
      dx2y2   :     0.004238
      dxy     :     0.003205
      f0      :     0.000124  f :     0.001600
      f+1     :     0.000124
      f-1     :     0.000085
      f+2     :     0.000397
      f-2     :     0.000316
      f+3     :     0.000308
      f-3     :     0.000245
  2 H s       :     0.641199  s :     0.641199
      pz      :     0.013322  p :     0.046719
      px      :     0.016005
      py      :     0.017391
  3 H s       :     0.880220  s :     0.880220
      pz      :     0.006990  p :     0.019394
      px      :     0.006597
      py      :     0.005808
  4 H s       :     0.860658  s :     0.860658
      pz      :     0.005896  p :     0.019323
      px      :     0.005461
      py      :     0.007965
  5 H s       :     0.880162  s :     0.880162
      pz      :     0.006413  p :     0.019488
      px      :     0.007577
      py      :     0.005497
  6 C s       :     3.215653  s :     3.215653
      pz      :     0.752565  p :     2.827741
      px      :     1.070757
      py      :     1.004418
      dz2     :     0.021898  d :     0.097119
      dxz     :     0.029983
      dyz     :     0.027782
      dx2y2   :     0.013766
      dxy     :     0.003690
      f0      :     0.002215  f :     0.007743
      f+1     :     0.001604
      f-1     :     0.001698
      f+2     :     0.000875
      f-2     :     0.000780
      f+3     :     0.000351
      f-3     :     0.000219
  7 O s       :     3.789687  s :     3.789687
      pz      :     1.322272  p :     4.656915
      px      :     1.542464
      py      :     1.792179
      dz2     :     0.006199  d :     0.030790
      dxz     :     0.008928
      dyz     :     0.006821
      dx2y2   :     0.005237
      dxy     :     0.003605
      f0      :     0.000394  f :     0.001737
      f+1     :     0.000161
      f-1     :     0.000352
      f+2     :     0.000395
      f-2     :     0.000168
      f+3     :     0.000123
      f-3     :     0.000144
  8 H s       :     0.636964  s :     0.636964
      pz      :     0.014315  p :     0.048799
      px      :     0.017663
      py      :     0.016822
  9 H s       :     0.878100  s :     0.878100
      pz      :     0.003239  p :     0.020661
      px      :     0.005122
      py      :     0.012300
 10 H s       :     0.881239  s :     0.881239
      pz      :     0.003996  p :     0.019532
      px      :     0.011390
      py      :     0.004147
 11 H s       :     0.867118  s :     0.867118
      pz      :     0.006980  p :     0.020212
      px      :     0.007011
      py      :     0.006222


                     *******************************
                     * LOEWDIN POPULATION ANALYSIS *
                     *******************************

----------------------
LOEWDIN ATOMIC CHARGES
----------------------
   0 C :   -0.383328
   1 O :   -0.088996
   2 H :    0.170354
   3 H :    0.095681
   4 H :    0.113712
   5 H :    0.092585
   6 C :   -0.382428
   7 O :   -0.067755
   8 H :    0.162192
   9 H :    0.084851
  10 H :    0.093655
  11 H :    0.109475

-------------------------------
LOEWDIN REDUCED ORBITAL CHARGES
-------------------------------
  0 C s       :     2.877147  s :     2.877147
      pz      :     1.003821  p :     3.048792
      px      :     1.038033
      py      :     1.006937
      dz2     :     0.052378  d :     0.402878
      dxz     :     0.108043
      dyz     :     0.110989
      dx2y2   :     0.052625
      dxy     :     0.078843
      f0      :     0.007207  f :     0.054511
      f+1     :     0.006764
      f-1     :     0.009169
      f+2     :     0.008951
      f-2     :     0.008993
      f+3     :     0.005261
      f-3     :     0.008166
  1 O s       :     3.384054  s :     3.384054
      pz      :     1.580060  p :     4.630984
      px      :     1.691055
      py      :     1.359870
      dz2     :     0.011070  d :     0.069439
      dxz     :     0.012202
      dyz     :     0.023049
      dx2y2   :     0.013058
      dxy     :     0.010061
      f0      :     0.000590  f :     0.004519
      f+1     :     0.000442
      f-1     :     0.000611
      f+2     :     0.001204
      f-2     :     0.000740
      f+3     :     0.000479
      f-3     :     0.000453
  2 H s       :     0.673968  s :     0.673968
      pz      :     0.050664  p :     0.155678
      px      :     0.042936
      py      :     0.062077
  3 H s       :     0.846154  s :     0.846154
      pz      :     0.020662  p :     0.058165
      px      :     0.020366
      py      :     0.017137
  4 H s       :     0.830730  s :     0.830730
      pz      :     0.017948  p :     0.055558
      px      :     0.015757
      py      :     0.021853
  5 H s       :     0.846704  s :     0.846704
      pz      :     0.019471  p :     0.060711
      px      :     0.023706
      py      :     0.017533
  6 C s       :     2.851920  s :     2.851920
      pz      :     0.879369  p :     3.053021
      px      :     1.106417
      py      :     1.067235
      dz2     :     0.106250  d :     0.417834
      dxz     :     0.108986
      dyz     :     0.109485
      dx2y2   :     0.073631
      dxy     :     0.019482
      f0      :     0.015605  f :     0.059653
      f+1     :     0.011484
      f-1     :     0.014771
      f+2     :     0.005488
      f-2     :     0.008254
      f+3     :     0.002435
      f-3     :     0.001615
  7 O s       :     3.355583  s :     3.355583
      pz      :     1.372754  p :     4.634340
      px      :     1.533805
      py      :     1.727781
      dz2     :     0.017593  d :     0.072973
      dxz     :     0.025419
      dyz     :     0.017167
      dx2y2   :     0.008724
      dxy     :     0.004069
      f0      :     0.001313  f :     0.004859
      f+1     :     0.000653
      f-1     :     0.000897
      f+2     :     0.000898
      f-2     :     0.000637
      f+3     :     0.000236
      f-3     :     0.000226
  8 H s       :     0.674951  s :     0.674951
      pz      :     0.040574  p :     0.162858
      px      :     0.073192
      py      :     0.049091
  9 H s       :     0.848198  s :     0.848198
      pz      :     0.011069  p :     0.066951
      px      :     0.017471
      py      :     0.038411
 10 H s       :     0.844746  s :     0.844746
      pz      :     0.013202  p :     0.061599
      px      :     0.034783
      py      :     0.013614
 11 H s       :     0.832663  s :     0.832663
      pz      :     0.018617  p :     0.057862
      px      :     0.020437
      py      :     0.018807


                      *****************************
                      * MAYER POPULATION ANALYSIS *
                      *****************************

  NA   - Mulliken gross atomic population
  ZA   - Total nuclear charge
  QA   - Mulliken gross atomic charge
  VA   - Mayer's total valence
  BVA  - Mayer's bonded valence
  FA   - Mayer's free valence

  ATOM       NA         ZA         QA         VA         BVA        FA
  0 C      6.1633     6.0000    -0.1633     3.9369     3.9369    -0.0000
  1 O      8.4696     8.0000    -0.4696     1.8936     1.8936     0.0000
  2 H      0.6879     1.0000     0.3121     0.9138     0.9138     0.0000
  3 H      0.8996     1.0000     0.1004     0.9557     0.9557    -0.0000
  4 H      0.8800     1.0000     0.1200     0.9617     0.9617     0.0000
  5 H      0.8996     1.0000     0.1004     0.9621     0.9621    -0.0000
  6 C      6.1483     6.0000    -0.1483     3.9462     3.9462     0.0000
  7 O      8.4791     8.0000    -0.4791     1.8806     1.8806    -0.0000
  8 H      0.6858     1.0000     0.3142     0.9134     0.9134    -0.0000
  9 H      0.8988     1.0000     0.1012     0.9534     0.9534     0.0000
 10 H      0.9008     1.0000     0.0992     0.9629     0.9629     0.0000
 11 H      0.8873     1.0000     0.1127     0.9600     0.9600     0.0000

  Mayer bond orders larger than 0.1
B(  0-C ,  1-O ) :   1.0027 B(  0-C ,  3-H ) :   0.9712 B(  0-C ,  4-H ) :   0.9748 
B(  0-C ,  5-H ) :   0.9778 B(  1-O ,  2-H ) :   0.9016 B(  6-C ,  7-O ) :   0.9986 
B(  6-C ,  9-H ) :   0.9742 B(  6-C , 10-H ) :   0.9883 B(  6-C , 11-H ) :   0.9744 
B(  7-O ,  8-H ) :   0.9013 

-------
TIMINGS
-------

Total SCF time: 0 days 0 hours 0 min 8 sec 

Total time                  ....       8.418 sec
Sum of individual times     ....       7.941 sec  ( 94.3%)

Fock matrix formation       ....       7.350 sec  ( 87.3%)
  XC integration            ....       0.693 sec  (  9.4% of F)
    Basis function eval.    ....       0.056 sec  (  8.1% of XC)
    Density eval.           ....       0.049 sec  (  7.1% of XC)
    XC-Functional eval.     ....       0.092 sec  ( 13.3% of XC)
    XC-Potential eval.      ....       0.054 sec  (  7.7% of XC)
Diagonalization             ....       0.052 sec  (  0.6%)
Density matrix formation    ....       0.006 sec  (  0.1%)
Population analysis         ....       0.028 sec  (  0.3%)
Initial guess               ....       0.117 sec  (  1.4%)
Orbital Transformation      ....       0.000 sec  (  0.0%)
Orbital Orthonormalization  ....       0.000 sec  (  0.0%)
DIIS solution               ....       0.024 sec  (  0.3%)
SOSCF solution              ....       0.024 sec  (  0.3%)
Grid generation             ....       0.340 sec  (  4.0%)


-------------------------------------------------------------------------------
                          DFT DISPERSION CORRECTION                            
                                                                               
                              DFTD3 V3.1  Rev 1                                
                              USING zero damping                               
-------------------------------------------------------------------------------
The omegaB97X-D3 functional is recognized. Fit by Chai et al.
Active option DFTDOPT                   ...         3   

molecular C6(AA) [au] = 834.856522 


            DFT-D V3
 parameters
 s6 scaling factor         :     1.0000 
 rs6 scaling factor        :     1.2810 
 s8 scaling factor         :     1.0000 
 rs8 scaling factor        :     1.0940 
 Damping factor alpha6     :    14.0000 
 Damping factor alpha8     :    16.0000 
 ad hoc parameters k1-k3   :    16.0000     1.3333    -4.0000 

 Edisp/kcal,au: -0.397794801023  -0.000633926299 
 E6   /kcal   :  -0.148760371 
 E8   /kcal   :  -0.249034430 
 % E8         :  62.603741734 

-------------------------   ----------------
Dispersion correction           -0.000633926
-------------------------   ----------------


-------------------------   --------------------
FINAL SINGLE POINT ENERGY      -231.470460907055
-------------------------   --------------------


                            ***************************************
                            *     ORCA property calculations      *
                            ***************************************

                                    ---------------------
                                    Active property flags
                                    ---------------------
   (+) Dipole Moment


------------------------------------------------------------------------------
                       ORCA ELECTRIC PROPERTIES CALCULATION
------------------------------------------------------------------------------

Dipole Moment Calculation                       ... on
Quadrupole Moment Calculation                   ... off
Polarizability Calculation                      ... off
GBWName                                         ... 9-7_DFT_AB.gbw
Electron density file                           ... 9-7_DFT_AB.scfp.tmp
The origin for moment calculation is the CENTER OF MASS  = ( 8.212998, 10.640420 -2.220768)

-------------
DIPOLE MOMENT
-------------
                                X             Y             Z
Electronic contribution:      1.19123      -0.28925       0.32756
Nuclear contribution   :     -1.92229      -0.24251       0.14001
                        -----------------------------------------
Total Dipole Moment    :     -0.73106      -0.53176       0.46757
                        -----------------------------------------
Magnitude (a.u.)       :      1.01776
Magnitude (Debye)      :      2.58695



--------------------
Rotational spectrum 
--------------------
 
Rotational constants in cm-1:     1.299846     0.022133     0.022068 
Rotational constants in MHz : 38968.408741   663.522157   661.588271 

 Dipole components along the rotational axes: 
x,y,z [a.u.] :     0.475242     0.203805     0.876613 
x,y,z [Debye]:     1.207969     0.518032     2.228174 

 
------------------------------------------------------------------------------
                      ORCA CHELPG CHARGES GENERATION
------------------------------------------------------------------------------

GBW file                           ... 9-7_DFT_AB.gbw

Reading the GBW file               ... done

Grid spacing                       ...     0.300000
Point Cut-Off                      ...     2.800000
Van-der-Waals Radii                ...        COSMO
Total charge                       ...            0


Number of points X direction       ...           33
Number of points Y direction       ...           32
Number of points Z direction       ...           42
Maximum number of possible points  ...        44352
Final number of points             ...        11494


CHELPG Charges            
--------------------------------
  0   C   :       0.001480
  1   O   :      -0.574768
  2   H   :       0.399318
  3   H   :       0.047396
  4   H   :       0.096519
  5   H   :       0.029166
  6   C   :       0.102258
  7   O   :      -0.604177
  8   H   :       0.402903
  9   H   :       0.031397
 10   H   :       0.007151
 11   H   :       0.061357
--------------------------------
Total charge:    -0.000000
--------------------------------

CHELPG charges calculated...

Timings for individual parts in CHELPG calculation:
Grid generation                 ...        0.002 sec (=   0.000 min)
Potential calculation           ...        2.119 sec (=   0.035 min)
Fit to the potential            ...        0.014 sec (=   0.000 min)
------------------------------------------------------------------------------


Timings for individual modules:

Sum of individual times         ...       16.756 sec (=   0.279 min)
GTO integral calculation        ...        3.659 sec (=   0.061 min)  21.8 %
SCF iterations                  ...       10.744 sec (=   0.179 min)  64.1 %
CHELPG charge generation        ...        2.353 sec (=   0.039 min)  14.0 %


                 $$$$$$$$$$$$$$$$  JOB NUMBER  2 $$$$$$$$$$$$$$


                       ****************************
                       * Single Point Calculation *
                       ****************************

---------------------------------
CARTESIAN COORDINATES (ANGSTROEM)
---------------------------------
  C      5.326910    4.806322   -3.533113
  O      6.034877    3.972360   -4.447765
  H      6.237275    3.163824   -3.960999
  H      6.014065    5.326131   -2.833834
  H      4.817935    5.581777   -4.157801
  H      4.623172    4.233674   -2.922331
  C      2.965190    6.623918    0.967026
  O      3.087321    7.178349    2.250108
  H      2.300229    6.975506    2.740599
  H      3.202862    5.599845    0.971613
  H      1.936361    6.698119    0.639535
  H      3.581406    7.209717    0.268602

----------------------------
CARTESIAN COORDINATES (A.U.)
----------------------------
  NO LB      ZA    FRAG     MASS         X           Y           Z
   0 C     6.0000    0    12.011   10.066401    9.082632   -6.676616
   1 O     8.0000    0    15.999   11.404265    7.506673   -8.405058
   2 H     1.0000    0     1.008   11.786742    5.978761   -7.485203
   3 H     1.0000    0     1.008   11.364936   10.064929   -5.355170
   4 H     1.0000    0     1.008    9.104578   10.548030   -7.857105
   5 H     1.0000    0     1.008    8.736529    8.000484   -5.522405
   6 C     0.0000    0     0.000    5.603397   12.517391    1.827414
   7 O     0.0000    0     0.000    5.834191   13.565114    4.252088
   8 H     0.0000    0     0.000    4.346803   13.181796    5.178982
   9 H     0.0000    0     0.000    6.052532   10.582173    1.836082
  10 H     0.0000    0     0.000    3.659192   12.657611    1.208546
  11 H     0.0000    0     0.000    6.767877   13.624391    0.507584

--------------------------------
INTERNAL COORDINATES (ANGSTROEM)
--------------------------------
 C      0   0   0     0.000000000000     0.00000000     0.00000000
 O      1   0   0     1.425937646476     0.00000000     0.00000000
 H      2   1   0     0.965213216060   105.69659910     0.00000000
 H      1   2   3     1.109673154738   111.76062891    79.98103605
 H      1   2   3     1.118311720852   105.85510962   197.32067911
 H      1   2   3     1.093721882414   111.80522431   320.10734656
 C      6   1   2     4.856878479570   114.15299349   165.17852989
 O      7   6   1     1.403071321653   153.77504643   287.20596567
 H      8   7   6     0.949336884459   108.41400236   222.67533802
 H      7   6   1     1.051301350461    56.42210796   218.69884468
 H      7   6   1     1.082240848759    96.65776015   113.35992062
 H      7   6   1     1.100308461675    64.05713518     6.89838095

---------------------------
INTERNAL COORDINATES (A.U.)
---------------------------
 C      0   0   0     0.000000000000     0.00000000     0.00000000
 O      1   0   0     2.694631635888     0.00000000     0.00000000
 H      2   1   0     1.823988639194   105.69659910     0.00000000
 H      1   2   3     2.096978360620   111.76062891    79.98103605
 H      1   2   3     2.113302884764   105.85510962   197.32067911
 H      1   2   3     2.066834824440   111.80522431   320.10734656
 C      6   1   2     9.178170192123   114.15299349   165.17852989
 O      7   6   1     2.651420544284   153.77504643   287.20596567
 H      8   7   6     1.793986720457   108.41400236   222.67533802
 H      7   6   1     1.986671636594    56.42210796   218.69884468
 H      7   6   1     2.045138815097    96.65776015   113.35992062
 H      7   6   1     2.079281655401    64.05713518     6.89838095

---------------------
BASIS SET INFORMATION
---------------------
There are 3 groups of distinct atoms

 Group   1 Type C   : 11s6p2d1f contracted to 5s3p2d1f pattern {62111/411/11/1}
 Group   2 Type O   : 11s6p2d1f contracted to 5s3p2d1f pattern {62111/411/11/1}
 Group   3 Type H   : 5s1p contracted to 3s1p pattern {311/1}

Atom   0C    basis set group =>   1
Atom   1O    basis set group =>   2
Atom   2H    basis set group =>   3
Atom   3H    basis set group =>   3
Atom   4H    basis set group =>   3
Atom   5H    basis set group =>   3
Atom   6C    basis set group =>   1
Atom   7O    basis set group =>   2
Atom   8H    basis set group =>   3
Atom   9H    basis set group =>   3
Atom  10H    basis set group =>   3
Atom  11H    basis set group =>   3


           ************************************************************
           *        Program running with 8 parallel MPI-processes     *
           *              working on a common directory               *
           ************************************************************
------------------------------------------------------------------------------
                           ORCA GTO INTEGRAL CALCULATION
------------------------------------------------------------------------------

                         BASIS SET STATISTICS AND STARTUP INFO

 # of primitive gaussian shells          ...  128
 # of primitive gaussian functions       ...  248
 # of contracted shells                  ...   76
 # of contracted basis functions         ...  172
 Highest angular momentum                ...    3
 Maximum contraction depth               ...    6
 Integral package used                   ... LIBINT
 Integral threshhold            Thresh   ...  2.500e-11
 Primitive cut-off              TCut     ...  2.500e-12


------------------------------ INTEGRAL EVALUATION ----------------------------


 * One electron integrals 
 Pre-screening matrix                    ... done
 Shell pair data                         ... done (   0.001 sec)



           ************************************************************
           *        Program running with 8 parallel MPI-processes     *
           *              working on a common directory               *
           ************************************************************
-------------------------------------------------------------------------------
                                 ORCA SCF
-------------------------------------------------------------------------------

------------
SCF SETTINGS
------------
Hamiltonian:
 Density Functional     Method          .... DFT(GTOs)
 Exchange Functional    Exchange        .... WB97X-D3
 Correlation Functional Correlation     .... WB97X-D3
 Gradients option       PostSCFGGA      .... off
 Hybrid DFT is turned on
   Fraction HF Exchange ScalHFX         ....  0.195728
   Scaling of DF-GGA-X  ScalDFX         ....  0.000000
   Scaling of DF-GGA-C  ScalDFC         ....  1.000000
   Scaling of DF-LDA-C  ScalLDAC        ....  1.000000
   Perturbative correction              ....  0.000000
   Density functional embedding theory  .... OFF
 Long-range corrected/Screened/Range-Separated Hybrid DFT is turned on
   Amount of maximum screened exact exchange              ....  0.804272
   Range separation parameter mu (erf(mu*r12)/r12)        ....  0.250000


General Settings:
 Integral files         IntName         .... 9-7_DFT_A
 Hartree-Fock type      HFTyp           .... RHF
 Total Charge           Charge          ....    0
 Multiplicity           Mult            ....    1
 Number of Electrons    NEL             ....   18
 Basis Dimension        Dim             ....  172
 Nuclear Repulsion      ENuc            ....     40.0837380859 Eh

Convergence Acceleration:
 DIIS                   CNVDIIS         .... on
   Start iteration      DIISMaxIt       ....    12
   Startup error        DIISStart       ....  0.200000
   # of expansion vecs  DIISMaxEq       ....     5
   Bias factor          DIISBfac        ....   1.050
   Max. coefficient     DIISMaxC        ....  10.000
 Newton-Raphson         CNVNR           .... off
 SOSCF                  CNVSOSCF        .... on
   Start iteration      SOSCFMaxIt      ....   150
   Startup grad/error   SOSCFStart      ....  0.003300
 Level Shifting         CNVShift        .... on
   Level shift para.    LevelShift      ....    0.2500
   Turn off err/grad.   ShiftErr        ....    0.0010
 Zerner damping         CNVZerner       .... off
 Static damping         CNVDamp         .... on
   Fraction old density DampFac         ....    0.7000
   Max. Damping (<1)    DampMax         ....    0.9800
   Min. Damping (>=0)   DampMin         ....    0.0000
   Turn off err/grad.   DampErr         ....    0.1000
 Fernandez-Rico         CNVRico         .... off

SCF Procedure:
 Maximum # iterations   MaxIter         ....  1000
 SCF integral mode      SCFMode         .... Direct
   Integral package                     .... LIBINT
 Reset frequency        DirectResetFreq ....    20
 Integral Threshold     Thresh          ....  2.500e-11 Eh
 Primitive CutOff       TCut            ....  2.500e-12 Eh

Convergence Tolerance:
 Convergence Check Mode ConvCheckMode   .... Total+1el-Energy
 Convergence forced     ConvForced      .... 0
 Energy Change          TolE            ....  1.000e-08 Eh
 1-El. energy change                    ....  1.000e-05 Eh
 Orbital Gradient       TolG            ....  1.000e-05
 Orbital Rotation angle TolX            ....  1.000e-05
 DIIS Error             TolErr          ....  5.000e-07


Diagonalization of the overlap matrix:
Smallest eigenvalue                        ... 1.519e-03
Time for diagonalization                   ...    0.004 sec
Threshold for overlap eigenvalues          ... 1.000e-08
Number of eigenvalues below threshold      ... 0
Time for construction of square roots      ...    0.004 sec
Total time needed                          ...    0.008 sec

-------------------
DFT GRID GENERATION
-------------------

General Integration Accuracy     IntAcc      ...  4.340
Radial Grid Type                 RadialGrid  ... Gauss-Chebyshev
Angular Grid (max. acc.)         AngularGrid ... Lebedev-110
Angular grid pruning method      GridPruning ... 3 (G Style)
Weight generation scheme         WeightScheme... Becke
Basis function cutoff            BFCut       ...    1.0000e-11
Integration weight cutoff        WCut        ...    1.0000e-14
Grids for H and He will be reduced by one unit

# of grid points (after initial pruning)     ...  13096 (   0.0 sec)
# of grid points (after weights+screening)   ...  12618 (   0.0 sec)
nearest neighbour list constructed           ...    0.0 sec
Grid point re-assignment to atoms done       ...    0.0 sec
Grid point division into batches done        ...    0.0 sec
Reduced shell lists constructed in    0.0 sec

Total number of grid points                  ...    12618
Total number of batches                      ...      201
Average number of points per batch           ...       62
Average number of grid points per atom       ...     1052
Average number of shells per batch           ...    40.96 (53.90%)
Average number of basis functions per batch  ...    89.26 (51.89%)
Average number of large shells per batch     ...    33.81 (82.55%)
Average number of large basis fcns per batch ...    77.59 (86.93%)
Maximum spatial batch extension              ...  17.60, 16.01, 15.16 au
Average spatial batch extension              ...   0.47,  0.41,  0.40 au

Time for grid setup =    0.036 sec

------------------------------
INITIAL GUESS: MODEL POTENTIAL
------------------------------
Loading Hartree-Fock densities                     ... done
Calculating cut-offs                               ... done
Setting up the integral package                    ... done
Initializing the effective Hamiltonian             ... done
Starting the Coulomb interaction                   ... done (   0.0 sec)
Reading the grid                                   ... done
Mapping shells                                     ... done
Starting the XC term evaluation                    ... done (   0.0 sec)
  promolecular density results
     # of electrons  =     17.997082085
     EX              =    -14.418522805
     EC              =     -0.573936729
     EX+EC           =    -14.992459534
Transforming the Hamiltonian                       ... done (   0.0 sec)
Diagonalizing the Hamiltonian                      ... done (   0.0 sec)
Back transforming the eigenvectors                 ... done (   0.0 sec)
Now organizing SCF variables                       ... done
                      ------------------
                      INITIAL GUESS DONE (   0.1 sec)
                      ------------------
--------------
SCF ITERATIONS
--------------
ITER       Energy         Delta-E        Max-DP      RMS-DP      [F,P]     Damp
               ***  Starting incremental Fock matrix formation  ***
  0   -115.6522283905   0.000000000000 0.03484455  0.00073290  0.2273193 0.7000
  1   -115.6883052517  -0.036076861232 0.01987623  0.00051509  0.1119117 0.7000
                               ***Turning on DIIS***
  2   -115.7047578761  -0.016452624368 0.02946757  0.00092243  0.0442577 0.0000
  3   -115.7314812029  -0.026723326869 0.01691530  0.00033940  0.0579563 0.0000
  4   -115.7359084753  -0.004427272381 0.00408997  0.00006694  0.0058979 0.0000
                      *** Initiating the SOSCF procedure ***
                           *** Shutting down DIIS ***
                      *** Re-Reading the Fockian *** 
                      *** Removing any level shift *** 
ITER      Energy       Delta-E        Grad      Rot      Max-DP    RMS-DP
  5   -115.73600187  -0.0000933924  0.000429  0.000429  0.000693  0.000022
               *** Restarting incremental Fock matrix formation ***
  6   -115.73601004  -0.0000081761  0.000170  0.000184  0.000408  0.000013
  7   -115.73601081  -0.0000007667  0.000037  0.000073  0.000185  0.000006
  8   -115.73601087  -0.0000000616  0.000019  0.000018  0.000029  0.000001
  9   -115.73601088  -0.0000000058  0.000012  0.000009  0.000016  0.000000
                  ***Gradient check signals convergence***
              ***Rediagonalizing the Fockian in SOSCF/NRSCF***

               *****************************************************
               *                     SUCCESS                       *
               *           SCF CONVERGED AFTER  10 CYCLES          *
               *****************************************************

Setting up the final grid:

General Integration Accuracy     IntAcc      ...  4.670
Radial Grid Type                 RadialGrid  ... Gauss-Chebyshev
Angular Grid (max. acc.)         AngularGrid ... Lebedev-302
Angular grid pruning method      GridPruning ... 3 (G Style)
Weight generation scheme         WeightScheme... Becke
Basis function cutoff            BFCut       ...    1.0000e-11
Integration weight cutoff        WCut        ...    1.0000e-14
Grids for H and He will be reduced by one unit

# of grid points (after initial pruning)     ...  52000 (   0.0 sec)
# of grid points (after weights+screening)   ...  49806 (   0.0 sec)
nearest neighbour list constructed           ...    0.0 sec
Grid point re-assignment to atoms done       ...    0.0 sec
Grid point division into batches done        ...    0.2 sec
Reduced shell lists constructed in    0.2 sec

Total number of grid points                  ...    49806
Total number of batches                      ...      783
Average number of points per batch           ...       63
Average number of grid points per atom       ...     4150
Average number of shells per batch           ...    39.41 (51.86%)
Average number of basis functions per batch  ...    86.34 (50.20%)
Average number of large shells per batch     ...    32.17 (81.62%)
Average number of large basis fcns per batch ...    74.21 (85.95%)
Maximum spatial batch extension              ...  15.68, 14.85, 13.62 au
Average spatial batch extension              ...   0.27,  0.27,  0.27 au

Final grid set up in    0.3 sec
Final integration                            ... done (   0.1 sec)
Change in XC energy                          ...     0.000423632
Integrated number of electrons               ...    17.999979938
Previous integrated no of electrons          ...    18.000877023

----------------
TOTAL SCF ENERGY
----------------

Total Energy       :         -115.73558725 Eh           -3149.32544 eV

Components:
Nuclear Repulsion  :           40.08373809 Eh            1090.73397 eV
Electronic Energy  :         -155.81932533 Eh           -4240.05940 eV
One Electron Energy:         -236.61417070 Eh           -6438.59892 eV
Two Electron Energy:           80.79484536 Eh            2198.53951 eV

Virial components:
Potential Energy   :         -230.90907949 Eh           -6283.35549 eV
Kinetic Energy     :          115.17349224 Eh            3134.03005 eV
Virial Ratio       :            2.00488042


DFT components:
N(Alpha)           :        8.999989969193 electrons
N(Beta)            :        8.999989969193 electrons
N(Total)           :       17.999979938385 electrons
E(XC)              :      -10.637300899576 Eh       
DFET-embed. en.    :        0.000000000000 Eh       

---------------
SCF CONVERGENCE
---------------

  Last Energy change         ...   -2.1542e-09  Tolerance :   1.0000e-08
  Last MAX-Density change    ...    2.9542e-06  Tolerance :   1.0000e-07
  Last RMS-Density change    ...    8.4428e-08  Tolerance :   5.0000e-09
  Last Orbital Gradient      ...    1.6894e-06  Tolerance :   1.0000e-05
  Last Orbital Rotation      ...    1.7143e-06  Tolerance :   1.0000e-05

             **** THE GBW FILE WAS UPDATED (9-7_DFT_A.gbw) ****
             **** DENSITY FILE WAS UPDATED (9-7_DFT_A.scfp.tmp) ****
             **** ENERGY FILE WAS UPDATED (9-7_DFT_A.en.tmp) ****
----------------
ORBITAL ENERGIES
----------------

  NO   OCC          E(Eh)            E(eV) 
   0   2.0000     -19.231033      -523.3030 
   1   2.0000     -10.318145      -280.7710 
   2   2.0000      -1.133207       -30.8361 
   3   2.0000      -0.790516       -21.5110 
   4   2.0000      -0.610137       -16.6027 
   5   2.0000      -0.536325       -14.5941 
   6   2.0000      -0.521094       -14.1797 
   7   2.0000      -0.440196       -11.9783 
   8   2.0000      -0.372623       -10.1396 
   9   0.0000       0.082531         2.2458 
  10   0.0000       0.113309         3.0833 
  11   0.0000       0.141041         3.8379 
  12   0.0000       0.173801         4.7294 
  13   0.0000       0.185484         5.0473 
  14   0.0000       0.194974         5.3055 
  15   0.0000       0.205059         5.5800 
  16   0.0000       0.210944         5.7401 
  17   0.0000       0.227505         6.1907 
  18   0.0000       0.282651         7.6913 
  19   0.0000       0.301014         8.1910 
  20   0.0000       0.311043         8.4639 
  21   0.0000       0.323633         8.8065 
  22   0.0000       0.329492         8.9659 
  23   0.0000       0.345568         9.4034 
  24   0.0000       0.400206        10.8902 
  25   0.0000       0.438445        11.9307 
  26   0.0000       0.454336        12.3631 
  27   0.0000       0.488722        13.2988 
  28   0.0000       0.502035        13.6611 
  29   0.0000       0.529665        14.4129 
  30   0.0000       0.539610        14.6835 
  31   0.0000       0.549324        14.9479 
  32   0.0000       0.561506        15.2793 
  33   0.0000       0.589911        16.0523 
  34   0.0000       0.603336        16.4176 
  35   0.0000       0.626788        17.0558 
  36   0.0000       0.674126        18.3439 
  37   0.0000       0.683199        18.5908 
  38   0.0000       0.770766        20.9736 
  39   0.0000       0.780755        21.2454 
  40   0.0000       0.805527        21.9195 
  41   0.0000       0.820450        22.3256 
  42   0.0000       0.865491        23.5512 
  43   0.0000       0.905454        24.6387 
  44   0.0000       0.987247        26.8644 
  45   0.0000       1.033590        28.1254 
  46   0.0000       1.046294        28.4711 
  47   0.0000       1.116795        30.3895 
  48   0.0000       1.141894        31.0725 
  49   0.0000       1.149708        31.2851 
  50   0.0000       1.172977        31.9183 
  51   0.0000       1.196205        32.5504 
  52   0.0000       1.215795        33.0835 
  53   0.0000       1.359633        36.9975 
  54   0.0000       1.369931        37.2777 
  55   0.0000       1.385859        37.7112 
  56   0.0000       1.450989        39.4834 
  57   0.0000       1.488197        40.4959 
  58   0.0000       1.514225        41.2042 
  59   0.0000       1.558411        42.4065 
  60   0.0000       1.592496        43.3340 
  61   0.0000       1.608404        43.7669 
  62   0.0000       1.643783        44.7296 
  63   0.0000       1.674764        45.5726 
  64   0.0000       1.680787        45.7365 
  65   0.0000       1.775328        48.3091 
  66   0.0000       1.802840        49.0578 
  67   0.0000       1.900408        51.7127 
  68   0.0000       1.921152        52.2772 
  69   0.0000       1.957717        53.2722 
  70   0.0000       2.025306        55.1114 
  71   0.0000       2.055578        55.9351 
  72   0.0000       2.089602        56.8610 
  73   0.0000       2.096196        57.0404 
  74   0.0000       2.121389        57.7259 
  75   0.0000       2.172056        59.1047 
  76   0.0000       2.195240        59.7355 
  77   0.0000       2.221232        60.4428 
  78   0.0000       2.258119        61.4465 
  79   0.0000       2.298342        62.5411 
  80   0.0000       2.335628        63.5557 
  81   0.0000       2.345693        63.8295 
  82   0.0000       2.393049        65.1182 
  83   0.0000       2.436789        66.3084 
  84   0.0000       2.476234        67.3818 
  85   0.0000       2.498896        67.9984 
  86   0.0000       2.586312        70.3771 
  87   0.0000       2.589551        70.4653 
  88   0.0000       2.616164        71.1895 
  89   0.0000       2.641263        71.8724 
  90   0.0000       2.680967        72.9528 
  91   0.0000       2.710562        73.7581 
  92   0.0000       2.819678        76.7273 
  93   0.0000       2.827889        76.9508 
  94   0.0000       2.857275        77.7504 
  95   0.0000       2.908704        79.1499 
  96   0.0000       2.935041        79.8665 
  97   0.0000       2.983501        81.1852 
  98   0.0000       3.054212        83.1093 
  99   0.0000       3.094575        84.2077 
 100   0.0000       3.097521        84.2878 
 101   0.0000       3.154075        85.8268 
 102   0.0000       3.156121        85.8824 
 103   0.0000       3.205017        87.2130 
 104   0.0000       3.280929        89.2786 
 105   0.0000       3.289073        89.5002 
 106   0.0000       3.318409        90.2985 
 107   0.0000       3.373423        91.7955 
 108   0.0000       3.402050        92.5745 
 109   0.0000       3.405646        92.6723 
 110   0.0000       3.499244        95.2193 
 111   0.0000       3.599478        97.9468 
 112   0.0000       3.627902        98.7202 
 113   0.0000       3.637358        98.9775 
 114   0.0000       3.645782        99.2068 
 115   0.0000       3.683075       100.2216 
 116   0.0000       3.763423       102.4080 
 117   0.0000       3.985433       108.4491 
 118   0.0000       4.085131       111.1621 
 119   0.0000       4.200541       114.3025 
 120   0.0000       4.203440       114.3814 
 121   0.0000       4.259023       115.8939 
 122   0.0000       4.275036       116.3297 
 123   0.0000       4.290612       116.7535 
 124   0.0000       4.316547       117.4592 
 125   0.0000       4.434264       120.6625 
 126   0.0000       4.512393       122.7885 
 127   0.0000       4.531472       123.3076 
 128   0.0000       4.550516       123.8258 
 129   0.0000       4.556782       123.9964 
 130   0.0000       4.597889       125.1149 
 131   0.0000       5.021380       136.6387 
 132   0.0000       5.071090       137.9914 
 133   0.0000       5.091241       138.5397 
 134   0.0000       5.347215       145.5051 
 135   0.0000       5.390717       146.6889 
 136   0.0000       5.405466       147.0902 
 137   0.0000       5.430802       147.7796 
 138   0.0000       5.540310       150.7595 
 139   0.0000       5.778641       157.2448 
 140   0.0000       5.800383       157.8365 
 141   0.0000       5.840086       158.9168 
 142   0.0000       5.973940       162.5592 
 143   0.0000       5.974566       162.5762 
 144   0.0000       6.156295       167.5213 
 145   0.0000       6.335009       172.3844 
 146   0.0000       6.528566       177.6513 
 147   0.0000       6.612536       179.9363 
 148   0.0000       6.706057       182.4811 
 149   0.0000       6.762667       184.0215 
 150   0.0000       6.797181       184.9607 
 151   0.0000       6.864831       186.8015 
 152   0.0000       7.035648       191.4497 
 153   0.0000       7.139091       194.2645 
 154   0.0000       7.196578       195.8288 
 155   0.0000       7.280019       198.0994 
 156   0.0000       7.461630       203.0413 
 157   0.0000       8.158388       222.0010 
 158   0.0000       8.871343       241.4015 
 159   0.0000       9.317643       253.5460 
 160   0.0000       9.547664       259.8051 
 161   0.0000       9.560862       260.1643 
 162   0.0000       9.794093       266.5108 
 163   0.0000       9.884596       268.9735 
 164   0.0000       9.945480       270.6303 
 165   0.0000      10.100922       274.8601 
 166   0.0000      11.194506       304.6180 
 167   0.0000      19.094900       519.5987 
[...]
  82   0.0000       2.413274        65.6685 
  83   0.0000       2.465994        67.1031 
  84   0.0000       2.502028        68.0836 
  85   0.0000       2.505035        68.1655 
  86   0.0000       2.556078        69.5544 
  87   0.0000       2.615021        71.1583 
  88   0.0000       2.624910        71.4274 
  89   0.0000       2.655547        72.2611 
  90   0.0000       2.660424        72.3938 
  91   0.0000       2.682947        73.0067 
  92   0.0000       2.817156        76.6587 
  93   0.0000       2.866476        78.0008 
  94   0.0000       2.873898        78.2028 
  95   0.0000       2.909208        79.1636 
  96   0.0000       2.928263        79.6821 
  97   0.0000       2.979410        81.0739 
  98   0.0000       3.030450        82.4627 
  99   0.0000       3.091588        84.1264 
 100   0.0000       3.114720        84.7558 
 101   0.0000       3.161587        86.0312 
 102   0.0000       3.176982        86.4501 
 103   0.0000       3.202342        87.1402 
 104   0.0000       3.311449        90.1091 
 105   0.0000       3.323765        90.4442 
 106   0.0000       3.369948        91.7009 
 107   0.0000       3.404576        92.6432 
 108   0.0000       3.427180        93.2583 
 109   0.0000       3.474078        94.5345 
 110   0.0000       3.530523        96.0704 
 111   0.0000       3.572783        97.2204 
 112   0.0000       3.608744        98.1989 
 113   0.0000       3.643135        99.1347 
 114   0.0000       3.648357        99.2769 
 115   0.0000       3.667301        99.7923 
 116   0.0000       3.749383       102.0259 
 117   0.0000       4.023041       109.4725 
 118   0.0000       4.062128       110.5361 
 119   0.0000       4.168332       113.4261 
 120   0.0000       4.222526       114.9008 
 121   0.0000       4.235230       115.2465 
 122   0.0000       4.284047       116.5748 
 123   0.0000       4.303227       117.0968 
 124   0.0000       4.325593       117.7054 
 125   0.0000       4.487069       122.0994 
 126   0.0000       4.513604       122.8214 
 127   0.0000       4.543153       123.6255 
 128   0.0000       4.552784       123.8875 
 129   0.0000       4.558678       124.0479 
 130   0.0000       4.597123       125.0941 
 131   0.0000       4.998298       136.0106 
 132   0.0000       5.057725       137.6277 
 133   0.0000       5.063395       137.7820 
 134   0.0000       5.306700       144.4026 
 135   0.0000       5.360460       145.8655 
 136   0.0000       5.424911       147.6193 
 137   0.0000       5.432104       147.8151 
 138   0.0000       5.575631       151.7206 
 139   0.0000       5.800552       157.8410 
 140   0.0000       5.837362       158.8427 
 141   0.0000       5.846762       159.0985 
 142   0.0000       5.852812       159.2631 
 143   0.0000       5.938094       161.5837 
 144   0.0000       5.998616       163.2306 
 145   0.0000       6.389225       173.8596 
 146   0.0000       6.540668       177.9806 
 147   0.0000       6.596502       179.5000 
 148   0.0000       6.703631       182.4151 
 149   0.0000       6.767163       184.1439 
 150   0.0000       6.822186       185.6411 
 151   0.0000       6.824582       185.7063 
 152   0.0000       7.043788       191.6712 
 153   0.0000       7.053251       191.9287 
 154   0.0000       7.205570       196.0735 
 155   0.0000       7.225591       196.6183 
 156   0.0000       7.386870       201.0069 
 157   0.0000       8.050644       219.0692 
 158   0.0000       8.855545       240.9716 
 159   0.0000       9.317706       253.5477 
 160   0.0000       9.526499       259.2292 
 161   0.0000       9.551218       259.9019 
 162   0.0000       9.774002       265.9641 
 163   0.0000       9.862638       268.3760 
 164   0.0000       9.934254       270.3248 
 165   0.0000      10.045623       273.3553 
 166   0.0000      11.125450       302.7389 
 167   0.0000      19.087751       519.4041 
 168   0.0000      22.499071       612.2308 
 169   0.0000      43.669794      1188.3155 
 170   0.0000      65.817350      1790.9811 
 171   0.0000     126.399538      3439.5063 

                    ********************************
                    * MULLIKEN POPULATION ANALYSIS *
                    ********************************

-----------------------
MULLIKEN ATOMIC CHARGES
-----------------------
   0 C :    0.000021
   1 O :   -0.000000
   2 H :   -0.000000
   3 H :   -0.000037
   4 H :   -0.000005
   5 H :   -0.000020
   6 C :   -0.147803
   7 O :   -0.479834
   8 H :    0.313763
   9 H :    0.103549
  10 H :    0.097571
  11 H :    0.112795
Sum of atomic charges:    0.0000000

--------------------------------
MULLIKEN REDUCED ORBITAL CHARGES
--------------------------------
  0 C s       :    -0.000024  s :    -0.000024
      pz      :     0.000004  p :     0.000002
      px      :     0.000005
      py      :    -0.000007
      dz2     :     0.000000  d :     0.000000
      dxz     :    -0.000000
      dyz     :     0.000000
      dx2y2   :     0.000000
      dxy     :     0.000000
      f0      :    -0.000000  f :    -0.000000
      f+1     :    -0.000000
      f-1     :     0.000000
      f+2     :     0.000000
      f-2     :    -0.000000
      f+3     :    -0.000000
      f-3     :    -0.000000
  1 O s       :     0.000000  s :     0.000000
      pz      :     0.000000  p :     0.000000
      px      :     0.000000
      py      :     0.000000
      dz2     :     0.000000  d :    -0.000000
      dxz     :     0.000000
      dyz     :    -0.000000
      dx2y2   :    -0.000000
      dxy     :    -0.000000
      f0      :    -0.000000  f :    -0.000000
      f+1     :     0.000000
      f-1     :     0.000000
      f+2     :    -0.000000
      f-2     :     0.000000
      f+3     :    -0.000000
      f-3     :    -0.000000
  2 H s       :     0.000000  s :     0.000000
      pz      :    -0.000000  p :    -0.000000
      px      :    -0.000000
      py      :    -0.000000
  3 H s       :     0.000037  s :     0.000037
      pz      :     0.000000  p :     0.000000
      px      :    -0.000000
      py      :     0.000000
  4 H s       :     0.000005  s :     0.000005
      pz      :    -0.000000  p :    -0.000000
      px      :     0.000000
      py      :     0.000000
  5 H s       :     0.000019  s :     0.000019
      pz      :     0.000000  p :     0.000000
      px      :     0.000000
      py      :     0.000000
  6 C s       :     3.216020  s :     3.216020
      pz      :     0.751440  p :     2.827303
      px      :     1.069307
      py      :     1.006556
      dz2     :     0.021870  d :     0.096746
      dxz     :     0.029723
      dyz     :     0.027709
      dx2y2   :     0.013744
      dxy     :     0.003700
      f0      :     0.002214  f :     0.007734
      f+1     :     0.001602
      f-1     :     0.001698
      f+2     :     0.000874
      f-2     :     0.000776
      f+3     :     0.000351
      f-3     :     0.000219
  7 O s       :     3.789421  s :     3.789421
      pz      :     1.322891  p :     4.657914
      px      :     1.542440
      py      :     1.792584
      dz2     :     0.006193  d :     0.030763
      dxz     :     0.008920
      dyz     :     0.006814
      dx2y2   :     0.005234
      dxy     :     0.003602
      f0      :     0.000394  f :     0.001736
      f+1     :     0.000161
      f-1     :     0.000352
      f+2     :     0.000395
      f-2     :     0.000168
      f+3     :     0.000123
      f-3     :     0.000144
  8 H s       :     0.637433  s :     0.637433
      pz      :     0.014310  p :     0.048804
      px      :     0.017665
      py      :     0.016829
  9 H s       :     0.875777  s :     0.875777
      pz      :     0.003235  p :     0.020674
      px      :     0.005123
      py      :     0.012317
 10 H s       :     0.882900  s :     0.882900
      pz      :     0.003999  p :     0.019529
      px      :     0.011377
      py      :     0.004153
 11 H s       :     0.866974  s :     0.866974
      pz      :     0.006997  p :     0.020231
      px      :     0.007017
      py      :     0.006217


                     *******************************
                     * LOEWDIN POPULATION ANALYSIS *
                     *******************************

----------------------
LOEWDIN ATOMIC CHARGES
----------------------
   0 C :   -0.000034
   1 O :   -0.000001
   2 H :   -0.000000
   3 H :   -0.000015
   4 H :   -0.000002
   5 H :   -0.000024
   6 C :   -0.381943
   7 O :   -0.068346
   8 H :    0.161902
   9 H :    0.085537
  10 H :    0.093277
  11 H :    0.109649

-------------------------------
LOEWDIN REDUCED ORBITAL CHARGES
-------------------------------
  0 C s       :     0.000002  s :     0.000002
      pz      :     0.000020  p :     0.000031
      px      :     0.000004
      py      :     0.000008
      dz2     :     0.000000  d :     0.000000
      dxz     :     0.000000
      dyz     :     0.000000
      dx2y2   :     0.000000
      dxy     :     0.000000
      f0      :     0.000000  f :     0.000000
      f+1     :     0.000000
      f-1     :     0.000000
      f+2     :     0.000000
      f-2     :     0.000000
      f+3     :     0.000000
      f-3     :     0.000000
  1 O s       :     0.000000  s :     0.000000
      pz      :     0.000000  p :     0.000000
      px      :     0.000000
      py      :     0.000000
      dz2     :     0.000000  d :     0.000000
      dxz     :     0.000000
      dyz     :     0.000000
      dx2y2   :     0.000000
      dxy     :     0.000000
      f0      :     0.000000  f :     0.000000
      f+1     :     0.000000
      f-1     :     0.000000
      f+2     :     0.000000
      f-2     :     0.000000
      f+3     :     0.000000
      f-3     :     0.000000
  2 H s       :     0.000000  s :     0.000000
      pz      :     0.000000  p :     0.000000
      px      :     0.000000
      py      :     0.000000
  3 H s       :     0.000015  s :     0.000015
      pz      :     0.000000  p :     0.000000
      px      :     0.000000
      py      :     0.000000
  4 H s       :     0.000002  s :     0.000002
      pz      :     0.000000  p :     0.000000
      px      :     0.000000
      py      :     0.000000
  5 H s       :     0.000024  s :     0.000024
      pz      :     0.000000  p :     0.000000
      px      :     0.000000
      py      :     0.000000
  6 C s       :     2.851956  s :     2.851956
      pz      :     0.878814  p :     3.052758
      px      :     1.106081
      py      :     1.067863
      dz2     :     0.106248  d :     0.417568
      dxz     :     0.108839
      dyz     :     0.109467
      dx2y2   :     0.073571
      dxy     :     0.019443
      f0      :     0.015613  f :     0.059660
      f+1     :     0.011483
      f-1     :     0.014770
      f+2     :     0.005490
      f-2     :     0.008255
      f+3     :     0.002436
      f-3     :     0.001614
  7 O s       :     3.355560  s :     3.355560
      pz      :     1.373122  p :     4.634924
      px      :     1.533735
      py      :     1.728067
      dz2     :     0.017586  d :     0.073002
      dxz     :     0.025448
      dyz     :     0.017166
      dx2y2   :     0.008735
      dxy     :     0.004066
      f0      :     0.001314  f :     0.004861
      f+1     :     0.000653
      f-1     :     0.000896
      f+2     :     0.000899
      f-2     :     0.000637
      f+3     :     0.000236
      f-3     :     0.000226
  8 H s       :     0.675231  s :     0.675231
      pz      :     0.040578  p :     0.162868
      px      :     0.073179
      py      :     0.049111
  9 H s       :     0.847473  s :     0.847473
      pz      :     0.011046  p :     0.066989
      px      :     0.017456
      py      :     0.038487
 10 H s       :     0.845150  s :     0.845150
      pz      :     0.013199  p :     0.061572
      px      :     0.034738
      py      :     0.013636
 11 H s       :     0.832484  s :     0.832484
      pz      :     0.018635  p :     0.057867
      px      :     0.020443
      py      :     0.018790


                      *****************************
                      * MAYER POPULATION ANALYSIS *
                      *****************************

  NA   - Mulliken gross atomic population
  ZA   - Total nuclear charge
  QA   - Mulliken gross atomic charge
  VA   - Mayer's total valence
  BVA  - Mayer's bonded valence
  FA   - Mayer's free valence

  ATOM       NA         ZA         QA         VA         BVA        FA
  0 C     -0.0000     0.0000     0.0000    -0.0000    -0.0000    -0.0000
  1 O      0.0000     0.0000    -0.0000     0.0000     0.0000    -0.0000
  2 H      0.0000     0.0000    -0.0000     0.0000     0.0000    -0.0000
  3 H      0.0000     0.0000    -0.0000     0.0001     0.0001     0.0000
  4 H      0.0000     0.0000    -0.0000     0.0000     0.0000     0.0000
  5 H      0.0000     0.0000    -0.0000     0.0000     0.0000     0.0000
  6 C      6.1478     6.0000    -0.1478     3.9447     3.9447     0.0000
  7 O      8.4798     8.0000    -0.4798     1.8790     1.8790     0.0000
  8 H      0.6862     1.0000     0.3138     0.9137     0.9137    -0.0000
  9 H      0.8965     1.0000     0.1035     0.9539     0.9539     0.0000
 10 H      0.9024     1.0000     0.0976     0.9629     0.9629     0.0000
 11 H      0.8872     1.0000     0.1128     0.9603     0.9603    -0.0000

  Mayer bond orders larger than 0.1
B(  6-C ,  7-O ) :   0.9967 B(  6-C ,  9-H ) :   0.9745 B(  6-C , 10-H ) :   0.9882 
B(  6-C , 11-H ) :   0.9745 B(  7-O ,  8-H ) :   0.9017 

-------
TIMINGS
-------

Total SCF time: 0 days 0 hours 0 min 7 sec 

Total time                  ....       7.092 sec
Sum of individual times     ....       6.801 sec  ( 95.9%)

Fock matrix formation       ....       6.246 sec  ( 88.1%)
  XC integration            ....       0.707 sec  ( 11.3% of F)
    Basis function eval.    ....       0.054 sec  (  7.6% of XC)
    Density eval.           ....       0.048 sec  (  6.9% of XC)
    XC-Functional eval.     ....       0.111 sec  ( 15.7% of XC)
    XC-Potential eval.      ....       0.049 sec  (  6.9% of XC)
Diagonalization             ....       0.047 sec  (  0.7%)
Density matrix formation    ....       0.004 sec  (  0.1%)
Population analysis         ....       0.016 sec  (  0.2%)
Initial guess               ....       0.091 sec  (  1.3%)
Orbital Transformation      ....       0.000 sec  (  0.0%)
Orbital Orthonormalization  ....       0.000 sec  (  0.0%)
DIIS solution               ....       0.039 sec  (  0.5%)
SOSCF solution              ....       0.021 sec  (  0.3%)
Grid generation             ....       0.337 sec  (  4.7%)


-------------------------------------------------------------------------------
                          DFT DISPERSION CORRECTION                            
                                                                               
                              DFTD3 V3.1  Rev 1                                
                              USING zero damping                               
-------------------------------------------------------------------------------
The omegaB97X-D3 functional is recognized. Fit by Chai et al.
Active option DFTDOPT                   ...         3   

molecular C6(AA) [au] = 208.655693 


            DFT-D V3
 parameters
 s6 scaling factor         :     1.0000 
 rs6 scaling factor        :     1.2810 
 s8 scaling factor         :     1.0000 
 rs8 scaling factor        :     1.0940 
 Damping factor alpha6     :    14.0000 
 Damping factor alpha8     :    16.0000 
 ad hoc parameters k1-k3   :    16.0000     1.3333    -4.0000 

 Edisp/kcal,au: -0.137090155978  -0.000218467046 
 E6   /kcal   :  -0.027013770 
 E8   /kcal   :  -0.110076386 
 % E8         :  80.294886892 

-------------------------   ----------------
Dispersion correction           -0.000218467
-------------------------   ----------------


-------------------------   --------------------
FINAL SINGLE POINT ENERGY      -115.734516365797
-------------------------   --------------------


                            ***************************************
                            *     ORCA property calculations      *
                            ***************************************

                                    ---------------------
                                    Active property flags
                                    ---------------------
   (+) Dipole Moment


------------------------------------------------------------------------------
                       ORCA ELECTRIC PROPERTIES CALCULATION
------------------------------------------------------------------------------

Dipole Moment Calculation                       ... on
Quadrupole Moment Calculation                   ... off
Polarizability Calculation                      ... off
GBWName                                         ... 9-7_DFT_B.gbw
Electron density file                           ... 9-7_DFT_B.scfp.tmp
The origin for moment calculation is the CENTER OF MASS  = ( 5.668705, 13.039791  3.082806)

-------------
DIPOLE MOMENT
-------------
                                X             Y             Z
Electronic contribution:      0.34242       0.69514       1.57857
Nuclear contribution   :     -0.91637      -1.04501      -1.77813
                        -----------------------------------------
Total Dipole Moment    :     -0.57395      -0.34987      -0.19955
                        -----------------------------------------
Magnitude (a.u.)       :      0.70118
Magnitude (Debye)      :      1.78225



--------------------
Rotational spectrum 
--------------------
 
Rotational constants in cm-1:     4.369650     0.852024     0.818151 
Rotational constants in MHz : 130998.808968 25543.035133 24527.545105 

 Dipole components along the rotational axes: 
x,y,z [a.u.] :    -0.338901     0.609744    -0.070754 
x,y,z [Debye]:    -0.861419     1.549846    -0.179843 

 
------------------------------------------------------------------------------
                      ORCA CHELPG CHARGES GENERATION
------------------------------------------------------------------------------

GBW file                           ... 9-7_DFT_B.gbw

Reading the GBW file               ... done

Grid spacing                       ...     0.300000
Point Cut-Off                      ...     2.800000
Van-der-Waals Radii                ...        COSMO
Total charge                       ...            0


Number of points X direction       ...           33
Number of points Y direction       ...           32
Number of points Z direction       ...           42
Maximum number of possible points  ...        44352
Final number of points             ...         5893


CHELPG Charges            
--------------------------------
  0   C   :       0.126701
  1   O   :       0.004856
  2   H   :       0.042598
  3   H   :      -0.010101
  4   H   :      -0.104134
  5   H   :      -0.086400
  6   C   :       0.069487
  7   O   :      -0.624029
  8   H   :       0.411627
  9   H   :       0.049520
 10   H   :       0.019997
 11   H   :       0.099877
--------------------------------
Total charge:     0.000000
--------------------------------

CHELPG charges calculated...

Timings for individual parts in CHELPG calculation:
Grid generation                 ...        0.002 sec (=   0.000 min)
Potential calculation           ...        1.013 sec (=   0.017 min)
Fit to the potential            ...        0.002 sec (=   0.000 min)
------------------------------------------------------------------------------


Timings for individual modules:

Sum of individual times         ...        9.246 sec (=   0.154 min)
GTO integral calculation        ...        0.611 sec (=   0.010 min)   6.6 %
SCF iterations                  ...        7.586 sec (=   0.126 min)  82.1 %
CHELPG charge generation        ...        1.048 sec (=   0.017 min)  11.3 %



                             ****ORCA TERMINATED NORMALLY****
TOTAL RUN TIME: 0 days 0 hours 0 minutes 38 seconds 812 msec
