LAMMPS data file via write_data, version 11 Aug 2017, timestep = 210000

1002 atoms
4 atom types
835 bonds
3 bond types
1169 angles
3 angle types
501 dihedrals
1 dihedral types

-1.1299208893453901e+01 1.1299208893453901e+01 xlo xhi
-1.1299208893453901e+01 1.1299208893453901e+01 ylo yhi
-1.1299208893453901e+01 1.1299208893453901e+01 zlo zhi

Masses

1 1.00794
2 1.00794
3 12.011
4 15.9994

Bond Coeffs # harmonic

1 366.904 1.0961
2 612.22 0.957501
3 368.71 1.41153

Angle Coeffs # harmonic

1 40.9267 108.205
2 61.3287 112.232
3 49.873 108.742

Atoms # full

443 73 1 3.1932000000000002e-02 -1.0393834493234836e+01 -7.3801891079138233e+00 -5.9479230996391479e+00 -1 2 -3
705 117 2 4.0257300000000001e-01 -6.8759671944702747e+00 -6.0316832870641823e+00 -8.6374028179064961e+00 1 3 -1
592 98 1 3.1932000000000002e-02 -8.0430755390114506e+00 -8.7661741910511459e+00 -5.8323334844787640e+00 -1 -4 0
668 111 4 -5.9782299999999999e-01 -7.7673538814218883e+00 -8.5188153494326642e+00 -8.1555616270932045e+00 0 -3 0
672 111 1 3.1932000000000002e-02 -9.8640160705058797e+00 -8.0893326641831536e+00 -8.4402730450322156e+00 0 -3 0
670 111 1 3.1932000000000002e-02 -9.1145376975888670e+00 -9.1247532157092319e+00 -9.7030504363182626e+00 0 -3 0
149 24 1 3.1932000000000002e-02 -1.0938222474525260e+01 -1.1044016875005896e+01 -1.0000185557029454e+01 2 1 1
667 111 3 9.9454000000000001e-02 -9.0742168716638094e+00 -8.8400367223765528e+00 -8.6714882084370615e+00 0 -3 0
734 122 4 -5.9782299999999999e-01 -5.8406818282392470e+00 -9.7373621504036887e+00 -9.8334849535527109e+00 2 0 0
669 111 2 4.0257300000000001e-01 -6.9923535203986855e+00 -8.7946904916696589e+00 -8.7295636384229454e+00 0 -3 0
671 111 1 3.1932000000000002e-02 -9.3793665497646881e+00 -9.7566145592732543e+00 -8.1691508795864802e+00 0 -3 0
688 114 1 3.1932000000000002e-02 -9.0824120766416065e+00 -1.1102621386939452e+01 -6.0532516070645999e+00 0 2 0
771 128 2 4.0257300000000001e-01 -8.2306306863263607e+00 -7.6488433323555940e+00 -1.0910720002114275e+01 4 0 -2
735 122 2 4.0257300000000001e-01 -6.1643464794680227e+00 -9.5332930363908375e+00 -1.0707347138838841e+01 2 0 0
708 117 1 3.1932000000000002e-02 -9.2558620145204245e+00 -5.8797012940041622e+00 -8.5881886239524139e+00 1 3 -1
166 27 1 3.1932000000000002e-02 -7.9197156475822279e+00 -7.6849007269726854e+00 -1.0001113922943503e+00 2 2 -1
163 27 3 9.9454000000000001e-02 -7.2250537958051453e+00 -8.4162244398971140e+00 -6.5060620758531584e-01 2 2 -1
591 98 2 4.0257300000000001e-01 -8.3950153556511378e+00 -1.0395628236422786e+01 -4.0922898205599152e+00 -1 -4 0
164 27 4 -5.9782299999999999e-01 -7.6476411571106588e+00 -9.6879575899679011e+00 -1.0272712395158106e+00 2 2 -1
168 27 1 3.1932000000000002e-02 -6.1843333496513822e+00 -8.1701150851385407e+00 -1.0281314606615695e+00 2 2 -1
552 91 1 3.1932000000000002e-02 -9.8549269069970418e+00 -6.0040942239627952e+00 -9.0187179083182301e-02 0 -1 3
636 105 1 3.1932000000000002e-02 -1.0569154500627318e+01 -9.4117159958766408e+00 -2.3677679607424089e+00 5 -4 -2
590 98 4 -5.9782299999999999e-01 -8.2845675323669496e+00 -9.4814084267968965e+00 -3.8672604121508609e+00 -1 -4 0
589 98 3 9.9454000000000001e-02 -7.5024347298025376e+00 -8.7763640099173656e+00 -4.8385449693802052e+00 -1 -4 0
594 98 1 3.1932000000000002e-02 -6.5641610401248922e+00 -9.3189570690869719e+00 -5.0112063869919332e+00 -1 -4 0
873 145 2 4.0257300000000001e-01 -9.1808020808252486e+00 -1.0860576546359743e+01 -4.2938580431691520e-01 4 1 1
165 27 2 4.0257300000000001e-01 -7.9556705088033910e+00 -9.5833637207620992e+00 -1.9428563465092719e+00 2 2 -1
593 98 1 3.1932000000000002e-02 -7.3033503622897200e+00 -7.7870415512906543e+00 -4.5609289921991509e+00 -1 -4 0
406 67 1 3.1932000000000002e-02 -8.2750865793677590e+00 -6.0240617184008496e+00 -3.7937073211577239e+00 1 2 1
550 91 1 3.1932000000000002e-02 -1.0900296293721860e+01 -5.6633468228369974e+00 -1.2833804674266673e+00 0 -1 3
870 144 1 3.1932000000000002e-02 -7.7426334158981120e+00 -1.0934092724468632e+01 1.7298334021807626e+00 0 0 1
841 140 3 9.9454000000000001e-02 -9.0676125018915705e+00 -6.1568127161987096e+00 2.4484521192754904e+00 -3 -3 -2
698 116 4 -5.9782299999999999e-01 -1.1078062063097777e+01 -1.0065414540834364e+01 5.4084696122810207e+00 0 2 -3
867 144 2 4.0257300000000001e-01 -6.9398023709354124e+00 -1.0097836253022189e+01 3.5574582105977495e+00 0 0 1
177 29 2 4.0257300000000001e-01 -9.2340077372579259e+00 -9.9858184462847941e+00 5.2753103615770840e+00 0 2 1
866 144 4 -5.9782299999999999e-01 -6.2270349499786306e+00 -1.0248214582582161e+01 2.9078573066643951e+00 0 0 1
844 140 1 3.1932000000000002e-02 -9.1271517221045961e+00 -7.1153924957359562e+00 2.0099353126236199e+00 -3 -3 -2
167 27 1 3.1932000000000002e-02 -7.3162079750448727e+00 -8.1803977280478577e+00 4.4372727758850061e-01 2 2 -1
702 116 1 3.1932000000000002e-02 -1.0758389860660186e+01 -8.3479107104007788e+00 4.2128264596797553e+00 0 2 -3
176 29 4 -5.9782299999999999e-01 -8.3307942972545455e+00 -9.9450754810923545e+00 4.9466756190788885e+00 0 2 1
865 144 3 9.9454000000000001e-02 -6.6866044754822775e+00 -1.1184231428321217e+01 1.9446859372208483e+00 0 0 1
846 140 1 3.1932000000000002e-02 -8.1449453159544944e+00 -6.1874560625363344e+00 2.9713271927261218e+00 -3 -3 -2
868 144 1 3.1932000000000002e-02 -6.2060818485609426e+00 -1.1189582762428245e+01 9.5165077609497040e-01 0 0 1
180 29 1 3.1932000000000002e-02 -6.3584532019708728e+00 -9.3478040045929340e+00 5.3140470251720089e+00 0 2 1
842 140 4 -5.9782299999999999e-01 -1.0200070058655594e+01 -5.8406774709955629e+00 3.1956074112063781e+00 -3 -3 -2
774 128 1 3.1932000000000002e-02 -8.1663663221389253e+00 -6.0998941804604838e+00 9.9047982486282038e+00 4 0 -3
915 152 2 4.0257300000000001e-01 -7.5004498183556709e+00 -1.0085158377336340e+01 9.4156590579580985e+00 2 1 -2
770 128 4 -5.9782299999999999e-01 -7.5094054068634151e+00 -7.6678441935003914e+00 1.1033834831593602e+01 4 0 -3
178 29 1 3.1932000000000002e-02 -7.5283742514191898e+00 -8.6699660575631832e+00 6.4484567355154887e+00 0 2 1
338 56 4 -5.9782299999999999e-01 -9.3077152201617928e+00 -1.0038298123398890e+01 8.5990339104247617e+00 3 1 3
769 128 3 9.9454000000000001e-02 -8.1031317759177899e+00 -7.1635897510170281e+00 9.8836079507281447e+00 4 0 -3
817 136 3 9.9454000000000001e-02 -1.0636336483197063e+01 -5.8915496049940490e+00 6.9460183930968995e+00 1 2 -1
339 56 2 4.0257300000000001e-01 -9.6856746006404215e+00 -1.0101505435086528e+01 7.6861552477621267e+00 3 1 3
772 128 1 3.1932000000000002e-02 -7.4407099643515551e+00 -7.3460641574325365e+00 8.9790651979841805e+00 4 0 -3
809 134 1 3.1932000000000002e-02 -6.9584727109374676e+00 -5.7323687859838541e+00 6.1712816429386059e+00 2 3 -4
337 56 3 9.9454000000000001e-02 -1.0480083244386632e+01 -9.9596500829801293e+00 9.4169081807192043e+00 3 1 3
140 23 4 -5.9782299999999999e-01 -1.0738638599038072e+01 -6.6531041511519984e+00 1.1112650289030992e+01 0 2 0
821 136 1 3.1932000000000002e-02 -1.1133421586259766e+01 -6.8113222018243311e+00 6.6923425428157053e+00 1 2 -1
914 152 4 -5.9782299999999999e-01 -6.8138580103221420e+00 -1.0409530392946609e+01 9.9294702259192462e+00 2 1 -2
342 56 1 3.1932000000000002e-02 -1.0212196407743129e+01 -9.3050571298980458e+00 1.0258990698278005e+01 3 1 3
773 128 1 3.1932000000000002e-02 -9.1066249902743088e+00 -7.6151272061365018e+00 9.6291539668759896e+00 4 0 -3
179 29 1 3.1932000000000002e-02 -6.9091017550491074e+00 -1.0431379626388789e+01 6.4780692963771216e+00 0 2 1
341 56 1 3.1932000000000002e-02 -1.0744242631029834e+01 -1.0965322022794274e+01 9.7466311142399071e+00 3 1 3
175 29 3 9.9454000000000001e-02 -7.2714822736826861e+00 -9.5652878083192530e+00 5.8553225923470045e+00 0 2 1
822 136 1 3.1932000000000002e-02 -9.6456551083204349e+00 -6.0213689443911189e+00 7.3790626143136144e+00 1 2 -1
471 78 2 4.0257300000000001e-01 -7.7648366624734084e+00 -4.0278419462737611e+00 -1.0436199288628822e+01 0 1 2
894 148 1 3.1932000000000002e-02 -8.2841176836086596e+00 -1.1430446045568665e-01 -1.0342330112784690e+01 0 0 4
703 117 3 9.9454000000000001e-02 -8.5413633025666336e+00 -5.1883562035985413e+00 -8.2134377501139504e+00 1 3 -1
706 117 1 3.1932000000000002e-02 -8.4279985838650582e+00 -5.3303378769066869e+00 -7.2225857931661723e+00 1 3 -1
704 117 4 -5.9782299999999999e-01 -7.3288015179795512e+00 -5.2530871689142424e+00 -8.9594224889909668e+00 1 3 -1
707 117 1 3.1932000000000002e-02 -8.9940299676568873e+00 -4.1958400946136978e+00 -8.2517129659290323e+00 1 3 -1
320 53 4 -5.9782299999999999e-01 -6.9003157007520874e+00 -4.1909374589062942e-01 -7.8388945784660571e+00 0 0 -1
470 78 4 -5.9782299999999999e-01 -7.7152851957387156e+00 -3.2808608363253633e+00 -1.1051325288677297e+01 0 1 2
321 53 2 4.0257300000000001e-01 -7.6036486688444356e+00 -5.5173077832089135e-01 -7.2210316557388685e+00 0 0 -1
889 148 3 9.9454000000000001e-02 -8.8243562541963456e+00 -6.9254241893023760e-02 -1.1291163889335332e+01 0 0 4
181 30 3 9.9454000000000001e-02 -9.2487083987099901e+00 -2.2518710374220881e+00 -6.2117652148779712e+00 -2 -2 1
182 30 4 -5.9782299999999999e-01 -7.8432013213398886e+00 -2.2799302775564509e+00 -5.9150554451285258e+00 -2 -2 1
186 30 1 3.1932000000000002e-02 -9.8189516344725956e+00 -1.3468311770937724e+00 -6.1135137848133638e+00 -2 -2 1
184 30 1 3.1932000000000002e-02 -9.5015622907625961e+00 -2.4883308792337999e+00 -7.2500201168069731e+00 -2 -2 1
955 159 3 9.9454000000000001e-02 -7.5843587949782876e+00 -2.9435529123757398e+00 -4.7365123462173031e-01 -1 3 -2
522 86 1 3.1932000000000002e-02 -5.9758355637228551e+00 -1.8591320364383979e+00 -3.6945239526943467e+00 1 0 -1
228 37 1 3.1932000000000002e-02 -8.5381059376896058e+00 -8.4296174146743930e-01 -2.0847112740636469e+00 1 -2 0
958 159 1 3.1932000000000002e-02 -8.5946508235122732e+00 -2.5974529591910382e+00 -6.3264912518839189e-01 -1 3 -2
403 67 3 9.9454000000000001e-02 -8.4727968575796559e+00 -4.9869879207725702e+00 -3.6449280791541678e+00 1 2 1
960 159 1 3.1932000000000002e-02 -7.5445528430203073e+00 -3.9218842314462723e+00 -1.0368216933553356e+00 -1 3 -2
185 30 1 3.1932000000000002e-02 -9.8172220707114697e+00 -2.9978807966080314e+00 -5.6226129154643765e+00 -2 -2 1
183 30 2 4.0257300000000001e-01 -7.8009051572762660e+00 -2.0832750700914247e+00 -4.9227500835298121e+00 -2 -2 1
547 91 3 9.9454000000000001e-02 -1.0533280370166633e+01 -5.1867872883388753e+00 -3.6341250845969952e-01 0 -1 3
959 159 1 3.1932000000000002e-02 -6.8947382599320797e+00 -2.3259704225064777e+00 -1.0469166016390030e+00 -1 3 -2
610 101 1 3.1932000000000002e-02 -1.1209572275973017e+01 -1.9365928670518606e+00 -2.0356741402223655e+00 -2 -2 1
405 67 2 4.0257300000000001e-01 -6.4036505531382426e+00 -4.7399528997051723e+00 -3.3680141327174331e+00 1 2 1
404 67 4 -5.9782299999999999e-01 -7.1814014861990882e+00 -4.2477354680997177e+00 -3.7249300892982946e+00 1 2 1
407 67 1 3.1932000000000002e-02 -9.0498704644704251e+00 -4.8419601726585109e+00 -2.7096800349859720e+00 1 2 1
408 67 1 3.1932000000000002e-02 -9.1633222702198971e+00 -4.7200190595577043e+00 -4.4302329305908019e+00 1 2 1
223 37 3 9.9454000000000001e-02 -8.4577105764596272e+00 -8.8749425435135976e-02 -2.8564796052416419e+00 1 -2 0
519 86 2 4.0257300000000001e-01 -5.8660627511791690e+00 -3.2879517582857947e+00 -5.4323780501116090e+00 1 0 -1
612 101 1 3.1932000000000002e-02 -1.1114208377491144e+01 -6.0636830810312681e-01 -8.5594950434462191e-01 -2 -2 1
226 37 1 3.1932000000000002e-02 -8.5331017026890592e+00 -4.9387585043826299e-01 -3.8824641257555950e+00 1 -2 0
551 91 1 3.1932000000000002e-02 -1.0036816781827936e+01 -4.2266225748429855e+00 -5.5179477926125742e-01 0 -1 3
200 33 4 -5.9782299999999999e-01 -1.0440184916373200e+01 -3.1634500290320808e+00 3.6787551727056034e+00 -4 1 2
199 33 3 9.9454000000000001e-02 -1.0446771047430756e+01 -2.0579530451275083e+00 2.7945411185228881e+00 -4 1 2
242 40 4 -5.9782299999999999e-01 -8.3438019552932055e+00 -3.6099959340568866e-01 5.0305548296969071e+00 5 -1 -1
957 159 2 4.0257300000000001e-01 -6.4260093881225897e+00 -3.4357448483168680e+00 9.8398910897691749e-01 -1 3 -2
202 33 1 3.1932000000000002e-02 -1.1151491828629851e+01 -2.2604192495870983e+00 1.9529695105178266e+00 -4 1 2
203 33 1 3.1932000000000002e-02 -1.0603128084098932e+01 -1.1095497793122977e+00 3.3437583098304220e+00 -4 1 2
201 33 2 4.0257300000000001e-01 -9.9692075390265575e+00 -2.8510520479267800e+00 4.4250227143052747e+00 -4 1 2
956 159 4 -5.9782299999999999e-01 -7.3292428034925727e+00 -3.1367729629807357e+00 9.2314678068383316e-01 -1 3 -2
843 140 2 4.0257300000000001e-01 -9.9478323560701156e+00 -5.0296647604639935e+00 3.6451930744750438e+00 -3 -3 -2
204 33 1 3.1932000000000002e-02 -9.4197414230304233e+00 -1.8722481345760080e+00 2.3725120094859253e+00 -4 1 2
810 134 1 3.1932000000000002e-02 -6.0182875535590847e+00 -4.6102070890270967e+00 5.2948496242752832e+00 2 3 -4
845 140 1 3.1932000000000002e-02 -8.8303984242986200e+00 -5.4204988847576159e+00 1.7204690732673775e+00 -3 -3 -2
549 91 2 4.0257300000000001e-01 -1.1090776890015551e+01 -5.0931314611801595e+00 1.4554120556728023e+00 0 -1 3
388 64 1 3.1932000000000002e-02 -6.2088750062110067e+00 -2.0661643476793365e+00 3.9811352231936166e+00 0 -1 -1
540 89 1 3.1932000000000002e-02 -8.2025486453516105e+00 -4.3539260526411816e-01 1.2606812336025115e+00 0 -5 0
807 134 2 4.0257300000000001e-01 -6.8329005278773263e+00 -2.9131284366755743e+00 6.6559936814645582e+00 2 3 -4
474 78 1 3.1932000000000002e-02 -6.5788749898611192e+00 -4.4794241252014544e+00 1.0567109331414677e+01 0 1 1
788 131 4 -5.9782299999999999e-01 -9.8136871973198829e+00 -2.5266282111934473e+00 6.6629585134207439e+00 0 1 2
787 131 3 9.9454000000000001e-02 -9.9966463095158389e+00 -2.4025168616265553e+00 8.0415833038741056e+00 0 1 2
792 131 1 3.1932000000000002e-02 -8.9979520430673183e+00 -2.2973459655318269e+00 8.4893515946552931e+00 0 1 2
790 131 1 3.1932000000000002e-02 -1.0521499709375021e+01 -1.4685225964785058e+00 8.1960167041461318e+00 0 1 2
791 131 1 3.1932000000000002e-02 -1.0579275408227511e+01 -3.1785463391632742e+00 8.4603820402600824e+00 0 1 2
789 131 2 4.0257300000000001e-01 -9.6873274512092937e+00 -3.4552546337483037e+00 6.3440622373718618e+00 0 1 2
92 15 4 -5.9782299999999999e-01 -5.9573533188558008e+00 -1.0861080875069309e+00 7.0241290862023078e+00 1 1 1
890 148 4 -5.9782299999999999e-01 -9.6596756286041607e+00 -1.1708712290887870e+00 1.1080711645728773e+01 0 0 3
469 78 3 9.9454000000000001e-02 -7.2460169171259556e+00 -3.6850280456837545e+00 1.0383690918471903e+01 0 1 1
805 134 3 9.9454000000000001e-02 -6.3976834787355905e+00 -4.7987050224214656e+00 6.3430469745736602e+00 2 3 -4
473 78 1 3.1932000000000002e-02 -6.7168977431811934e+00 -2.8786052124644517e+00 9.7760425926238348e+00 0 1 1
472 78 1 3.1932000000000002e-02 -7.9940503691798126e+00 -4.1075910769537609e+00 9.6650972310541619e+00 0 1 1
891 148 2 4.0257300000000001e-01 -9.0224988642678703e+00 -1.9343329075284252e+00 1.1017118360963007e+01 0 0 3
818 136 4 -5.9782299999999999e-01 -1.0666248784430126e+01 -4.8976654532286465e+00 5.9274756580422547e+00 1 2 -1
806 134 4 -5.9782299999999999e-01 -7.2333809737111086e+00 -3.7427279679707821e+00 6.7448966694395125e+00 2 3 -4
144 23 1 3.1932000000000002e-02 -1.1219055225273516e+01 -4.6249318016046610e+00 1.0706048379322375e+01 0 2 0
93 15 2 4.0257300000000001e-01 -5.9196424276559076e+00 -4.0052768498130398e-01 6.3703605191730119e+00 1 1 1
820 136 1 3.1932000000000002e-02 -1.1219618495963982e+01 -5.4106781004355602e+00 7.7289245804808537e+00 1 2 -1
243 40 2 4.0257300000000001e-01 -8.7975939225177271e+00 -6.2595135581091554e-01 5.8536613452415018e+00 5 -1 -1
974 162 4 -5.9782299999999999e-01 -1.1239560283659914e+01 1.6315706650807655e+00 -1.0208565592310931e+01 1 -4 -2
323 53 1 3.1932000000000002e-02 -7.9808311754205921e+00 1.3622208462341820e+00 -8.1023932216010301e+00 0 0 -1
906 150 1 3.1932000000000002e-02 -7.5616039360335483e+00 4.0228947302258877e+00 -9.5030421870743247e+00 1 -1 -3
319 53 3 9.9454000000000001e-02 -6.9853995747383104e+00 9.8615709707580379e-01 -8.1088507868614830e+00 0 0 -1
976 162 1 3.1932000000000002e-02 -9.7286198337634797e+00 2.6721481750499514e+00 -9.0119900456887816e+00 1 -4 -2
905 150 1 3.1932000000000002e-02 -7.6948934641757560e+00 5.1748760194131229e+00 -1.0910122795490629e+01 1 -1 -3
324 53 1 3.1932000000000002e-02 -6.4662016309002874e+00 1.6131586302206724e+00 -7.3729663815685438e+00 0 0 -1
901 150 3 9.9454000000000001e-02 -6.9957573278399963e+00 4.6282331409153414e+00 -1.0243967123900079e+01 1 -1 -3
904 150 1 3.1932000000000002e-02 -6.4882181014861420e+00 5.4150911221765092e+00 -9.5838777492406440e+00 1 -1 -3
322 53 1 3.1932000000000002e-02 -6.5627011180445818e+00 1.2379336906596272e+00 -9.0336567381293165e+00 0 0 -1
978 162 1 3.1932000000000002e-02 -1.1060009129746408e+01 2.0177135312210748e+00 -8.1434208227348961e+00 1 -4 -2
973 162 3 9.9454000000000001e-02 -1.0816998460828355e+01 2.5003591329264339e+00 -9.1234472129506283e+00 1 -4 -2
902 150 4 -5.9782299999999999e-01 -5.9409088292064407e+00 3.9855999312945674e+00 -1.0922668272879070e+01 1 -1 -3
977 162 1 3.1932000000000002e-02 -1.1091019549591950e+01 3.5824268862088502e+00 -9.1107699576629937e+00 1 -4 -2
604 100 1 3.1932000000000002e-02 -1.0101003800294109e+01 3.7901848337479187e+00 -5.7189158126367001e+00 5 1 -4
464 77 4 -5.9782299999999999e-01 -1.0681762357372646e+01 3.2095419037738484e+00 -9.8388091351782769e-01 2 -2 -2
465 77 2 4.0257300000000001e-01 -1.0645623880766030e+01 3.8784766700193014e+00 -2.7400487113987992e-01 2 -2 -2
293 48 1 3.1932000000000002e-02 -6.0325818229101440e+00 2.8864495550780056e+00 -1.7137882792123325e+00 1 -2 -3
227 37 1 3.1932000000000002e-02 -7.4062458005545757e+00 2.9126154556865558e-01 -2.7096139616573272e+00 1 -2 0
606 100 1 3.1932000000000002e-02 -9.1198917222891609e+00 2.5579816959869692e+00 -5.1090583262452967e+00 5 1 -4
294 48 1 3.1932000000000002e-02 -5.6600476419117918e+00 4.5655808190314033e+00 -1.0184648508869714e+00 1 -2 -3
602 100 4 -5.9782299999999999e-01 -9.8307434637121638e+00 3.6711015589502516e+00 -3.5766087885481408e+00 5 1 -4
694 115 1 3.1932000000000002e-02 -1.1005736579784619e+01 9.2158094491754383e-03 -4.9789093358902647e+00 1 -1 2
224 37 4 -5.9782299999999999e-01 -9.4432640514160973e+00 8.5517576335783119e-01 -2.5925529634896716e+00 1 -2 0
601 100 3 9.9454000000000001e-02 -9.4107657233663495e+00 3.5778047779321565e+00 -4.8903402641124920e+00 5 1 -4
603 100 2 4.0257300000000001e-01 -9.3644914585999466e+00 3.0612229713343240e+00 -2.9753122804604519e+00 5 1 -4
605 100 1 3.1932000000000002e-02 -8.5852378725484044e+00 4.3054086974926520e+00 -5.0738898574076714e+00 5 1 -4
597 99 2 4.0257300000000001e-01 -1.1026374586051892e+01 4.8502941176668379e+00 -2.8548773077168832e+00 -2 0 2
225 37 2 4.0257300000000001e-01 -9.3467511427579204e+00 1.1002939868383130e+00 -1.6768623005391330e+00 1 -2 0
743 123 1 3.1932000000000002e-02 -8.1796520567344171e+00 5.6367656680323357e+00 -3.4673025960115229e+00 1 -3 3
539 89 1 3.1932000000000002e-02 -7.0148440781591699e+00 5.8511375413682742e-01 2.0332204229115760e+00 0 -5 0
535 89 3 9.9454000000000001e-02 -7.5761882161640823e+00 4.2821456837679150e-01 1.0742242771839283e+00 0 -5 0
241 40 3 9.9454000000000001e-02 -8.5195649370561615e+00 9.9212911492043077e-01 4.7615739957184431e+00 5 -1 -1
537 89 2 4.0257300000000001e-01 -9.1425745851813218e+00 1.6604977720383154e+00 1.0976590450026773e+00 0 -5 0
677 112 1 3.1932000000000002e-02 -8.2292838145328666e+00 5.3070234772372302e+00 4.1677960713256361e+00 -2 1 -1
68 11 4 -5.9782299999999999e-01 -1.0854145588343787e+01 2.7879318018254882e+00 2.6879937573920234e+00 2 3 -1
536 89 4 -5.9782299999999999e-01 -8.3182983579619556e+00 1.5165435748602043e+00 6.0046218924292027e-01 0 -5 0
72 11 1 3.1932000000000002e-02 -1.0250249752393762e+01 8.3928144652782244e-01 2.2049329141168297e+00 2 3 -1
245 40 1 3.1932000000000002e-02 -8.4209878890531016e+00 1.1802224891300259e+00 3.6545414862151286e+00 5 -1 -1
678 112 1 3.1932000000000002e-02 -7.3996660298161387e+00 3.7810918281036781e+00 4.1172595274117842e+00 -2 1 -1
291 48 2 4.0257300000000001e-01 -6.9564476832009126e+00 2.8218900908244464e+00 2.2132751228170733e-01 1 -2 -3
246 40 1 3.1932000000000002e-02 -9.4973238353560276e+00 1.3046552474727129e+00 5.0450366935714932e+00 5 -1 -1
673 112 3 9.9454000000000001e-02 -7.3580242003930021e+00 4.7985698856690320e+00 4.5104219790519995e+00 -2 1 -1
719 119 1 3.1932000000000002e-02 -5.8981417749720180e+00 1.9771971939228887e+00 3.6951141856929564e+00 -1 0 0
244 40 1 3.1932000000000002e-02 -7.8398250293470060e+00 1.8115598704801421e+00 5.1588958385638897e+00 5 -1 -1
290 48 4 -5.9782299999999999e-01 -5.9694864188520249e+00 2.9539350892546601e+00 3.2205281754078996e-01 1 -2 -3
67 11 3 9.9454000000000001e-02 -1.1141936902936500e+01 1.4092015927354069e+00 2.4135152293636288e+00 2 3 -1
864 143 1 3.1932000000000002e-02 -1.0688514418888694e+01 5.5097464630570556e+00 1.6311519309652507e+00 -1 -5 -6
676 112 1 3.1932000000000002e-02 -7.5452602374836841e+00 4.7138173830343675e+00 5.5613823236146125e+00 -2 1 -1
674 112 4 -5.9782299999999999e-01 -6.2238507969399013e+00 5.5985712747154963e+00 4.2551407968435893e+00 -2 1 -1
538 89 1 3.1932000000000002e-02 -6.9125589010986124e+00 3.1575279987611893e-02 2.6491446192215484e-01 0 -5 0
883 147 3 9.9454000000000001e-02 -7.3488899389357796e+00 1.6178895748574948e+00 8.4353635423873392e+00 -3 -5 -3
885 147 2 4.0257300000000001e-01 -8.5155414947550128e+00 2.5368698185182694e+00 9.6330095426221050e+00 -3 -5 -3
888 147 1 3.1932000000000002e-02 -7.5939983191564977e+00 1.9940451106737953e+00 7.4493095620420426e+00 -3 -5 -3
893 148 1 3.1932000000000002e-02 -9.4083302492137442e+00 8.3038866953892843e-01 1.1278158946323757e+01 0 0 3
663 110 2 4.0257300000000001e-01 -1.1023005470409128e+01 1.0971928034296781e+00 9.7747299195193484e+00 1 -4 -4
886 147 1 3.1932000000000002e-02 -6.3483287864077669e+00 1.2567204110058299e+00 8.3385801911824444e+00 -3 -5 -3
903 150 2 4.0257300000000001e-01 -6.3688571256052215e+00 3.3079925247993369e+00 1.1118080904327027e+01 1 -1 -4
884 147 4 -5.9782299999999999e-01 -7.6070915990638586e+00 2.6412837955032256e+00 9.3703813795835131e+00 -3 -5 -3
662 110 4 -5.9782299999999999e-01 -1.0622601779630582e+01 1.7506703607437260e+00 9.2215579655971496e+00 1 -4 -4
887 147 1 3.1932000000000002e-02 -7.9117613937586260e+00 6.8278243859411702e-01 8.6132898784709084e+00 -3 -5 -3
892 148 1 3.1932000000000002e-02 -8.0191875766022260e+00 5.0907139968513704e-02 1.0502455715153321e+01 0 0 3
395 65 1 3.1932000000000002e-02 -8.8923302808185749e+00 7.3432799187350213e+00 -6.6647986936982102e+00 4 1 1
393 65 2 4.0257300000000001e-01 -1.0609319652356344e+01 8.2930046557104014e+00 -7.5259557909857850e+00 4 1 1
930 154 1 3.1932000000000002e-02 -9.9151894820472553e+00 9.2740172655801736e+00 -1.0539077805697337e+01 2 1 -2
690 114 1 3.1932000000000002e-02 -9.7581156326034897e+00 9.8355646483483170e+00 -5.9359448487931150e+00 0 1 0
926 154 4 -5.9782299999999999e-01 -8.1924470318694222e+00 9.4037795999584475e+00 -9.3294285730490500e+00 2 1 -2
391 65 3 9.9454000000000001e-02 -9.4542584553156725e+00 6.7891176481207616e+00 -7.4356432658985723e+00 4 1 1
214 35 1 3.1932000000000002e-02 -5.9572068343308704e+00 8.5263609445695963e+00 -6.3990314596993514e+00 3 1 -1
685 114 3 9.9454000000000001e-02 -8.8536415704782296e+00 1.0399518600601798e+01 -5.7826047462966850e+00 0 1 0
146 24 4 -5.9782299999999999e-01 -1.1096774116300779e+01 1.0804214626202437e+01 -8.1330654478908322e+00 2 0 1
927 154 2 4.0257300000000001e-01 -8.4836944224547786e+00 9.9045390419105779e+00 -8.6002280330150498e+00 2 1 -2
211 35 3 9.9454000000000001e-02 -5.9964905403381428e+00 7.4225199355121134e+00 -6.4015795191295588e+00 3 1 -1
988 164 1 3.1932000000000002e-02 -1.0446310681580664e+01 6.4648098701717203e+00 -1.1046896947078190e+01 -1 2 0
689 114 1 3.1932000000000002e-02 -8.0272686342612012e+00 1.0057815516510974e+01 -6.4478227283427980e+00 0 1 0
392 65 4 -5.9782299999999999e-01 -1.0742732558358211e+01 7.3323535217195825e+00 -7.3550092284310171e+00 4 1 1
394 65 1 3.1932000000000002e-02 -9.0142650347448328e+00 6.9671105847913317e+00 -8.4314659968788668e+00 4 1 1
925 154 3 9.9454000000000001e-02 -8.8886039381146222e+00 9.6857345784231086e+00 -1.0472064639606923e+01 2 1 -2
216 35 1 3.1932000000000002e-02 -7.1173184529227997e+00 7.2125583682820711e+00 -6.2653058973968427e+00 3 1 -1
738 122 1 3.1932000000000002e-02 -6.0131695888420404e+00 1.0807595649814292e+01 -9.8120708744681480e+00 2 -1 0
928 154 1 3.1932000000000002e-02 -8.9083085188078623e+00 1.0768016481824926e+01 -1.0594032167273262e+01 2 1 -2
396 65 1 3.1932000000000002e-02 -9.4558369679825613e+00 5.7683863732205189e+00 -7.1608480322615327e+00 4 1 1
215 35 1 3.1932000000000002e-02 -5.6517001902463608e+00 6.9815674056413002e+00 -7.3348666597621150e+00 3 1 -1
741 123 2 4.0257300000000001e-01 -6.9118006904939575e+00 7.4139269430788914e+00 -4.4216476525326485e+00 1 -3 3
739 123 3 9.9454000000000001e-02 -8.0410660848298434e+00 6.5575664859933909e+00 -2.8641199272984110e+00 1 -3 3
742 123 1 3.1932000000000002e-02 -9.0352416711311907e+00 6.7916434266949430e+00 -2.4422903169874424e+00 1 -3 3
687 114 2 4.0257300000000001e-01 -8.6240469472779555e+00 9.3443360090034986e+00 -4.2429145042474499e+00 0 1 0
744 123 1 3.1932000000000002e-02 -7.2276098858734370e+00 6.4193724994342638e+00 -2.1154052851324519e+00 1 -3 3
861 143 2 4.0257300000000001e-01 -1.1120237595665168e+01 7.0441793114845410e+00 -7.5238325599028677e-01 -1 -5 -6
220 36 1 3.1932000000000002e-02 -6.8071733472613953e+00 7.1818064573603415e+00 -1.4995585566590464e-01 4 0 -1
875 145 1 3.1932000000000002e-02 -8.8078085532514852e+00 9.2945714440668112e+00 -1.5349155257384020e+00 4 0 1
740 123 4 -5.9782299999999999e-01 -7.6428326291758530e+00 7.5936144220188844e+00 -3.8268439909051226e+00 1 -3 3
429 71 2 4.0257300000000001e-01 -6.1037724754334146e+00 1.0918633754958208e+01 -4.2192343113284467e+00 -4 0 -2
871 145 3 9.9454000000000001e-02 -9.5333974114702666e+00 1.0067899462514987e+01 -1.3342763166517688e+00 4 0 1
686 114 4 -5.9782299999999999e-01 -8.4754444619545080e+00 1.0285559010936190e+01 -4.4389671321929471e+00 0 1 0
876 145 1 3.1932000000000002e-02 -1.0502455242196747e+01 9.5271791304874256e+00 -1.3714569277673050e+00 4 0 1
860 143 4 -5.9782299999999999e-01 -1.0482836650217648e+01 6.6185698823359189e+00 -1.2715201648508945e-01 -1 -5 -6
874 145 1 3.1932000000000002e-02 -9.5920703431435790e+00 1.0789693015605991e+01 -2.2423779363920016e+00 4 0 1
598 99 1 3.1932000000000002e-02 -1.0952657624941441e+01 6.2493158219713578e+00 -4.4087475621369414e+00 -2 0 2
872 145 4 -5.9782299999999999e-01 -9.3966779618946106e+00 1.0851057404351213e+01 -1.5235725453760907e-01 4 0 1
353 58 1 3.1932000000000002e-02 -9.3203946786131056e+00 8.8790229564130208e+00 2.6283366416547445e+00 1 3 -1
218 36 4 -5.9782299999999999e-01 -6.4379253658362252e+00 7.4370513241636296e+00 1.9002423183026593e+00 4 0 -1
352 58 1 3.1932000000000002e-02 -1.0526066028528135e+01 9.1466051029093549e+00 3.8738393836483880e+00 1 3 -1
351 58 2 4.0257300000000001e-01 -1.0123467076695512e+01 1.0777395948052657e+01 1.5524987266443784e+00 1 3 -1
869 144 1 3.1932000000000002e-02 -6.7378445030625187e+00 1.0367583207103035e+01 2.1992006428382922e+00 0 -1 1
217 36 3 9.9454000000000001e-02 -7.3391082228802729e+00 7.1924078960024680e+00 8.1926883193008315e-01 4 0 -1
219 36 2 4.0257300000000001e-01 -6.4185801672328262e+00 8.3878202294319060e+00 2.0621115581586693e+00 4 0 -1
675 112 2 4.0257300000000001e-01 -6.2509917102963515e+00 5.7390634013857813e+00 3.3352037352103459e+00 -2 1 -1
972 161 1 3.1932000000000002e-02 -6.8195939920162010e+00 1.0239229183743060e+01 4.9375304889581244e+00 1 -4 -2
354 58 1 3.1932000000000002e-02 -9.3595601732917686e+00 1.0348659821728933e+01 3.5957793896548775e+00 1 3 -1
349 58 3 9.9454000000000001e-02 -9.9804891221067003e+00 9.6774951892111893e+00 3.0523318663429837e+00 1 3 -1
970 161 1 3.1932000000000002e-02 -7.4870845044986147e+00 8.4650887446288543e+00 4.7652110852085912e+00 1 -4 -2
350 58 4 -5.9782299999999999e-01 -1.0771589863741578e+01 1.0331037898638492e+01 2.0698271080803607e+00 1 3 -1
967 161 3 9.9454000000000001e-02 -6.7209080999918154e+00 9.1951726566177605e+00 5.2662041237193549e+00 1 -4 -2
859 143 3 9.9454000000000001e-02 -1.1193526821138898e+01 6.2592891913996418e+00 9.7896925045900218e-01 -1 -5 -6
221 36 1 3.1932000000000002e-02 -7.8146640080028380e+00 6.1779092547467087e+00 7.9807739860788551e-01 4 0 -1
222 36 1 3.1932000000000002e-02 -8.1723448211467620e+00 7.8590493097166387e+00 8.1065410243354741e-01 4 0 -1
898 149 1 3.1932000000000002e-02 -1.1236420701058030e+01 6.5960068796179208e+00 4.2213117046796853e+00 -1 0 -1
881 146 1 3.1932000000000002e-02 -6.7619157676962756e+00 7.0706154409549775e+00 8.2538905434553484e+00 3 -1 -2
87 14 2 4.0257300000000001e-01 -9.9714467555757089e+00 7.8900669420178033e+00 9.1500161840325127e+00 5 0 -1
877 146 3 9.9454000000000001e-02 -6.1954728808468911e+00 6.8174400623123326e+00 9.1333333597693063e+00 3 -1 -2
88 14 1 3.1932000000000002e-02 -1.0618480902356120e+01 9.8016161616495125e+00 8.3209118782075286e+00 5 0 -1
929 154 1 3.1932000000000002e-02 -8.4892742425783716e+00 9.1778344470968776e+00 1.1229708594845977e+01 2 1 -3
882 146 1 3.1932000000000002e-02 -6.7796214019671455e+00 6.8873498667199513e+00 1.0041378115795826e+01 3 -1 -2
86 14 4 -5.9782299999999999e-01 -9.7456105771760075e+00 7.9752032930730188e+00 8.2030925696277706e+00 5 0 -1
90 14 1 3.1932000000000002e-02 -9.2563088996680882e+00 9.7611037593855414e+00 7.1264809235328883e+00 5 0 -1
89 14 1 3.1932000000000002e-02 -8.9186643740688645e+00 9.7589965782525816e+00 8.7961939102351145e+00 5 0 -1
85 14 3 9.9454000000000001e-02 -9.6316496653655239e+00 9.4197255482486035e+00 8.1103927581299402e+00 5 0 -1
971 161 1 3.1932000000000002e-02 -6.7703095305203167e+00 9.1177892449427631e+00 6.3868371714376053e+00 1 -4 -2
916 152 1 3.1932000000000002e-02 -6.3058384851325604e+00 1.0218806049238090e+01 9.8577418085586679e+00 2 0 -2