LAMMPS data file via vdw_self_gen.py, on 2021-08-05 13:21:40.345488

11000 atoms
9 atom types
10500 bonds
12 bond types
19500 angles
21 angle types
24000 dihedrals
20 dihedral types

-59.5062690147522204  59.5062690147522204 xlo xhi
-59.5062690147522204  59.5062690147522204 ylo yhi
-59.5062690147522204  59.5062690147522204 zlo zhi

Masses

1  1.007940
2  1.007940
3  12.011000
4  12.011000
5  12.011000
6  12.011000
7  12.011000
8  12.011000
9  15.999400

Atoms

1         0    3   -0.1079060000000000  -32.1831196751556590  43.6771857154855283 -22.1714155614805044 0 0 0
2         0    4   -0.0058890000000000  -32.5069711468838989  45.1085095256553075 -21.7672114041534002 0 0 0
3         0    6   -0.0280880000000000  -32.6175274906962969  45.2630445327155968 -20.2481919682883706 0 0 0
4         0    6   -0.0280880000000000  -32.9132182532003981  46.7122143782943979 -19.8464078060384566 0 0 0
5         0    7    0.0768000000000000  -33.0329883586937996  46.8637744585792433 -18.3329105351806092 0 0 0
6         0    5    0.1779090000000000  -33.2844248278046493  48.3078813812288246 -17.9420210288535138 0 0 0
7         0    8   -0.0003600000000000  -34.7197160702902323  48.7458487926950781 -17.7994957383338246 0 0 0
8         0    9   -0.3681440000000000  -32.3569949216913599  49.1022306967961626 -17.7970805172482400 0 0 0
9         0    1    0.0285690000000000  -32.1001137706095179  43.6009069352866305 -23.2606656163356078 0 0 0
10        0    1    0.0285690000000000  -32.9673899223813009  42.9874018111627336 -21.8437116165029934 0 0 0
11        0    1    0.0285690000000000  -31.2329813555334859  43.3495426726120030 -21.7374018699428682 0 0 0
12        0    2    0.0140440000000000  -33.4490997915927011  45.4078328052824034 -22.2409842143614505 0 0 0
13        0    2    0.0140440000000000  -31.7247462945348673  45.7724832186919173 -22.1529151426922724 0 0 0
14        0    2    0.0140440000000000  -31.6807392887550670  44.9380337581539422 -19.7792424323865390 0 0 0
15        0    2    0.0140440000000000  -33.4116354796824098  44.6071068008300102 -19.8712054823008373 0 0 0
16        0    2    0.0140440000000000  -33.8406392402916225  47.0485831056365100 -20.3256821806601202 0 0 0
17        0    2    0.0140440000000000  -32.1145558918556304  47.3664195120139908 -20.2179052943020068 0 0 0
18        0    2    0.0140440000000000  -32.1124675043082419  46.5403539219183813 -17.8335237483036657 0 0 0
19        0    2    0.0140440000000000  -33.8437850750065721  46.2430800461742351 -17.9364780055798789 0 0 0
20        0    1    0.0285690000000000  -35.2513482839891736  48.0623153635301534 -17.1327475490812375 0 0 0
21        0    1    0.0285690000000000  -35.1988358058023252  48.7659603495604301 -18.7807028993468670 0 0 0
22        0    1    0.0285690000000000  -34.7555450648791791  49.7476711367901387 -17.3614054968097378 0 0 0
23        1    3   -0.1079060000000000   16.3964826685503304  19.6179950661635232  7.6790342108909755  0 0 0
24        1    4   -0.0058890000000000   17.8564452312304311  19.1882570495743039  7.6510488795456908  0 0 0
25        1    6   -0.0280880000000000   18.7274564975221729  20.1717610946521795  6.8651843954211591  0 0 0
26        1    6   -0.0280880000000000   20.2008328447221004  19.7497229395157987  6.8668325825720462  0 0 0
27        1    7    0.0768000000000000   21.0669221002131160  20.7250382280815906  6.0752273688367868  0 0 0
28        1    5    0.1779090000000000   22.5289737025797550  20.3223827125388929  6.1168609612856359  0 0 0
29        1    8   -0.0003600000000000   23.0344358991649720  19.4375087852829225  5.0061422915110487  0 0 0
30        1    9   -0.3681440000000000   23.2598397624881628  20.6617413485356849  7.0457287325256335  0 0 0
31        1    1    0.0285690000000000   15.8020020952607574  18.9019126254417422  8.2560895813462203  0 0 0
32        1    1    0.0285690000000000   15.9794889906867059  19.6653636597064505  6.6680228262530354  0 0 0
33        1    1    0.0285690000000000   16.2833227566349095  20.6023089257889040  8.1446539425225684  0 0 0
34        1    2    0.0140440000000000   17.9253620933688360  18.1902598541018037  7.2028150694175173  0 0 0
35        1    2    0.0140440000000000   18.2229817567768357  19.1072200463327775  8.6808974791689586  0 0 0
36        1    2    0.0140440000000000   18.6339233704108729  21.1728365682849535  7.3036102800626725  0 0 0
37        1    2    0.0140440000000000   18.3641993677979158  20.2366148534211483  5.8323151565636762  0 0 0
38        1    2    0.0140440000000000   20.2989901126751455  18.7422458628177608  6.4445617869018221  0 0 0
39        1    2    0.0140440000000000   20.5650472993830427  19.6921279424575388  7.9002187424996357  0 0 0
40        1    2    0.0140440000000000   20.9900451546125986  21.7383195603226085  6.4859554136145938  0 0 0
41        1    2    0.0140440000000000   20.7445095293211814  20.7812138744062977  5.0299015582921216  0 0 0
42        1    1    0.0285690000000000   22.7768176791004819  19.8742089674882152  4.0379843958903665  0 0 0
43        1    1    0.0285690000000000   22.5972795139939251  18.4410959017376328  5.0998618140724856  0 0 0
44        1    1    0.0285690000000000   24.1239476816885947  19.3591702415301228  5.0668212335329637  0 0 0
45        2    3   -0.1079060000000000  -21.6006773408263726  9.7279516452511015   20.2667950987571182 0 0 0
46        2    4   -0.0058890000000000  -21.1446292215978389  8.3374918642307705   20.6858301049475273 0 0 0
47        2    6   -0.0280880000000000  -20.1090454978966520  7.7590971116322223   19.7180751351996832 0 0 0
48        2    6   -0.0280880000000000  -19.6313331243736720  6.3722295832003981   20.1623117029926213 0 0 0
49        2    7    0.0768000000000000  -18.6065003725509790  5.7921117678753404   19.1921722923232032 0 0 0
50        2    5    0.1779090000000000  -18.1086420147752847  4.4380470701941537   19.6613263803225031 0 0 0
51        2    8   -0.0003600000000000  -18.8363434339344522  3.2196736745731833   19.1531858720998791 0 0 0
52        2    9   -0.3681440000000000  -17.1817395099589127  4.3399576199462455   20.4634205294815672 0 0 0
53        2    1    0.0285690000000000  -22.3315079162556849  10.1184987224421494  20.9827097340420750 0 0 0
54        2    1    0.0285690000000000  -22.0731396988572257  9.7076025135823762   19.2795581646910072 0 0 0
55        2    1    0.0285690000000000  -20.7580430432127017  10.4259227529353460  20.2309559062000375 0 0 0
56        2    2    0.0140440000000000  -22.0175372558668485  7.6762368369610945   20.7351741746944889 0 0 0
57        2    2    0.0140440000000000  -20.7212007035016299  8.3914521940950380   21.6954343499186884 0 0 0
58        2    2    0.0140440000000000  -19.2499637162679527  8.4380970068259185   19.6543927914880747 0 0 0
59        2    2    0.0140440000000000  -20.5442617013287538  7.6942517707499700   18.7134047639156407 0 0 0
60        2    2    0.0140440000000000  -20.4884338846213758  5.6927550366658535   20.2438602259374143 0 0 0
61        2    2    0.0140440000000000  -19.1897276596097726  6.4396580319789436   21.1644565657674484 0 0 0
62        2    2    0.0140440000000000  -17.7363334637109560  6.4523866719030396   19.1016557100246303 0 0 0
63        2    2    0.0140440000000000  -19.0295626011182932  5.6854210816602055   18.1874598620554124 0 0 0
64        2    1    0.0285690000000000  -18.9025371348280800  3.2553633746893587   18.0628884142620549 0 0 0
65        2    1    0.0285690000000000  -19.8357396162059487  3.1769169494377500   19.5914857943184977 0 0 0
66        2    1    0.0285690000000000  -18.2824071968836144  2.3186454218971653   19.4327525347432761 0 0 0
67        3    3   -0.1079060000000000  -34.2953382605281334  5.2155386917805826  -43.1948464473832416 0 0 0
68        3    4   -0.0058890000000000  -34.4383873489906449  5.8066973900090364  -44.5902019497190736 0 0 0
69        3    6   -0.0280880000000000  -33.0827184089843200  5.9805139992712437  -45.2797476926156008 0 0 0
70        3    6   -0.0280880000000000  -33.2359732512090957  6.5472226762151120  -46.6954846068094724 0 0 0
71        3    7    0.0768000000000000  -31.8838840143513309  6.7294126728344468  -47.3786030633784847 0 0 0
72        3    5    0.1779090000000000  -32.0474245538203206  7.2514400523166609  -48.7935948001816158 0 0 0
73        3    8   -0.0003600000000000  -32.0111668539903889  8.7458070010298421  -48.9878695141736458 0 0 0
74        3    9   -0.3681440000000000  -32.2522339203389095  6.4896386280631360  -49.7369062711134404 0 0 0
75        3    1    0.0285690000000000  -35.2804855500137222  5.0935840554323191  -42.7324764665320203 0 0 0
76        3    1    0.0285690000000000  -33.6980527313905398  5.8673271021196634  -42.5493285191035753 0 0 0
77        3    1    0.0285690000000000  -33.8155426042740572  4.2321482198330527  -43.2297746927233035 0 0 0
78        3    2    0.0140440000000000  -34.9448685389920755  6.7760483275529388  -44.5160598654653441 0 0 0
79        3    2    0.0140440000000000  -35.0797297726189186  5.1507699910731617  -45.1901546991750820 0 0 0
80        3    2    0.0140440000000000  -32.5708945691624265  5.0115716545867350  -45.3277570226177957 0 0 0
81        3    2    0.0140440000000000  -32.4518916810732208  6.6493848144830068  -44.6817091580620698 0 0 0
82        3    2    0.0140440000000000  -33.7620346467916264  7.5087984384482649  -46.6556223970929693 0 0 0
83        3    2    0.0140440000000000  -33.8612802524339429  5.8736908049071257  -47.2948194720989434 0 0 0
84        3    2    0.0140440000000000  -31.3436773405989832  5.7774846353556324  -47.4365376031208399 0 0 0
85        3    2    0.0140440000000000  -31.2473718439518109  7.4216327403401090  -46.8169134209817628 0 0 0
86        3    1    0.0285690000000000  -31.1137665800254055  9.1586943249877883  -48.5203219622578814 0 0 0
87        3    1    0.0285690000000000  -32.9057326726813386  9.1965651956628509  -48.5527870685372278 0 0 0
88        3    1    0.0285690000000000  -31.9763881174171765  8.9757972864248980  -50.0568642259502212 0 0 0
89        4    3   -0.1079060000000000   22.2048263012305611 -34.5596676903396727  22.1040343898288825 0 0 0
90        4    4   -0.0058890000000000   20.9176491631428334 -33.8305226804298940  21.7456056021904622 0 0 0
91        4    6   -0.0280880000000000   20.6963811774504975 -33.7706453726794322  20.2320075688195722 0 0 0
92        4    6   -0.0280880000000000   19.3837766099309299 -33.0624764535876210  19.8791296681809797 0 0 0
93        4    7    0.0768000000000000   19.1685626586851079 -32.9944544723977842  18.3701415004791357 0 0 0
94        4    5    0.1779090000000000   17.8479172350667099 -32.3291519925372128  18.0314263051200108 0 0 0
95        4    8   -0.0003600000000000   17.8640599926741963 -30.8404589519000432  17.7953705811155380 0 0 0
96        4    9   -0.3681440000000000   16.7984040666218313 -32.9692328128990724  18.0007103407744005 0 0 0
97        4    1    0.0285690000000000   22.3295799226510212 -34.5953559523485623  23.1913875966560212 0 0 0
98        4    1    0.0285690000000000   23.0772432034338237 -34.0516494947158606  21.6808585486408667 0 0 0
99        4    1    0.0285690000000000   22.1921171707791451 -35.5893464369718515  21.7324420982818793 0 0 0
100       4    2    0.0140440000000000   20.9576054424278553 -32.8148409207519407  22.1560389626805510 0 0 0
101       4    2    0.0140440000000000   20.0744991400762025 -34.3411028889817160  22.2250949637386697 0 0 0
102       4    2    0.0140440000000000   20.6827848312079468 -34.7889891995954130  19.8246885345835508 0 0 0
103       4    2    0.0140440000000000   21.5361891575589297 -33.2457557731872981  19.7606328964079196 0 0 0
104       4    2    0.0140440000000000   19.3844522621744026 -32.0488330758869608  20.2980379881480459 0 0 0
105       4    2    0.0140440000000000   18.5438175889590582 -33.5925614044127414  20.3453217918775309 0 0 0
106       4    2    0.0140440000000000   19.1562876738661458 -33.9987471911454051  17.9312883250112876 0 0 0
107       4    2    0.0140440000000000   19.9786801538623067 -32.4439320188516831  17.8797882691760215 0 0 0
108       4    1    0.0285690000000000   18.6285121536039142 -30.5907935287325508  17.0553138417877399 0 0 0
109       4    1    0.0285690000000000   18.0626852777042686 -30.3197720454512023  18.7346047532469839 0 0 0
110       4    1    0.0285690000000000   16.8932749250751648 -30.5205531558344916  17.4053815814368029 0 0 0
111       5    3   -0.1079060000000000   20.3514420785889421 -20.8053158961655633 -49.7185800647145513 0 0 0
112       5    4   -0.0058890000000000   20.7964922367100762 -20.3233537715728438 -48.3450475775434541 0 0 0
113       5    6   -0.0280880000000000   19.6562319625628952 -20.3710428863339637 -47.3247260225250841 0 0 0
114       5    6   -0.0280880000000000   20.1186446273714168 -19.9138096621196858 -45.9368971110596647 0 0 0
115       5    7    0.0768000000000000   18.9793826408395923 -19.9522399893831484 -44.9227006010134176 0 0 0
116       5    5    0.1779090000000000   19.4556215887826838 -19.5379266166245991 -43.5432077225194760 0 0 0
117       5    8   -0.0003600000000000   19.3329946581541456 -18.0805850036856519 -43.1780941487083680 0 0 0
118       5    9   -0.3681440000000000   19.9678233461925032 -20.3482740384965375 -42.7730705702071106 0 0 0
119       5    1    0.0285690000000000   21.1897013740875764 -20.7696751017249959 -50.4223024544264149 0 0 0
120       5    1    0.0285690000000000   19.5494367995060259 -20.1758124259154989 -50.1170577230170693 0 0 0
121       5    1    0.0285690000000000   19.9902369305050343 -21.8379230587278990 -49.6769391806864533 0 0 0
122       5    2    0.0140440000000000   21.1744688462624957 -19.2981109031917129 -48.4326388331850879 0 0 0
123       5    2    0.0140440000000000   21.6294034152369825 -20.9478262232069881 -48.0018314875433632 0 0 0
124       5    2    0.0140440000000000   19.2662981298594218 -21.3942706908765672 -47.2608959964863686 0 0 0
125       5    2    0.0140440000000000   18.8327291855302548 -19.7326858428008691 -47.6672520479468389 0 0 0
126       5    2    0.0140440000000000   20.5250609115255074 -18.8968835443537166 -45.9972677096968141 0 0 0
127       5    2    0.0140440000000000   20.9376089658547961 -20.5575422313170719 -45.5922783364013355 0 0 0
128       5    2    0.0140440000000000   18.5631677900038525 -20.9628474957449740 -44.8403336426567805 0 0 0
129       5    2    0.0140440000000000   18.1576907267335628 -19.2945776088381926 -45.2262038313236019 0 0 0
130       5    1    0.0285690000000000   18.3107870262884980 -17.7382118518471685 -43.3577496233141204 0 0 0
131       5    1    0.0285690000000000   20.0382967800093006 -17.4914485230289110 -43.7681744928700596 0 0 0
132       5    1    0.0285690000000000   19.5557860875772818 -17.9489427422264605 -42.1151317412481987 0 0 0
133       6    3   -0.1079060000000000  -43.4937497025392261 -8.0996319151012166  -21.5735115137005344 0 0 0
134       6    4   -0.0058890000000000  -44.1811309230895262 -7.4488340884319744  -20.3814889163738862 0 0 0
135       6    6   -0.0280880000000000  -45.6857698244054262 -7.2824427385376369  -20.6093035678501373 0 0 0
136       6    6   -0.0280880000000000  -46.3766375257222236 -6.6549746695592971  -19.3935970148161267 0 0 0
137       6    7    0.0768000000000000  -47.8746245218110644 -6.4803874690981695  -19.6249919023652488 0 0 0
138       6    5    0.1779090000000000  -48.5567625679066950 -5.8973120040878930  -18.4018114592695063 0 0 0
139       6    8   -0.0003600000000000  -48.6951978018240652 -4.3977391191286710  -18.3361859199931914 0 0 0
140       6    9   -0.3681440000000000  -48.9357669647336024 -6.6146402054874516  -17.4777331419918269 0 0 0
141       6    1    0.0285690000000000  -42.4226867756343893 -8.2146250920343231  -21.3765981053991290 0 0 0
142       6    1    0.0285690000000000  -43.6073736299626802 -7.4902976235958292  -22.4757713738364551 0 0 0
143       6    1    0.0285690000000000  -43.9078741709309526 -9.0929214426532958  -21.7744033092887115 0 0 0
144       6    2    0.0140440000000000  -43.7226105332654242 -6.4704658740213601  -20.1965127726511824 0 0 0
145       6    2    0.0140440000000000  -44.0052380657158508 -8.0630072832473978  -19.4907829334058107 0 0 0
146       6    2    0.0140440000000000  -46.1335660999925921 -8.2616017882086030  -20.8186928157061573 0 0 0
147       6    2    0.0140440000000000  -45.8541523749201474 -6.6549904559353568  -21.4930068928633204 0 0 0
148       6    2    0.0140440000000000  -45.9219350833177842 -5.6824734440122144  -19.1689982851205798 0 0 0
149       6    2    0.0140440000000000  -46.2135207913321580 -7.2871733207590745  -18.5117953905359869 0 0 0
150       6    2    0.0140440000000000  -48.3512884974155952 -7.4428862276846610  -19.8434735809571983 0 0 0
151       6    2    0.0140440000000000  -48.0685808661616178 -5.8282859409142480  -20.4834534057108399 0 0 0
152       6    1    0.0285690000000000  -49.1571482094021732 -4.0276004526148252  -19.2548823311050370 0 0 0
153       6    1    0.0285690000000000  -47.7125787912601496 -3.9419290539415730  -18.1968132072675743 0 0 0
154       6    1    0.0285690000000000  -49.3401871977502751 -4.1255484936725608  -17.4954982679745719 0 0 0
155       7    3   -0.1079060000000000  -44.6956122091143797 -18.8461790325659493 -29.9743578430658637 0 0 0
156       7    4   -0.0058890000000000  -44.7291023825711349 -19.1607043073460019 -31.4632839278351426 0 0 0
157       7    6   -0.0280880000000000  -46.1560611548836732 -19.3911059026430799 -31.9674937919838804 0 0 0
158       7    6   -0.0280880000000000  -46.1855262655962022 -19.6768638545371495 -33.4729608230343771 0 0 0
159       7    7    0.0768000000000000  -47.6070219606249978 -19.9160766558873910 -33.9730773591384789 0 0 0
160       7    5    0.1779090000000000  -47.6309269838708857 -20.1569997227540156 -35.4706902376605626 0 0 0
161       7    8   -0.0003600000000000  -47.5437784359403111 -21.5859149770762286 -35.9427031498344363 0 0 0
162       7    9   -0.3681440000000000  -47.6684119745355446 -19.2220766579871878 -36.2685865694242011 0 0 0
163       7    1    0.0285690000000000  -43.6647319023481089 -18.6762531869246828 -29.6463561439779149 0 0 0
164       7    1    0.0285690000000000  -45.1044653410771943 -19.6742768934612613 -29.3866805675440013 0 0 0
165       7    1    0.0285690000000000  -45.2740755453727246 -17.9447317106051507 -29.7479653327335392 0 0 0
166       7    2    0.0140440000000000  -44.1193328007669763 -20.0517247036317698 -31.6528233567387609 0 0 0
167       7    2    0.0140440000000000  -44.2698154523650587 -18.3306263683021129 -32.0124016651688663 0 0 0
168       7    2    0.0140440000000000  -46.7666202480775226 -18.5057506003478593 -31.7518983641194872 0 0 0
169       7    2    0.0140440000000000  -46.6040170791148824 -20.2320743548864108 -31.4242736071806732 0 0 0
170       7    2    0.0140440000000000  -45.5631511323571061 -20.5517121272653718 -33.6971197564500500 0 0 0
171       7    2    0.0140440000000000  -45.7436840308690194 -18.8318589698754870 -34.0157301043217473 0 0 0
172       7    2    0.0140440000000000  -48.2453048250859737 -19.0493802257844962 -33.7662466728697339 0 0 0
173       7    2    0.0140440000000000  -48.0642488373044046 -20.7742506071500408 -33.4688029577296220 0 0 0
174       7    1    0.0285690000000000  -48.3016473480855666 -22.1899909268958488 -35.4375983427366350 0 0 0
175       7    1    0.0285690000000000  -46.5467148569382445 -21.9820728504908018 -35.7386177577574529 0 0 0
176       7    1    0.0285690000000000  -47.7341301521937211 -21.6286814717646934 -37.0191751823329369 0 0 0
177       8    3   -0.1079060000000000  -4.3578156594669384   4.5169052295412699  -8.4942161879928868  0 0 0
178       8    4   -0.0058890000000000  -5.0256845291148773   5.0226438519477803  -7.2233392290147345  0 0 0
179       8    6   -0.0280880000000000  -6.1580435811667229   6.0076595474486787  -7.5250524653056861  0 0 0
180       8    6   -0.0280880000000000  -6.8462647123946425   6.4892933806607092  -6.2431252806977451  0 0 0
181       8    7    0.0768000000000000  -7.9683372581116458   7.4784872571800323  -6.5438543976864958  0 0 0
182       8    5    0.1779090000000000  -8.6706858122670205   7.9179252676371306  -5.2730041108149965  0 0 0
183       8    8   -0.0003600000000000  -8.1589563806591983   9.1633641988710934  -4.5953576542514565  0 0 0
184       8    9   -0.3681440000000000  -9.5870692093546026   7.2572887076543040  -4.7872823561485225  0 0 0
185       8    1    0.0285690000000000  -3.5609698339881732   3.8077055854752571  -8.2467354619277895  0 0 0
186       8    1    0.0285690000000000  -3.9122226522093722   5.3408038698647040  -9.0607048756613580  0 0 0
187       8    1    0.0285690000000000  -5.0767524800435453   4.0036178385760568  -9.1408587296612538  0 0 0
188       8    2    0.0140440000000000  -4.2706947616369284   5.5059155254650856  -6.5923872299059676  0 0 0
189       8    2    0.0140440000000000  -5.4170631871303376   4.1661159298318662  -6.6623696903713308  0 0 0
190       8    2    0.0140440000000000  -6.8967680314993336   5.5257545864086595  -8.1771043045836596  0 0 0
191       8    2    0.0140440000000000  -5.7567117556291798   6.8686852190019145  -8.0732752080271215  0 0 0
192       8    2    0.0140440000000000  -6.1092593489981759   6.9575932611377418  -5.5794417337643996  0 0 0
193       8    2    0.0140440000000000  -7.2535261382264489   5.6278151144040400  -5.6992046651693045  0 0 0
194       8    2    0.0140440000000000  -8.7215011117495216   7.0276667008840619  -7.2002473328970638  0 0 0
195       8    2    0.0140440000000000  -7.5857762640117272   8.3646004324566920  -7.0617946893171162  0 0 0
196       8    1    0.0285690000000000  -8.1069273312202377   9.9829439698716129  -5.3164581217878677  0 0 0
197       8    1    0.0285690000000000  -7.1721780456249480   8.9723966830454867  -4.1681251485752000  0 0 0
198       8    1    0.0285690000000000  -8.8465606182240411   9.4545865453634335  -3.7958298291656889  0 0 0
199       9    3   -0.1079060000000000   30.8864935426146410 -19.6942880773275562 -16.9591949076056103 0 0 0
200       9    4   -0.0058890000000000   32.0914131539361449 -19.2817125913327772 -17.7928008245165969 0 0 0
201       9    6   -0.0280880000000000   32.0754250273349655 -19.9278270919415270 -19.1805343191080198 0 0 0
202       9    6   -0.0280880000000000   33.2746830356234540 -19.4843493220605666 -20.0255576788900598 0 0 0
203       9    7    0.0768000000000000   33.2634729235880116 -20.1362166055208256 -21.4050259471522537 0 0 0
204       9    5    0.1779090000000000   34.4307054550321325 -19.6599378956494064 -22.2489373857888992 0 0 0
205       9    8   -0.0003600000000000   35.6966012393651084 -20.4769557507849669 -22.2022517317003718 0 0 0
206       9    9   -0.3681440000000000   34.3645043735501687 -18.6218267825714001 -22.9047327437433204 0 0 0
207       9    1    0.0285690000000000   30.9205599304201968 -19.2087279302179326 -15.9782540636905619 0 0 0
208       9    1    0.0285690000000000   30.8692332215378222 -20.7770572891925340 -16.7992435210732936 0 0 0
209       9    1    0.0285690000000000   29.9505241605933357 -19.4032778191187383 -17.4467961995808203 0 0 0
210       9    2    0.0140440000000000   33.0067041166368327 -19.5660352752147730 -17.2607627153283829 0 0 0
211       9    2    0.0140440000000000   32.0990257801737542 -18.1899807489730314 -17.8906159097516628 0 0 0
212       9    2    0.0140440000000000   31.1456947052612740 -19.6597644298407239 -19.6971209464070327 0 0 0
213       9    2    0.0140440000000000   32.0828212318167445 -21.0195372137499490 -19.0752018787094535 0 0 0
214       9    2    0.0140440000000000   34.2077436691256125 -19.7349345522289816 -19.5063636584796001 0 0 0
215       9    2    0.0140440000000000   33.2622274312765143 -18.3928098753129277 -20.1362048763882591 0 0 0
216       9    2    0.0140440000000000   32.3417888335643369 -19.8917910864540808 -21.9454898715969762 0 0 0
217       9    2    0.0140440000000000   33.3051381726460036 -21.2279703487983475 -21.3266078984614893 0 0 0
218       9    1    0.0285690000000000   35.4685077514130427 -21.5259235869658703 -22.4072974502897644 0 0 0
219       9    1    0.0285690000000000   36.1648397193432487 -20.3766796961665406 -21.2207095129252927 0 0 0
220       9    1    0.0285690000000000   36.3907360387850076 -20.1217021387595487 -22.9696020669952716 0 0 0
221       10   3   -0.1079060000000000  -7.2566192451381717   30.5298307917426754  35.5489952165226910 0 0 0
222       10   4   -0.0058890000000000  -6.6282697098492962   31.8131651828099429  35.0244207906246530 0 0 0
223       10   6   -0.0280880000000000  -7.1716822546123371   32.1940167486504834  33.6448633575719356 0 0 0
224       10   6   -0.0280880000000000  -6.5579310754683817   33.5029702140453409  33.1360342144107207 0 0 0
225       10   7    0.0768000000000000  -7.0925860678461365   33.8769342506212894  31.7568009986443052 0 0 0
226       10   5    0.1779090000000000  -6.5113293206244647   35.1943204337821385  31.2792091787539377 0 0 0
227       10   8   -0.0003600000000000  -5.2557368238156972   35.1350419617908685  30.4472455933633945 0 0 0
228       10   9   -0.3681440000000000  -7.0146311313976382   36.2694453725147099  31.6000182671347503 0 0 0
229       10   1    0.0285690000000000  -6.8566096381474386   30.2898574560353389  36.5397420191744189 0 0 0
230       10   1    0.0285690000000000  -7.0430328490099505   29.6858211379596710  34.8854440982130001 0 0 0
231       10   1    0.0285690000000000  -8.3429806104914039   30.6302789103570241  35.6396033493513755 0 0 0
232       10   2    0.0140440000000000  -5.5411614841073344   31.6821007003086166  34.9726589170997642 0 0 0
233       10   2    0.0140440000000000  -6.8237671928025581   32.6221323731611861  35.7377629088919875 0 0 0
234       10   2    0.0140440000000000  -8.2622276609146539   32.2986904437876987  33.6984538458998486 0 0 0
235       10   2    0.0140440000000000  -6.9595795032799446   31.3868283309175951  32.9332174497953787 0 0 0
236       10   2    0.0140440000000000  -5.4658128782761146   33.4100897436141295  33.0959269111608805 0 0 0
237       10   2    0.0140440000000000  -6.7768560386508545   34.3111099103564712  33.8451452070921945 0 0 0
238       10   2    0.0140440000000000  -8.1833289401521974   33.9830607936583249  31.7758743616551058 0 0 0
239       10   2    0.0140440000000000  -6.8623439635666310   33.1001000485580406  31.0196925838085242 0 0 0
240       10   1    0.0285690000000000  -5.3968072501365114   34.4444986793916428  29.6119893349306977 0 0 0
241       10   1    0.0285690000000000  -4.4167730177521012   34.8120330075927598  31.0673525487534405 0 0 0
242       10   1    0.0285690000000000  -5.0397020466878253   36.1265170219824228  30.0383923607854015 0 0 0
243       11   3   -0.1079060000000000  -33.8033807402796640  23.2939744240422506 -46.9875895004203343 0 0 0
244       11   4   -0.0058890000000000  -33.9007049601345543  21.7926197401813049 -47.2186971281145134 0 0 0
245       11   6   -0.0280880000000000  -33.2164990914075489  20.9965998768478741 -46.1043639075390033 0 0 0
246       11   6   -0.0280880000000000  -33.3446989841075023  19.4856525488602301 -46.3269840794882342 0 0 0
247       11   7    0.0768000000000000  -32.6541723609144725  18.6928802024515797 -45.2212380352125294 0 0 0
248       11   5    0.1779090000000000  -32.8215169856715860  17.1992430150482782 -45.4274016526887365 0 0 0
249       11   8   -0.0003600000000000  -31.7450060394661762  16.4832500219730491 -46.2024294452659348 0 0 0
250       11   9   -0.3681440000000000  -33.8195330413491106  16.6054335217939197 -45.0230762192432366 0 0 0
251       11   1    0.0285690000000000  -34.3100236885404328  23.8348014541879607 -47.7938110338349489 0 0 0
252       11   1    0.0285690000000000  -32.7595910940954198  23.6229816638512808 -46.9645907706332935 0 0 0
253       11   1    0.0285690000000000  -34.2753258954025810  23.5794651816110559 -46.0419450258429208 0 0 0
254       11   2    0.0140440000000000  -33.4417690569958737  21.5504766349079269 -48.1843088709898879 0 0 0
255       11   2    0.0140440000000000  -34.9580017410580552  21.5105233953179500 -47.2823314573991595 0 0 0
256       11   2    0.0140440000000000  -33.6634799303834455  21.2625904241296340 -45.1386646974092969 0 0 0
257       11   2    0.0140440000000000  -32.1561870613388905  21.2730097301579555 -46.0562327452342615 0 0 0
258       11   2    0.0140440000000000  -32.9141035718506672  19.2156553185638082 -47.2989134085938048 0 0 0
259       11   2    0.0140440000000000  -34.4057509600430649  19.2093230485585948 -46.3678132336097306 0 0 0
260       11   2    0.0140440000000000  -33.0753292524381735  18.9416431238878680 -44.2403758983958539 0 0 0
261       11   2    0.0140440000000000  -31.5850238923805016  18.9267120222636436 -45.1758965357351272 0 0 0
262       11   1    0.0285690000000000  -30.7658330246568212  16.7112806065849568 -45.7739132065412733 0 0 0
263       11   1    0.0285690000000000  -31.7794670868196825  16.7884559463135261 -47.2504702214110068 0 0 0
264       11   1    0.0285690000000000  -31.9034450543041714  15.4027342066482298 -46.1373338454905166 0 0 0
265       12   3   -0.1079060000000000  -34.9210397281376004 -9.5519652367588126   18.8862221053298960 0 0 0
266       12   4   -0.0058890000000000  -34.1749610949177978 -8.2523017877195528   18.6194071537543948 0 0 0
267       12   6   -0.0280880000000000  -33.4970473344755391 -7.7122435715710846   19.8812684284885108 0 0 0
268       12   6   -0.0280880000000000  -32.7222731546728340 -6.4203103697657058   19.5991508044663121 0 0 0
269       12   7    0.0768000000000000  -32.0549397596308694 -5.8772471569201086   20.8592054904683124 0 0 0
270       12   5    0.1779090000000000  -31.2566097058300905 -4.6218328328463212   20.5624501900795487 0 0 0