LAMMPS data file via vdw_self_gen.py, on 2021-08-05 13:22:47.292494

5500 atoms
7 atom types
5000 bonds
6 bond types
8000 angles
8 angle types
5500 dihedrals
5 dihedral types

-41.9147033248783032  41.9147033248783032 xlo xhi
-41.9147033248783032  41.9147033248783032 ylo yhi
-41.9147033248783032  41.9147033248783032 zlo zhi

Masses

1  1.007940
2  1.007940
3  12.011000
4  12.011000
5  12.011000
6  15.999400
7  15.999400

Atoms

1         0    5    0.0494510000000000  -32.6986085784416574  4.6768589725006704   15.8151551034917279 0 0 0
2         0    6   -0.1457430000000000  -32.1540399196343287  4.9653317399230827   14.5268557219423755 0 0 0
3         0    3    0.2875520000000000  -32.8766875683337716  4.4509252898063325   13.4945236661059500 0 0 0
4         0    4    0.0550780000000000  -32.2375378619115835  4.8132206077914761   12.1890324737011611 0 0 0
5         0    7   -0.4278410000000000  -33.9099671469325088  3.8054574888511241   13.6021830348615858 0 0 0
6         0    2    0.0319320000000000  -32.0378134517436379  5.1151315929804344   16.5681680837051815 0 0 0
7         0    2    0.0319320000000000  -32.7426230340869395  3.5957629395736364   15.9807273776914815 0 0 0
8         0    2    0.0319320000000000  -33.6907588127911168  5.1267649409200828   15.9204935440578819 0 0 0
9         0    1    0.0285690000000000  -31.1753409045049104  4.5553227542681256   12.2085691807946048 0 0 0
10        0    1    0.0285690000000000  -32.3696299601526576  5.8807144902860973   11.9975417025950062 0 0 0
11        0    1    0.0285690000000000  -32.7105656520923915  4.2435910246168538   11.3839956356067979 0 0 0
12        1    5    0.0494510000000000   4.9820514672605007  -25.0313100024014226  23.7929284385061344 0 0 0
13        1    6   -0.1457430000000000   5.0997521030275506  -23.8531063834629151  22.9945114729672966 0 0 0
14        1    3    0.2875520000000000   4.3451949601093718  -22.8098285854088374  23.4358254742844920 0 0 0
15        1    4    0.0550780000000000   4.5419449903623228  -21.6207599841441542  22.5461722917566512 0 0 0
16        1    7   -0.4278410000000000   3.6256716818674133  -22.8211144884797577  24.4247869445955530 0 0 0
17        1    2    0.0319320000000000   5.6078722452289700  -25.8080861759362783  23.3449007967344642 0 0 0
18        1    2    0.0319320000000000   3.9464979419230244  -25.3857129292388422  23.8050752203924354 0 0 0
19        1    2    0.0319320000000000   5.3397267033517037  -24.8415800546299543  24.8097591163506515 0 0 0
20        1    1    0.0285690000000000   4.4009516565355451  -21.9085253173239742  21.5009606601067169 0 0 0
21        1    1    0.0285690000000000   5.5417622495499819  -21.2075465309036311  22.6987511805044662 0 0 0
22        1    1    0.0285690000000000   3.7976558423015301  -20.8578387556599054  22.7917376113908112 0 0 0
23        2    5    0.0494510000000000  -13.1810306851998593 -12.3032992701466490 -13.9434227819715240 0 0 0
24        2    6   -0.1457430000000000  -13.4249734942744414 -13.6322702197296124 -14.4058241003794247 0 0 0
25        2    3    0.2875520000000000  -14.3690202591975691 -14.3013208741949196 -13.6891023824178966 0 0 0
26        2    4    0.0550780000000000  -14.5637974688446103 -15.6755842605251718 -14.2526087991464241 0 0 0
27        2    7   -0.4278410000000000  -14.9906451358485455 -13.8505772083987502 -12.7371052344319970 0 0 0
28        2    2    0.0319320000000000  -12.3994790508894912 -11.8646953247268403 -14.5699730669997614 0 0 0
29        2    2    0.0319320000000000  -12.8277107216926183 -12.3153840232662830 -12.9074985353061251 0 0 0
30        2    2    0.0319320000000000  -14.0847451187031805 -11.6932887772258880 -14.0386124673599362 0 0 0
31        2    1    0.0285690000000000  -13.5976602003071037 -16.1756077803939249 -14.3608244173396837 0 0 0
32        2    1    0.0285690000000000  -15.0718811577068745 -15.6097866149875415 -15.2175864475683014 0 0 0
33        2    1    0.0285690000000000  -15.1763022318894976 -16.2654311709582018 -13.5646872916327119 0 0 0
34        3    5    0.0494510000000000  -4.3009855351874666  -31.3876089326099077  24.6317917313471426 0 0 0
35        3    6   -0.1457430000000000  -5.0913221219760487  -32.0802514547610897  23.6647853847850165 0 0 0
36        3    3    0.2875520000000000  -4.3992969726750628  -33.0083487625187075  22.9490482307486978 0 0 0
37        3    4    0.0550780000000000  -5.3097572433070352  -33.6878580369381737  21.9726227396441800 0 0 0
38        3    7   -0.4278410000000000  -3.2136395266756841  -33.2742458041124465  23.0883360382478600 0 0 0
39        3    2    0.0319320000000000  -4.9424526604243315  -30.6580805879895486  25.1338574235984922 0 0 0
40        3    2    0.0319320000000000  -3.4812784659255600  -30.8500755169265837  24.1447001277181457 0 0 0
41        3    2    0.0319320000000000  -3.9163453719217789  -32.0854284083086512  25.3821073843482559 0 0 0
42        3    1    0.0285690000000000  -5.8576239305874269  -32.9418526610311346  21.3908380421948436 0 0 0
43        3    1    0.0285690000000000  -6.0026142776157059  -34.3414191073361508  22.5078491256428848 0 0 0
44        3    1    0.0285690000000000  -4.7137657352218074  -34.2884036180931062  21.2794729793141464 0 0 0
45        4    5    0.0494510000000000  -4.2179990241311405  -6.2514276322754556  -5.4783937275396752  0 0 0
46        4    6   -0.1457430000000000  -4.7353613599660846  -4.9238286079292308  -5.3819369900125853  0 0 0
47        4    3    0.2875520000000000  -4.6427592043542996  -4.3847188725762454  -4.1356109381209922  0 0 0
48        4    4    0.0550780000000000  -5.1974117968600293  -2.9931594025824610  -4.1351198196977901  0 0 0
49        4    7   -0.4278410000000000  -4.1593320909209668  -4.9360178518227888  -3.1567066676332027  0 0 0
50        4    2    0.0319320000000000  -4.3570354421970992  -6.5953097313203681  -6.5070703599698323  0 0 0
51        4    2    0.0319320000000000  -4.7637716256894622  -6.9262121445175335  -4.8113718297533472  0 0 0
52        4    2    0.0319320000000000  -3.1474730750916962  -6.2622024657178379  -5.2509475791935296  0 0 0
53        4    1    0.0285690000000000  -6.1916887261649016  -2.9869019593061701  -4.5895750918156599  0 0 0
54        4    1    0.0285690000000000  -4.5230173043063759  -2.3272643824776127  -4.6786601747891616  0 0 0
55        4    1    0.0285690000000000  -5.2932321918358598  -2.6420387909922183  -3.1036886629921323  0 0 0
56        5    5    0.0494510000000000  -30.7630608865237214  4.4929145130228161   32.6799233326489045 0 0 0
57        5    6   -0.1457430000000000  -32.0166237703775494  4.9994233177665963   32.2200148796486374 0 0 0
58        5    3    0.2875520000000000  -33.0958067305771095  4.4420052623831552   32.8341747477183930 0 0 0
59        5    4    0.0550780000000000  -34.3592420027520049  5.0413028151874952   32.2969120053594096 0 0 0
60        5    7   -0.4278410000000000  -33.0534503220560083  3.5924076719607339   33.7129669747582099 0 0 0
61        5    2    0.0319320000000000  -29.9693024427368009  4.9882469633251736   32.1139242740857114 0 0 0
62        5    2    0.0319320000000000  -30.6947381087656339  3.4152386883849202   32.5008510072313754 0 0 0
63        5    2    0.0319320000000000  -30.6251778876110201  4.7198547668756108   33.7416954620590204 0 0 0
64        5    1    0.0285690000000000  -34.3551495190959884  5.0047810995592492   31.2042982685040151 0 0 0
65        5    1    0.0285690000000000  -34.4558509479793145  6.0720950763859971   32.6459023389724408 0 0 0
66        5    1    0.0285690000000000  -35.2151702721503455  4.4608116666661619   32.6529095996393934 0 0 0
67        6    5    0.0494510000000000   24.1491736533257431  22.4370402874970374 -15.3655039116716026 0 0 0
68        6    6   -0.1457430000000000   24.0055814111144237  23.0107176290776003 -14.0655952864468219 0 0 0
69        6    3    0.2875520000000000   22.7691285712227689  23.5254309508804553 -13.8231129887784530 0 0 0
70        6    4    0.0550780000000000   22.7109505938113294  24.0918362668033801 -12.4375164244284306 0 0 0
71        6    7   -0.4278410000000000   21.8283249599762570  23.5134103586060661 -14.6045411554878974 0 0 0
72        6    2    0.0319320000000000   25.1756762587353222  22.0731639138983731 -15.4637282646805243 0 0 0
73        6    2    0.0319320000000000   23.9737118168432488  23.1905085715092021 -16.1398544599544493 0 0 0
74        6    2    0.0319320000000000   23.4677164638124616  21.5892361768858265 -15.4868214449939536 0 0 0
75        6    1    0.0285690000000000   23.5542784613752865  24.7681166114354099 -12.2744263715299535 0 0 0
76        6    1    0.0285690000000000   22.7233760215119958  23.2799657403092084 -11.7065088431021351 0 0 0
77        6    1    0.0285690000000000   21.7874909958608285  24.6659827006870955 -12.3196363734795806 0 0 0
78        7    5    0.0494510000000000   24.4470823064308007 -33.4409247311178746 -3.4935674298109625  0 0 0
79        7    6   -0.1457430000000000   23.2348744761459187 -33.2406910778734783 -4.2215409997325777  0 0 0
80        7    3    0.2875520000000000   23.2401926081506005 -32.1292627488972258 -5.0071884274131078  0 0 0
81        7    4    0.0550780000000000   21.9374753722760758 -32.0096231462416014 -5.7370457195818299  0 0 0
82        7    7   -0.4278410000000000   24.1730962999544197 -31.3473509186640804 -5.1263123161183071  0 0 0
83        7    2    0.0319320000000000   24.3318137915336479 -34.3419988875304156 -2.8848473202213265  0 0 0
84        7    2    0.0319320000000000   24.6390370803729013 -32.5948605224932422 -2.8261479197985553  0 0 0
85        7    2    0.0319320000000000   25.2854669612535652 -33.5916905400222561 -4.1807751832764968  0 0 0
86        7    1    0.0285690000000000   21.1053689026101239 -32.0977313192527660 -5.0334896556546438  0 0 0
87        7    1    0.0285690000000000   21.8732427314618434 -32.7831511561257116 -6.5059337561507098  0 0 0
88        7    1    0.0285690000000000   21.8777586773997790 -31.0262878424068518 -6.2122331137593978  0 0 0
89        8    5    0.0494510000000000  -34.3365106930769457  23.2883727763678010 -14.5996708879322608 0 0 0
90        8    6   -0.1457430000000000  -33.2088982399134665  23.7539563474604947 -13.8572364113626350 0 0 0
91        8    3    0.2875520000000000  -32.0979749863296249  22.9802619262686783 -13.9979117854099453 0 0 0
92        8    4    0.0550780000000000  -30.9691797489723655  23.5511031713613548 -13.1953913288977027 0 0 0
93        8    7   -0.4278410000000000  -32.0137045598016385  21.9768902602841436 -14.6921953761797432 0 0 0
94        8    2    0.0319320000000000  -35.1736829036235434  23.9639670475218836 -14.4035160807714462 0 0 0
95        8    2    0.0319320000000000  -34.6209911258831724  22.2821075249808302 -14.2762188669129397 0 0 0
96        8    2    0.0319320000000000  -34.1214231200249785  23.3052966667877506 -15.6726688249534334 0 0 0
97        8    1    0.0285690000000000  -31.2976140816444186  23.7397659571689097 -12.1698706784602724 0 0 0
98        8    1    0.0285690000000000  -30.6157108660703372  24.4741450567765035 -13.6609164663384579 0 0 0
99        8    1    0.0285690000000000  -30.1478825652850091  22.8295424726113083 -13.1616488173349619 0 0 0
100       9    5    0.0494510000000000  -22.4502607355304562  24.6421253850622506 -24.2193640720691867 0 0 0
101       9    6   -0.1457430000000000  -22.8100790696171174  23.8628159570230700 -23.0780076684754860 0 0 0
102       9    3    0.2875520000000000  -23.6528450158872161  22.8312563200762106 -23.3576026770674190 0 0 0
103       9    4    0.0550780000000000  -23.9633608235918629  22.0678329075457711 -22.1066661780931852 0 0 0
104       9    7   -0.4278410000000000  -24.0827468576383659  22.5449826347015687 -24.4662584815536377 0 0 0
105       9    2    0.0319320000000000  -21.7920731531845853  25.4488075018708564 -23.8849770110652102 0 0 0
106       9    2    0.0319320000000000  -23.3393408970440923  25.0880858867483560 -24.6762839556798106 0 0 0
107       9    2    0.0319320000000000  -21.9064417383253307  24.0292345183219673 -24.9449668137572118 0 0 0
108       9    1    0.0285690000000000  -24.2876014817714356  22.7546653373928756 -21.3203554437180216 0 0 0
109       9    1    0.0285690000000000  -23.0808281697936621  21.5084565332856599 -21.7874571338925094 0 0 0
110       9    1    0.0285690000000000  -24.7798312652055444  21.3671462255610791 -22.3034697722179907 0 0 0
111       10   5    0.0494510000000000  -30.7690556328745402 -4.4223674171968801   23.2728030287287986 0 0 0
112       10   6   -0.1457430000000000  -32.0084976393388416 -5.0569811930235691   23.5898767210193050 0 0 0
113       10   3    0.2875520000000000  -33.1008814290046445 -4.4109755033897198   23.0980257287095654 0 0 0
114       10   4    0.0550780000000000  -34.3476853947034755 -5.1534898120002550   23.4698185079916470 0 0 0
115       10   7   -0.4278410000000000  -33.0801155742510389 -3.3866665737688928   22.4300093327465753 0 0 0
116       10   2    0.0319320000000000  -29.9636299369973891 -5.0060441578085175   23.7270854833644336 0 0 0
117       10   2    0.0319320000000000  -30.7384986575171482 -3.4097017931948024   23.6871636059094399 0 0 0
118       10   2    0.0319320000000000  -30.6151025736723277 -4.4036592118382982   22.1893723140014743 0 0 0
119       10   1    0.0285690000000000  -34.3535831426434939 -5.3602095372949456   24.5433116536816094 0 0 0
120       10   1    0.0285690000000000  -34.4067283418384449 -6.0836391958679998   22.8997340571564543 0 0 0
121       10   1    0.0285690000000000  -35.2197945677841631 -4.5353474461340326   23.2382087742803591 0 0 0
122       11   5    0.0494510000000000   12.9872111727884860  32.1131710711823644  21.8018357326107335 0 0 0
123       11   6   -0.1457430000000000   13.9924938099079981  32.8100257319457000  22.5389159585552790 0 0 0
124       11   3    0.2875520000000000   14.0170544887776618  32.5031034888875823  23.8647133048226614 0 0 0
125       11   4    0.0550780000000000   15.1060911790929193  33.2704385848320072  24.5497486584936695 0 0 0
126       11   7   -0.4278410000000000   13.2791539262035698  31.7033238042150600  24.4230511282216760 0 0 0
127       11   2    0.0319320000000000   13.0402567334816837  32.4435089364363307  20.7607667142597947 0 0 0
128       11   2    0.0319320000000000   11.9916878450621276  32.3508826051012051  22.1898391002437698 0 0 0
129       11   2    0.0319320000000000   13.1689155162240077  31.0343333510095256  21.8329220657645564 0 0 0
130       11   1    0.0285690000000000   15.0271605787393412  34.3325234511230093  24.3029672588229175 0 0 0
131       11   1    0.0285690000000000   16.0798843300880208  32.8777919789102810  24.2477291741335250 0 0 0
132       11   1    0.0285690000000000   14.9973359441879346  33.1644698869824310  25.6329201116610861 0 0 0
133       12   5    0.0494510000000000   5.1232543316848034  -33.2706021043791935  12.3155567457890474 0 0 0
134       12   6   -0.1457430000000000   4.5358883677479049  -32.3583168731978787  13.2441167813155314 0 0 0
135       12   3    0.2875520000000000   4.6979811246033965  -32.7164745554382392  14.5471870428237899 0 0 0
136       12   4    0.0550780000000000   4.0617235527853204  -31.6982335961443056  15.4429767219451541 0 0 0
137       12   7   -0.4278410000000000   5.2930612013204534  -33.7090365473968845  14.9428969159802403 0 0 0
138       12   2    0.0319320000000000   4.9210493453095268  -32.9032181185722763  11.3056538850358006 0 0 0
139       12   2    0.0319320000000000   4.6763406010666984  -34.2645327577129990  12.4179777223926351 0 0 0
140       12   2    0.0319320000000000   6.2075554708467440  -33.3156496345991826  12.4574560573913580 0 0 0
141       12   1    0.0285690000000000   3.0348321006387469  -31.5064410282268526  15.1206959150392226 0 0 0
142       12   1    0.0285690000000000   4.6473020087713754  -30.7760036172964107  15.4271664405061610 0 0 0
143       12   1    0.0285690000000000   4.0300937367429484  -32.0850640576612776  16.4655612963348119 0 0 0
144       13   5    0.0494510000000000  -23.0875608752209480  24.8080783436779413  22.2599745192443201 0 0 0
145       13   6   -0.1457430000000000  -23.6245440996277374  23.5390172344446285  22.6349675537625785 0 0 0
146       13   3    0.2875520000000000  -23.0754322927743019  23.0202729533358941  23.7671882424938588 0 0 0
147       13   4    0.0550780000000000  -23.7067477604157268  21.6997418067120691  24.0861173399639448 0 0 0
148       13   7   -0.4278410000000000  -22.2094770940465338  23.5539372165840355  24.4463126473183010 0 0 0
149       13   2    0.0319320000000000  -23.5788209720254223  25.1240334427894751  21.3355300750871422 0 0 0
150       13   2    0.0319320000000000  -22.0122501620408428  24.7299447766062919  22.0709716131377114 0 0 0
151       13   2    0.0319320000000000  -23.2927896819467932  25.5540689171841464  23.0340887589594772 0 0 0
152       13   1    0.0285690000000000  -23.6899045180107919  21.0545385916285213  23.2037429984675754 0 0 0
153       13   1    0.0285690000000000  -24.7326240274436415  21.8546381422018250  24.4285282583072423 0 0 0
154       13   1    0.0285690000000000  -23.1352577240369257  21.2071377824248408  24.8779872008475138 0 0 0
155       14   5    0.0494510000000000   22.6718030343561487  15.7053475335944146 -13.8112660494640505 0 0 0
156       14   6   -0.1457430000000000   23.2793563407142727  14.4839873542846842 -13.3886017021033759 0 0 0
157       14   3    0.2875520000000000   23.3230464277835274  13.5261986483091103 -14.3546633277761462 0 0 0
158       14   4    0.0550780000000000   23.9846921619977103  12.2912450188498212 -13.8243879713984139 0 0 0
159       14   7   -0.4278410000000000   22.9074181907976637  13.6504333021426678 -15.4982125522115712 0 0 0
160       14   2    0.0319320000000000   22.6701089560068390  16.3944643100632099 -12.9622213885728836 0 0 0
161       14   2    0.0319320000000000   21.6355776806351656  15.5330291717508722 -14.1189403596970848 0 0 0
162       14   2    0.0319320000000000   23.2482670103659430  16.1580492984998330 -14.6240538762765020 0 0 0
163       14   1    0.0285690000000000   23.5249456203878751  11.9984098642224684 -12.8767403302404873 0 0 0
164       14   1    0.0285690000000000   25.0537273547322386  12.4736519083512860 -13.6919051032326173 0 0 0
165       14   1    0.0285690000000000   23.8464664298122777  11.4724291144853900 -14.5362528635806587 0 0 0
166       15   5    0.0494510000000000  -3.0288929118460284  -23.5326340884754011 -3.8225294629549333  0 0 0
167       15   6   -0.1457430000000000  -4.3023815227093536  -23.9046819263142964 -4.3510122181710411  0 0 0
168       15   3    0.2875520000000000  -4.9949485024842462  -22.8703087258170434 -4.9014358315985112  0 0 0
169       15   4    0.0550780000000000  -6.3065944754743555  -23.3571942388955200 -5.4367907015615708  0 0 0
170       15   7   -0.4278410000000000  -4.6054772059000841  -21.7132496370301418 -4.9750040549877816  0 0 0
171       15   2    0.0319320000000000  -2.5674120835043994  -24.4250520372719322 -3.3908035227580200  0 0 0
172       15   2    0.0319320000000000  -3.1444512414751076  -22.7855987563346964 -3.0308827187016929  0 0 0
173       15   2    0.0319320000000000  -2.3790682556526432  -23.1571876621326282 -4.6191733935472641  0 0 0
174       15   1    0.0285690000000000  -6.8316011134659522  -23.9346796664733787 -4.6712621435704325  0 0 0
175       15   1    0.0285690000000000  -6.1378662595785283  -23.9660231531708767 -6.3281483005659709  0 0 0
176       15   1    0.0285690000000000  -6.9303882694272154  -22.4987993156737502 -5.7020394931006955  0 0 0
177       16   5    0.0494510000000000  -6.1547589352621488   33.5195131905490840 -22.7191671321422923 0 0 0
178       16   6   -0.1457430000000000  -4.8489830254220969   33.3523277642909264 -23.2727781550891564 0 0 0
179       16   3    0.2875520000000000  -4.4330146906679611   32.0573810250592572 -23.3240263807669663 0 0 0
180       16   4    0.0550780000000000  -3.0639060249155383   31.9809006866038317 -23.9271596307966661 0 0 0
181       16   7   -0.4278410000000000  -5.0809727262723205   31.0874784771719135 -22.9561604527478593 0 0 0
182       16   2    0.0319320000000000  -6.3828486615975910   34.5888901631903849 -22.7061438904281054 0 0 0
183       16   2    0.0319320000000000  -6.1870067941106228   33.1464253630643952 -21.6906314588268572 0 0 0
184       16   2    0.0319320000000000  -6.9009227407181193   33.0134079825261253 -23.3396272427372580 0 0 0
185       16   1    0.0285690000000000  -2.3936435829508507   32.6821414619271451 -23.4230118389582955 0 0 0
186       16   1    0.0285690000000000  -3.1186828987739559   32.2032646172532537 -24.9954358139236810 0 0 0
187       16   1    0.0285690000000000  -2.6643417608267157   30.9718421589891868 -23.7912672111725279 0 0 0
188       17   5    0.0494510000000000   5.2159459287190852  -31.8006090562975210  21.7184302519849162 0 0 0
189       17   6   -0.1457430000000000   5.3143243121375114  -32.2473997620168262  23.0712741517600648 0 0 0
190       17   3    0.2875520000000000   4.1951289271083123  -32.8724400169988087  23.5287339460386313 0 0 0
191       17   4    0.0550780000000000   4.3959109507700926  -33.3136044462421879  24.9461746056236002 0 0 0
192       17   7   -0.4278410000000000   3.1769156449477620  -33.0713456195041928  22.8809962038745773 0 0 0
193       17   2    0.0319320000000000   6.1524858195368752  -31.2997213301388797  21.4581109165704618 0 0 0
194       17   2    0.0319320000000000   4.3974716582086950  -31.0820551063124100  21.6093423416865420 0 0 0
195       17   2    0.0319320000000000   5.0786020268591399  -32.6513438183136913  21.0437001783116031 0 0 0
196       17   1    0.0285690000000000   4.7613359450671418  -32.4783232202199201  25.5494367452426445 0 0 0
197       17   1    0.0285690000000000   5.1022336644317932  -34.1465795432322565  24.9765215817486776 0 0 0
198       17   1    0.0285690000000000   3.4387269637315123  -33.6401509713488025  25.3626882847479500 0 0 0
199       18   5    0.0494510000000000   5.1819569809597148  -3.5428433444806120  -24.6613418189479461 0 0 0
200       18   6   -0.1457430000000000   5.1229040996475597  -4.7496246825600110  -23.8999756669080519 0 0 0
201       18   3    0.2875520000000000   4.3296812936206921  -4.6679046661765593  -22.7969514094589520 0 0 0
202       18   4    0.0550780000000000   4.3211198239590694  -5.9787290810972342  -22.0718696536650754 0 0 0
203       18   7   -0.4278410000000000   3.6939238377187555  -3.6823660192164089  -22.4499471704170759 0 0 0
204       18   2    0.0319320000000000   5.8547478864666651  -3.7085639277345726  -25.5073032385488041 0 0 0
205       18   2    0.0319320000000000   5.5837043176264824  -2.7248951383064819  -24.0549756818676599 0 0 0
206       18   2    0.0319320000000000   4.1915361325397136  -3.2875307934935876  -25.0509001577414097 0 0 0
207       18   1    0.0285690000000000   5.3461583391996106  -6.3194183067791716  -21.9033993124244937 0 0 0
208       18   1    0.0285690000000000   3.7618848692316851  -6.7169987010548091  -22.6514164254261949 0 0 0
209       18   1    0.0285690000000000   3.8414642605479741  -5.8502071806184732  -21.0973286721840019 0 0 0
210       19   5    0.0494510000000000   32.6599861630350077 -3.5111626280172046  -12.5252191584608994 0 0 0
211       19   6   -0.1457430000000000   32.9599840248608515 -3.9821303454114259  -13.8396306428418026 0 0 0
212       19   3    0.2875520000000000   32.3714573617720589 -5.1700654199130085  -14.1478346648831845 0 0 0
213       19   4    0.0550780000000000   32.7331750863584858 -5.5759061959431708  -15.5437326018152788 0 0 0
214       19   7   -0.4278410000000000   31.6351309293321954 -5.8109628356580645  -13.4109766075331489 0 0 0
215       19   2    0.0319320000000000   33.1927361861472434 -2.5683616153325626  -12.3733465109738674 0 0 0
216       19   2    0.0319320000000000   33.0033819184862836 -4.2276536112756702  -11.7723313123992472 0 0 0
217       19   2    0.0319320000000000   31.5866956596488073 -3.3234265727447072  -12.4218928602995309 0 0 0
218       19   1    0.0285690000000000   33.8169476481964182 -5.5264221768990991  -15.6784312586998595 0 0 0
219       19   1    0.0285690000000000   32.2274550686379371 -4.9240495399492392  -16.2599660768170509 0 0 0
220       19   1    0.0285690000000000   32.4166228441502042 -6.6089409003737636  -15.7138838298299213 0 0 0
221       20   5    0.0494510000000000  -22.7175180590105192 -34.2873686543496206  33.0898482915993810 0 0 0
222       20   6   -0.1457430000000000  -22.5862636722486947 -32.9140790937820569  32.7206126933806516 0 0 0
223       20   3    0.2875520000000000  -23.7726796260349857 -32.2906628667577635  32.4833101731998610 0 0 0
224       20   4    0.0550780000000000  -23.5358354303126340 -30.8578837775293060  32.1157147345416405 0 0 0
225       20   7   -0.4278410000000000  -24.8777559585648582 -32.8066462001067407  32.5752525915299174 0 0 0
226       20   2    0.0319320000000000  -21.7140077401907376 -34.6957753817992582  33.2379449583278728 0 0 0
227       20   2    0.0319320000000000  -23.2076648582969334 -34.8548007048524013  32.2924167485115206 0 0 0
228       20   2    0.0319320000000000  -23.2714658503604142 -34.3795852143417946  34.0292691799778524 0 0 0
229       20   1    0.0285690000000000  -22.7909901135433195 -30.7948559179310841  31.3179752375244043 0 0 0
230       20   1    0.0285690000000000  -23.2037220399693034 -30.3015990933245725  32.9954352998769451 0 0 0
231       20   1    0.0285690000000000  -24.4675058590572654 -30.4203159858508947  31.7457929821554643 0 0 0
232       21   5    0.0494510000000000  -23.4863181920041377  2.9301987563416878   14.5930303584441674 0 0 0
233       21   6   -0.1457430000000000  -23.3466239835368654  4.3487163292047528   14.6812362641387306 0 0 0
234       21   3    0.2875520000000000  -23.2258759801994010  4.9673670719186731   13.4749053510682231 0 0 0
235       21   4    0.0550780000000000  -23.0966106866223662  6.4473856090562265   13.6670332035667208 0 0 0
236       21   7   -0.4278410000000000  -23.2418724331680835  4.4109453395253757   12.3858576576622657 0 0 0
237       21   2    0.0319320000000000  -23.5560885901399644  2.5327913386036798   15.6093772842380965 0 0 0
238       21   2    0.0319320000000000  -22.6109898490520500  2.4870515998956915   14.1077047229595234 0 0 0
239       21   2    0.0319320000000000  -24.4028372302606087  2.6688565520019170   14.0549162815568600 0 0 0
240       21   1    0.0285690000000000  -22.3132962404930559  6.6623351131516531   14.3987234052738984 0 0 0
241       21   1    0.0285690000000000  -24.0527195392252651  6.8613857649085421   13.9958492006358934 0 0 0
242       21   1    0.0285690000000000  -22.8121764828878852  6.9120483669097226   12.7186117950093731 0 0 0
243       22   5    0.0494510000000000   24.4495732114406863  6.0905060521680161  -32.5794395273283754 0 0 0
244       22   6   -0.1457430000000000   23.1858055284127573  5.4266353152460969  -32.6201058056555482 0 0 0
245       22   3    0.2875520000000000   23.2748611758059241  4.0686671950986764  -32.5969807125604092 0 0 0
246       22   4    0.0550780000000000   21.9050793581609788  3.4631824791141828  -32.6310912513793525 0 0 0
247       22   7   -0.4278410000000000   24.3131609364056054  3.4252935507465354  -32.5346118886845375 0 0 0
248       22   2    0.0319320000000000   24.2677665765129262  7.1679747682158439  -32.6215008056551881 0 0 0
249       22   2    0.0319320000000000   25.0599118072198692  5.8087421597934767  -33.4432774693963495 0 0 0
250       22   2    0.0319320000000000   24.9711262628536659  5.8631607118449747  -31.6444688508923555 0 0 0
251       22   1    0.0285690000000000   21.3264601850537936  3.8936557663513840  -33.4527042768286691 0 0 0
252       22   1    0.0285690000000000   21.4021643319278816  3.6349648741504996  -31.6765088756021136 0 0 0
253       22   1    0.0285690000000000   21.9894998337955734  2.3862989687882323  -32.8028834266425946 0 0 0
254       23   5    0.0494510000000000  -23.2133580721267450  33.1577138867481551  25.0446131732507027 0 0 0
255       23   6   -0.1457430000000000  -23.2979868590155235  33.2979849411293358  23.6259346127823555 0 0 0
256       23   3    0.2875520000000000  -23.2749249062245589  32.1155850211859928  22.9521826782757188 0 0 0
257       23   4    0.0550780000000000  -23.3795755573976365  32.3618615293794250  21.4782513295280459 0 0 0
258       23   7   -0.4278410000000000  -23.2026579799156742  31.0070746881452273  23.4639133126955102 0 0 0
259       23   2    0.0319320000000000  -23.2206457861603006  34.1585759248194236  25.4850489888606333 0 0 0
260       23   2    0.0319320000000000  -22.2790030225195181  32.6623650718947545  25.3269786732622961 0 0 0
261       23   2    0.0319320000000000  -24.0771471028721571  32.6046068065329422  25.4264701139755225 0 0 0
262       23   1    0.0285690000000000  -22.6402019437292346  33.1058790887334098  21.1701606076880431 0 0 0
263       23   1    0.0285690000000000  -24.3890268718025993  32.6992319326354490  21.2315744521095588 0 0 0
264       23   1    0.0285690000000000  -23.1708811058257282  31.4326939994213959  20.9402812651612749 0 0 0
265       24   5    0.0494510000000000   3.1537828022571848  -13.3334905074718435  5.5182858055495023  0 0 0
266       24   6   -0.1457430000000000   4.5493566795583282  -13.5149578738086333  5.2755307723381195  0 0 0
267       24   3    0.2875520000000000   4.8245300093351640  -14.3133255200648168  4.2080890485935019  0 0 0
268       24   4    0.0550780000000000   6.3064417314661121  -14.4350231290495667  4.0258671018408743  0 0 0
269       24   7   -0.4278410000000000   3.9936297746594707  -14.8414154396459921  3.4824088530854587  0 0 0
270       24   2    0.0319320000000000   3.0433282155852193  -12.6974316881751506  6.4008902471755427  0 0 0
271       24   2    0.0319320000000000   2.6707466117627634  -14.2944145116244599  5.7218077444551909  0 0 0