LAMMPS data file via write_data, version 11 Aug 2017, timestep = 210000

1002 atoms
4 atom types
835 bonds
3 bond types
1169 angles
3 angle types
501 dihedrals
1 dihedral types

-1.1215119382048487e+01 1.1215119382048487e+01 xlo xhi
-1.1215119382048487e+01 1.1215119382048487e+01 ylo yhi
-1.1215119382048487e+01 1.1215119382048487e+01 zlo zhi

Masses

1 1.00794
2 1.00794
3 12.011
4 15.9994

Bond Coeffs # harmonic

1 366.904 1.0961
2 612.22 0.957501
3 368.71 1.41153

Angle Coeffs # harmonic

1 40.9267 108.205
2 61.3287 112.232
3 49.873 108.742

Atoms # full

730 121 1 3.1932000000000002e-02 -1.0618739920811780e+01 -7.3290399185713380e+00 -6.0541434012739916e+00 1 0 1
104 17 4 -5.9782299999999999e-01 -1.0412099251245973e+01 -6.1646420106184125e+00 -1.0549361307665373e+01 1 -2 0
360 59 1 3.1932000000000002e-02 -1.0993945645072747e+01 -9.2967494263259880e+00 -7.7946007287755776e+00 2 1 -1
234 38 1 3.1932000000000002e-02 -8.4483391007402346e+00 -9.4142732325861296e+00 -1.0037980064172444e+01 -1 0 1
475 79 3 9.9454000000000001e-02 -7.0610788691399833e+00 -7.0386323480159874e+00 -8.5940412910032418e+00 1 0 0
480 79 1 3.1932000000000002e-02 -7.8008351624785526e+00 -6.2612558913611993e+00 -8.9600958580250385e+00 1 0 0
478 79 1 3.1932000000000002e-02 -6.6725505316752258e+00 -7.5760557867988254e+00 -9.4908293032399680e+00 1 0 0
476 79 4 -5.9782299999999999e-01 -5.9463559926159357e+00 -6.5012921060033859e+00 -7.8184638743772652e+00 1 0 0
230 38 4 -5.9782299999999999e-01 -6.5641378936383346e+00 -1.0228782317588808e+01 -9.4025864213170607e+00 -1 0 1
479 79 1 3.1932000000000002e-02 -7.6214128525065448e+00 -7.6833107794140263e+00 -7.9110443803726813e+00 1 0 0
229 38 3 9.9454000000000001e-02 -7.6786989062093101e+00 -1.0125994811350935e+01 -1.0241570657222363e+01 -1 0 1
231 38 2 4.0257300000000001e-01 -6.2247001665081898e+00 -1.1087972910677998e+01 -9.6548163834344329e+00 -1 0 1
233 38 1 3.1932000000000002e-02 -8.1654905269106557e+00 -1.1108757432742241e+01 -1.0133584532404120e+01 -1 0 1
105 17 2 4.0257300000000001e-01 -1.0528544113497611e+01 -5.8387457768473512e+00 -9.6417878587760839e+00 1 -2 0
477 79 2 4.0257300000000001e-01 -5.7721846183484269e+00 -7.0491388258859988e+00 -7.1274669864888551e+00 1 0 0
532 88 1 3.1932000000000002e-02 -6.8825208880945166e+00 -9.0332294715254058e+00 -1.9228491232616012e+00 0 0 1
16 2 1 3.1932000000000002e-02 -1.0200398117494803e+01 -1.1079416270111013e+01 -2.0529176770869881e+00 2 0 -1
727 121 3 9.9454000000000001e-02 -1.0419313023969423e+01 -7.0044129345856492e+00 -5.0081319279798375e+00 1 0 1
529 88 3 9.9454000000000001e-02 -7.2872321608695358e+00 -8.0605232115359282e+00 -1.6981980383810704e+00 0 0 1
762 126 1 3.1932000000000002e-02 -7.5865603377085620e+00 -1.0070635413994683e+01 -5.1020492138543316e+00 0 0 0
533 88 1 3.1932000000000002e-02 -6.8263155161211104e+00 -7.3616362433726419e+00 -2.4320189275403656e+00 0 0 1
531 88 2 4.0257300000000001e-01 -8.8458258732782298e+00 -8.2239501213811401e+00 -2.8332670110888500e+00 0 0 1
761 126 1 3.1932000000000002e-02 -7.4665831943826717e+00 -1.0887462495243769e+01 -3.4232900089031668e+00 0 0 0
728 121 4 -5.9782299999999999e-01 -1.0250409587415556e+01 -8.1103042726530781e+00 -4.1735145472682111e+00 1 0 1
729 121 2 4.0257300000000001e-01 -1.0956786502584642e+01 -8.6863016665451163e+00 -4.4615193712555490e+00 1 0 1
627 104 2 4.0257300000000001e-01 -1.0663528376113526e+01 -7.7246451609511411e+00 -1.7330332832819781e+00 0 0 1
758 126 4 -5.9782299999999999e-01 -5.7518669626958765e+00 -1.0303244083994720e+01 -4.1489006277440668e+00 0 0 0
757 126 3 9.9454000000000001e-02 -7.0314426497047959e+00 -1.0766329638534071e+01 -4.4192285303928598e+00 0 0 0
530 88 4 -5.9782299999999999e-01 -8.7025623806967545e+00 -8.0424623848072123e+00 -1.8664969236892439e+00 0 0 1
534 88 1 3.1932000000000002e-02 -6.9198854968508252e+00 -7.7743787080196194e+00 -7.2987145771421247e-01 0 0 1
732 121 1 3.1932000000000002e-02 -9.5488805604214875e+00 -6.4067607877791373e+00 -5.2000358827755049e+00 1 0 1
629 104 1 3.1932000000000002e-02 -1.1213577846067489e+01 -9.3649695558080488e+00 -4.6143986681389038e-01 0 0 1
174 28 1 3.1932000000000002e-02 -8.7987078607507065e+00 -7.5791608055424478e+00 1.2789515008020942e+00 0 2 0
169 28 3 9.9454000000000001e-02 -8.4652334858228730e+00 -8.4802617966706215e+00 1.7409822887393069e+00 0 2 0
650 108 4 -5.9782299999999999e-01 -5.9402987802115925e+00 -5.9430134046916194e+00 3.1600218790038177e+00 2 0 2
172 28 1 3.1932000000000002e-02 -7.4165031834238970e+00 -8.4393277421334627e+00 2.0985209078714284e+00 0 2 0
170 28 4 -5.9782299999999999e-01 -9.3545023077724458e+00 -9.0560265062193057e+00 2.6664259591943740e+00 0 2 0
764 127 4 -5.9782299999999999e-01 -8.3509622153850529e+00 -7.5526776454706077e+00 5.0532272830299032e+00 0 0 -1
171 28 2 4.0257300000000001e-01 -9.9438848520046914e+00 -9.6612974881778566e+00 2.2338007720236650e+00 0 2 0
885 147 2 4.0257300000000001e-01 -1.0043412780572503e+01 -9.2419636599585218e+00 5.2742933362035895e+00 1 0 0
173 28 1 3.1932000000000002e-02 -8.4724471048951386e+00 -9.1539640872970729e+00 9.1214263762949699e-01 0 2 0
651 108 2 4.0257300000000001e-01 -6.7837557501662689e+00 -6.0215830198680376e+00 2.8050513825338630e+00 2 0 2
765 127 2 4.0257300000000001e-01 -8.2727499991639739e+00 -7.3920383024482561e+00 4.0870108828552798e+00 0 0 -1
500 83 4 -5.9782299999999999e-01 -8.9457088536951268e+00 -5.6563647431590658e+00 3.0841341068371779e+00 1 1 3
768 127 1 3.1932000000000002e-02 -6.2692869044949315e+00 -8.1550219948470364e+00 5.1998572958495632e+00 0 0 -1
501 83 2 4.0257300000000001e-01 -9.8798991613720428e+00 -5.8674572159838920e+00 3.2964218338592950e+00 1 1 3
763 127 3 9.9454000000000001e-02 -7.3020525590887191e+00 -8.5034690259046819e+00 5.4064372359686796e+00 0 0 -1
767 127 1 3.1932000000000002e-02 -7.5335265318439433e+00 -9.4409077327669948e+00 4.8753886868211449e+00 0 0 -1
630 104 1 3.1932000000000002e-02 -1.1051136753220417e+01 -7.8907281329920052e+00 5.7705632756239211e-01 0 0 1
654 108 1 3.1932000000000002e-02 -5.6857999454670125e+00 -6.8862080507274168e+00 1.3902380239160070e+00 2 0 2
232 38 1 3.1932000000000002e-02 -7.4702951784187874e+00 -1.0071767538885720e+01 1.1140015419568373e+01 -1 0 0
38 6 4 -5.9782299999999999e-01 -7.4197612430452153e+00 -9.3398636099299104e+00 8.8080538913098874e+00 0 1 -1
42 6 1 3.1932000000000002e-02 -9.3100098900952588e+00 -8.6049793870744118e+00 9.4792562637454747e+00 0 1 -1
281 46 1 3.1932000000000002e-02 -1.0213747638629117e+01 -5.8912373963003795e+00 7.5386571340596493e+00 3 0 -2
37 6 3 9.9454000000000001e-02 -8.8673243345389565e+00 -9.4009492991844947e+00 8.8155444800297840e+00 0 1 -1
766 127 1 3.1932000000000002e-02 -7.2472281149846118e+00 -8.7136437409136978e+00 6.4803739783545122e+00 0 0 -1
41 6 1 3.1932000000000002e-02 -9.1695475825583266e+00 -1.0407406423193860e+01 9.2625818874696879e+00 0 1 -1
887 147 1 3.1932000000000002e-02 -1.0666977597825420e+01 -1.0805665402521683e+01 6.7313983204404284e+00 1 0 0
40 6 1 3.1932000000000002e-02 -9.2905856887476403e+00 -9.3302703342245845e+00 7.8108094025719996e+00 0 1 -1
39 6 2 4.0257300000000001e-01 -7.1977153952412758e+00 -9.9007210842536093e+00 8.0400913354720043e+00 0 1 -1
450 74 1 3.1932000000000002e-02 -7.8417746478110839e+00 -5.9045534866472043e+00 9.4093747576529392e+00 -1 0 1
280 46 1 3.1932000000000002e-02 -1.0596497137707383e+01 -6.6902082080379950e+00 5.9483748728753429e+00 3 0 -2
449 74 1 3.1932000000000002e-02 -7.0671738676231426e+00 -6.5533833379425435e+00 1.0943113462359902e+01 -1 0 1
277 46 3 9.9454000000000001e-02 -1.1038589940098626e+01 -6.1754600467604996e+00 6.8512142893212182e+00 3 0 -2
884 147 4 -5.9782299999999999e-01 -1.0907793330699466e+01 -9.2488601032350637e+00 5.6438042190877287e+00 1 0 0
445 74 3 9.9454000000000001e-02 -7.2757652838259341e+00 -5.6227777890399118e+00 1.0361632632938226e+01 -1 0 1
218 36 4 -5.9782299999999999e-01 -7.9176624301185203e+00 -2.7008996568383772e+00 -6.8888760473240636e+00 1 -1 -1
485 80 1 3.1932000000000002e-02 -1.0318274513742788e+01 -1.6243991796115473e+00 -1.0391282498067840e+01 2 0 0
222 36 1 3.1932000000000002e-02 -5.9856735625102058e+00 -2.7205571243235571e+00 -6.1591738592111041e+00 1 -1 -1
298 49 1 3.1932000000000002e-02 -1.0878660128643512e+01 -4.2519287500425893e+00 -8.2930882235364045e+00 -1 1 0
221 36 1 3.1932000000000002e-02 -6.1472133063852841e+00 -2.9771509992332419e+00 -7.9718788282409712e+00 1 -1 -1
220 36 1 3.1932000000000002e-02 -6.6226319813803558e+00 -4.2474384988254323e+00 -6.7967965720080121e+00 1 -1 -1
482 80 4 -5.9782299999999999e-01 -9.9711310722638764e+00 -1.0759035926980456e+00 -8.3923766124371451e+00 2 0 0
299 49 1 3.1932000000000002e-02 -1.0991743360453802e+01 -3.7865805030150588e+00 -6.6335502783480980e+00 -1 1 0
217 36 3 9.9454000000000001e-02 -6.5916167597794546e+00 -3.1691605534298457e+00 -6.9352276772785730e+00 1 -1 -1
483 80 2 4.0257300000000001e-01 -9.2213488526765648e+00 -8.8133231065661732e-01 -7.8736912534038259e+00 2 0 0
486 80 1 3.1932000000000002e-02 -8.6471671732797386e+00 -1.1395353750170134e+00 -1.0080499638152405e+01 2 0 0
219 36 2 4.0257300000000001e-01 -8.3718387087889194e+00 -2.9393813488921054e+00 -6.0258421099983330e+00 1 -1 -1
484 80 1 3.1932000000000002e-02 -9.1865389132751201e+00 -2.6629861218739652e+00 -9.3995542301076522e+00 2 0 0
481 80 3 9.9454000000000001e-02 -9.5544658408716110e+00 -1.6587733204750759e+00 -9.6116691424861127e+00 2 0 0
945 157 2 4.0257300000000001e-01 -7.6704310158456055e+00 -7.2315689587938792e-01 -5.7661550537742929e+00 1 0 -1
197 32 1 3.1932000000000002e-02 -5.7458851744918888e+00 -4.4798446419650340e-01 -4.9809427697098485e-01 1 0 1
28 4 1 3.1932000000000002e-02 -9.7692128285257596e+00 -3.6622290167043126e+00 -2.5128438088573599e+00 2 -1 -1
26 4 4 -5.9782299999999999e-01 -8.5469841717257076e+00 -3.9431141310510514e+00 -4.2365121113596658e+00 2 -1 -1
25 4 3 9.9454000000000001e-02 -8.8670726985434740e+00 -4.0894795263516368e+00 -2.8498136168449992e+00 2 -1 -1
252 41 1 3.1932000000000002e-02 -8.1209992974097212e+00 -5.3509660061186359e-01 -1.9831098539385756e+00 0 -2 0
27 4 2 4.0257300000000001e-01 -7.8149742969185443e+00 -4.5573093141592391e+00 -4.2881949399582879e+00 2 -1 -1
461 76 1 3.1932000000000002e-02 -1.0544575571476086e+01 -4.8751054684447226e-01 -3.2817008346478787e+00 1 1 1
458 76 4 -5.9782299999999999e-01 -1.0833069017980639e+01 -5.6699620961294528e-01 -5.3922880851411144e+00 1 1 1
30 4 1 3.1932000000000002e-02 -8.1088803133443683e+00 -3.7559126998125389e+00 -2.1753360191140398e+00 2 -1 -1
29 4 1 3.1932000000000002e-02 -8.9836078265242332e+00 -5.2226439078492923e+00 -2.6613130908476315e+00 2 -1 -1
196 32 1 3.1932000000000002e-02 -6.5005824528915390e+00 -1.9257972965673531e+00 -8.0180046701513774e-01 1 0 1
979 163 3 9.9454000000000001e-02 -6.1431583898443645e+00 -1.4989498746363932e+00 3.3932458754998365e+00 1 1 -1
983 163 1 3.1932000000000002e-02 -6.3787356289417634e+00 -7.3539879642112460e-01 2.6448796764259939e+00 1 1 -1
502 83 1 3.1932000000000002e-02 -9.1149837031915890e+00 -3.8066524372430726e+00 2.0096849012305196e+00 1 1 3
504 83 1 3.1932000000000002e-02 -9.6818269061946101e+00 -5.2414232495594844e+00 1.2671577840902906e+00 1 1 3
984 163 1 3.1932000000000002e-02 -6.9295587075613261e+00 -1.5175851066599915e+00 4.1227910675137469e+00 1 1 -1
795 132 2 4.0257300000000001e-01 -6.3541458380602540e+00 -5.1420712925308791e+00 5.1198417176998152e+00 1 0 3
503 83 1 3.1932000000000002e-02 -7.9361941658232116e+00 -4.9881105472901517e+00 1.4136585162319317e+00 1 1 3
499 83 3 9.9454000000000001e-02 -8.8813961979636495e+00 -4.8389013374575729e+00 1.9326790825874394e+00 1 1 3
980 163 4 -5.9782299999999999e-01 -5.9093508948228770e+00 -2.8313998756305327e+00 2.8493799269075080e+00 1 1 -1
794 132 4 -5.9782299999999999e-01 -5.9453723336741167e+00 -4.3467031151274469e+00 5.4948884810726728e+00 1 0 3
942 156 1 3.1932000000000002e-02 -1.1013440978322016e+01 -3.9251115593591379e-01 8.8784275740149710e-01 0 1 -1
208 34 1 3.1932000000000002e-02 -9.1246640921357525e+00 -3.7196530297650234e+00 8.3639545673984390e+00 -2 -1 0
793 132 3 9.9454000000000001e-02 -6.5654777920059715e+00 -4.0845124008399214e+00 6.7384291567561636e+00 1 0 3
447 74 2 4.0257300000000001e-01 -8.9477134256103259e+00 -4.9304906647587945e+00 1.0933196059181745e+01 -1 0 1
205 34 3 9.9454000000000001e-02 -9.9063963066260516e+00 -3.0144510590408160e+00 8.7821407072309885e+00 -2 -1 0
207 34 2 4.0257300000000001e-01 -1.0783393275436778e+01 -2.7299007060629030e+00 1.0400318742064604e+01 -2 -1 0
796 132 1 3.1932000000000002e-02 -6.6924819119135934e+00 -5.0779850623484313e+00 7.2907303240660948e+00 1 0 3
597 99 2 4.0257300000000001e-01 -7.6589133875716602e+00 -6.4277899759375146e-01 1.0126300060416332e+01 -2 0 0
446 74 4 -5.9782299999999999e-01 -8.0747622258808285e+00 -4.6442350268387820e+00 1.1090931762007321e+01 -1 0 1
837 139 2 4.0257300000000001e-01 -6.9646303702677708e+00 -2.9644526851780277e+00 1.0876973507329305e+01 1 -1 -1
598 99 1 3.1932000000000002e-02 -7.0831937246384982e+00 -6.5345724201807087e-01 7.9898931739976806e+00 -2 0 0
798 132 1 3.1932000000000002e-02 -7.5855390566706546e+00 -3.6329244718614584e+00 6.6406091990994494e+00 1 0 3
210 34 1 3.1932000000000002e-02 -9.6274540725853814e+00 -1.9929734089534925e+00 8.8464447971593980e+00 -2 -1 0
206 34 4 -5.9782299999999999e-01 -1.0319943392997605e+01 -3.4879965864907438e+00 1.0054157826506090e+01 -2 -1 0
797 132 1 3.1932000000000002e-02 -5.9941025083231256e+00 -3.4079188088166710e+00 7.4159789695363703e+00 1 0 3
448 74 1 3.1932000000000002e-02 -6.3033782985308759e+00 -5.1782501186434446e+00 1.0014238382967543e+01 -1 0 1
209 34 1 3.1932000000000002e-02 -1.0680133020953589e+01 -2.9840381245453962e+00 8.0621796885724333e+00 -2 -1 0
836 139 4 -5.9782299999999999e-01 -6.3693097209599863e+00 -2.2853701780280886e+00 1.0540763884457816e+01 1 -1 -1
959 159 1 3.1932000000000002e-02 -9.8582071958683297e+00 4.9870603877726598e+00 -9.3233836711307045e+00 1 1 0
954 158 1 3.1932000000000002e-02 -1.0412810627911451e+01 2.1690215415080818e+00 -7.7842706272992306e+00 2 2 1
947 157 1 3.1932000000000002e-02 -6.2380877425073846e+00 1.5588517444847252e+00 -7.0358087815811832e+00 1 0 -1
960 159 1 3.1932000000000002e-02 -1.0289400401224917e+01 3.9250970877909470e+00 -1.0482820772144670e+01 1 1 0
955 159 3 9.9454000000000001e-02 -9.7544194759096250e+00 4.8188576496179305e+00 -1.0381330812981464e+01 1 1 0
418 69 1 3.1932000000000002e-02 -6.5791010804303580e+00 2.0525186006808411e+00 -9.4818569145632914e+00 1 -2 0
420 69 1 3.1932000000000002e-02 -6.4910937841759466e+00 5.2030548180905001e-01 -1.0346986046570697e+01 1 -2 0
943 157 3 9.9454000000000001e-02 -6.2448555995456854e+00 6.3465631613191498e-01 -6.3687692966294538e+00 1 0 -1
415 69 3 9.9454000000000001e-02 -6.2151762426125394e+00 1.5885307350769402e+00 -1.0422110731846400e+01 1 -2 0
372 61 1 3.1932000000000002e-02 -6.3256845175725838e+00 4.6886154462476366e+00 -8.3017011864273194e+00 0 1 1
958 159 1 3.1932000000000002e-02 -8.7033905933543281e+00 4.7226019859307033e+00 -1.0538525918522735e+01 1 1 0
944 157 4 -5.9782299999999999e-01 -7.5561240954629678e+00 2.0753066609218607e-01 -6.0765208875357688e+00 1 0 -1
35 5 1 3.1932000000000002e-02 -9.9296437632673413e+00 2.9253546025699269e+00 -5.7777486140469083e+00 0 2 0
247 41 3 9.9454000000000001e-02 -8.3813681509932074e+00 4.3301418681226700e-01 -1.5891649550754039e+00 0 -2 0
251 41 1 3.1932000000000002e-02 -7.9882552974990757e+00 1.2926922060495283e+00 -2.2364714177673868e+00 0 -2 0
525 87 2 4.0257300000000001e-01 -6.6522851177286038e+00 5.3977018857163355e+00 -3.4953299276114240e+00 2 -2 0
248 41 4 -5.9782299999999999e-01 -8.0645471834745841e+00 6.5006726574625517e-01 -2.7281971375446012e-01 0 -2 0
287 47 1 3.1932000000000002e-02 -7.8404280990076956e+00 4.6116043134732312e+00 -8.6558527644579542e-01 1 1 1
523 87 3 9.9454000000000001e-02 -6.0365928010755034e+00 3.9221814613149633e+00 -4.4568827313358419e+00 2 -2 0
31 5 3 9.9454000000000001e-02 -9.9348918569725235e+00 2.7071770845376548e+00 -4.6775355735156419e+00 0 2 0
524 87 4 -5.9782299999999999e-01 -6.2966413346205936e+00 4.5874918766605024e+00 -3.2262766565465064e+00 2 -2 0
528 87 1 3.1932000000000002e-02 -6.9366275696347559e+00 3.8157986040071190e+00 -5.1119672604895712e+00 2 -2 0
36 5 1 3.1932000000000002e-02 -9.3745982474906384e+00 1.8202405372745858e+00 -4.5053478655112409e+00 0 2 0
33 5 2 4.0257300000000001e-01 -8.6883562306136213e+00 3.6209557597607454e+00 -3.4980147234855270e+00 0 2 0
34 5 1 3.1932000000000002e-02 -1.0953440592119710e+01 2.5398864127770970e+00 -4.4684704842239373e+00 0 2 0
32 5 4 -5.9782299999999999e-01 -9.5259411743231865e+00 3.8711487940080058e+00 -3.9240829927331253e+00 0 2 0
250 41 1 3.1932000000000002e-02 -9.4702273167255253e+00 4.5985149196006603e-01 -1.6520998323528087e+00 0 -2 0
948 157 1 3.1932000000000002e-02 -5.8315724478702542e+00 9.4123718060347628e-01 -5.4801316194185192e+00 1 0 -1
527 87 1 3.1932000000000002e-02 -5.7327073830411965e+00 2.9175335344720565e+00 -4.1094560464209620e+00 2 -2 0
400 66 1 3.1932000000000002e-02 -5.8086330782633455e+00 3.8622551134221190e+00 5.4297533642236093e+00 0 0 -1
878 146 4 -5.9782299999999999e-01 -6.5156755479020703e+00 4.9533110317602382e+00 2.5711004252318332e+00 2 0 -1
85 14 3 9.9454000000000001e-02 -9.6520472568782356e+00 2.5849677263770765e+00 2.5867304246394340e+00 2 -1 1
87 14 2 4.0257300000000001e-01 -9.0294754620150535e+00 3.8647695218031579e+00 1.2827857356959989e+00 2 -1 1
88 14 1 3.1932000000000002e-02 -1.0114934563976734e+01 1.5716906722075166e+00 2.6263873739667360e+00 2 -1 1
89 14 1 3.1932000000000002e-02 -8.6231794969895219e+00 2.5010430158235906e+00 2.9980120465459166e+00 2 -1 1
90 14 1 3.1932000000000002e-02 -1.0139832483707851e+01 3.2275553052342563e+00 3.3736385171621723e+00 2 -1 1
86 14 4 -5.9782299999999999e-01 -9.5749656572435793e+00 3.1142154936133846e+00 1.3095753190318078e+00 2 -1 1
779 129 1 3.1932000000000002e-02 -1.0545330725756351e+01 9.6988864573324385e-01 5.0527753009954761e+00 0 1 -1
855 142 2 4.0257300000000001e-01 -9.2262305497800199e+00 5.4498767135898216e+00 2.9457919892026094e+00 1 0 0
249 41 2 4.0257300000000001e-01 -8.2588910066422407e+00 1.5563378551005211e+00 8.4293774911259334e-06 0 -2 0
600 99 1 3.1932000000000002e-02 -6.3202887510973369e+00 8.8123316483047631e-01 8.7014821047177922e+00 -2 0 0
402 66 1 3.1932000000000002e-02 -6.1630004553053448e+00 3.4227970939905958e+00 7.1081644160230066e+00 0 0 -1
599 99 1 3.1932000000000002e-02 -7.7248322575482051e+00 9.1418833697002277e-01 7.6929931400666103e+00 -2 0 0
122 20 4 -5.9782299999999999e-01 -7.4374891566560350e+00 4.1596204455619521e+00 8.7656966812328978e+00 0 -1 0
595 99 3 9.9454000000000001e-02 -7.2494008024997836e+00 3.0249982806794762e-01 8.4897328085768731e+00 -2 0 0
780 129 1 3.1932000000000002e-02 -1.0426580991179186e+01 1.6023545195409756e+00 6.7040258852623520e+00 0 1 -1
123 20 2 4.0257300000000001e-01 -7.7595916459956040e+00 3.3043352329947258e+00 9.1381552568729294e+00 0 -1 0
775 129 3 9.9454000000000001e-02 -1.1157110731058740e+01 1.2821959938523406e+00 5.8942482721198122e+00 0 1 -1
121 20 3 9.9454000000000001e-02 -8.3829190599259356e+00 5.1041026072364506e+00 8.4412982858421248e+00 0 -1 0
419 69 1 3.1932000000000002e-02 -6.7834854428709495e+00 1.9239370756086824e+00 1.1124649544097954e+01 1 -2 -1
126 20 1 3.1932000000000002e-02 -8.4986138559840878e+00 5.2095664550866889e+00 7.3596005333138361e+00 0 -1 0
124 20 1 3.1932000000000002e-02 -9.3538400560934480e+00 5.0019462242576100e+00 8.8511755802901089e+00 0 -1 0
536 89 4 -5.9782299999999999e-01 -1.0993389908522030e+01 8.3523835853529960e-02 9.6850068419770619e+00 1 -1 -1
596 99 4 -5.9782299999999999e-01 -8.0582318966931261e+00 9.8709188721887386e-02 9.6133519967333232e+00 -2 0 0
538 89 1 3.1932000000000002e-02 -1.0269543472772940e+01 1.9173185936109594e+00 9.8316964166239860e+00 1 -1 -1
537 89 2 4.0257300000000001e-01 -1.0093631760498544e+01 4.4165450227518832e-02 9.3383172987979837e+00 1 -1 -1
401 66 1 3.1932000000000002e-02 -6.1054914101907398e+00 2.2325376296314356e+00 5.7309929235089587e+00 0 0 -1
45 7 2 4.0257300000000001e-01 -7.0440416995152750e+00 8.8961355292394675e+00 -9.7131955421963987e+00 -1 1 0
44 7 4 -5.9782299999999999e-01 -6.2595918700100288e+00 9.4070626418733898e+00 -9.9733180981948504e+00 -1 1 0
802 133 1 3.1932000000000002e-02 -7.8314666162277691e+00 6.6119154206664401e+00 -6.0788047161282890e+00 -2 -1 2
663 110 2 4.0257300000000001e-01 -9.5922541445392131e+00 7.6658097674853192e+00 -1.0074001715621959e+01 2 -1 -1
662 110 4 -5.9782299999999999e-01 -9.1375728714877162e+00 8.3614016917658329e+00 -9.6838366977564796e+00 2 -1 -1
665 110 1 3.1932000000000002e-02 -9.1167638238665347e+00 9.1847713301722518e+00 -7.7938517195693020e+00 2 -1 -1
666 110 1 3.1932000000000002e-02 -1.0630541307419822e+01 8.2938337510268720e+00 -8.2753990760035983e+00 2 -1 -1
661 110 3 9.9454000000000001e-02 -9.5353919800467644e+00 8.3137669325200267e+00 -8.3352683335489388e+00 2 -1 -1
664 110 1 3.1932000000000002e-02 -9.0015733765536492e+00 7.4373710458269020e+00 -7.9536850800894916e+00 2 -1 -1
202 33 1 3.1932000000000002e-02 -1.0969269079286509e+01 5.9245938849511237e+00 -6.8591966086583342e+00 0 2 0
46 7 1 3.1932000000000002e-02 -5.9589364176886468e+00 7.7116863297410969e+00 -1.1200725391146582e+01 -1 1 0
370 61 1 3.1932000000000002e-02 -5.6474498860680562e+00 6.2062938173499322e+00 -8.5758233464596554e+00 0 1 1
803 133 1 3.1932000000000002e-02 -6.8117852175990334e+00 8.0352563289577947e+00 -5.9884698498495350e+00 -2 -1 2
804 133 1 3.1932000000000002e-02 -6.2023186656213687e+00 6.4372640908463605e+00 -5.9026049236985427e+00 -2 -1 2
956 159 4 -5.9782299999999999e-01 -1.0368769490962697e+01 5.8253648798128612e+00 -1.1114373266589116e+01 1 1 0
288 47 1 3.1932000000000002e-02 -8.9349704959187530e+00 5.9053403669820970e+00 -1.3080619167812841e+00 1 1 1
800 133 4 -5.9782299999999999e-01 -7.2585789966875751e+00 7.0978370204115162e+00 -4.2312915438591032e+00 -2 -1 2
283 47 3 9.9454000000000001e-02 -8.1103594368212093e+00 5.6658841381717711e+00 -6.9349310383963036e-01 1 1 1
69 11 2 4.0257300000000001e-01 -1.0429710507897532e+01 6.1414845901655770e+00 -3.0886484766209978e+00 1 1 1
586 97 1 3.1932000000000002e-02 -6.0730946092297762e+00 9.9885296415069664e+00 -3.1049338030945073e-01 -2 1 2
587 97 1 3.1932000000000002e-02 -7.0618760531656326e+00 9.1838906234988418e+00 -1.4859441952064643e+00 -2 1 2
14 2 4 -5.9782299999999999e-01 -1.0522027206382575e+01 1.0904677409794482e+01 -4.1152849698369316e+00 2 -1 -1
799 133 3 9.9454000000000001e-02 -7.0078670027179983e+00 7.0783232919108396e+00 -5.5898698318290272e+00 -2 -1 2
588 97 1 3.1932000000000002e-02 -7.7571022741087710e+00 1.0148485128554013e+01 -1.8467949338212719e-01 -2 1 2
13 2 3 9.9454000000000001e-02 -1.0885456270882690e+01 1.0829006921478497e+01 -2.7309677453140999e+00 2 -1 -1
286 47 1 3.1932000000000002e-02 -7.2498236348855443e+00 6.3440902462828941e+00 -1.0165946284584688e+00 1 1 1
583 97 3 9.9454000000000001e-02 -6.9936822026265677e+00 9.4171306586531411e+00 -3.3679496072193160e-01 -2 1 2
18 2 1 3.1932000000000002e-02 -1.0874232719144263e+01 9.7803471657591796e+00 -2.3090589549141285e+00 2 -1 -1
801 133 2 4.0257300000000001e-01 -8.0950316210832494e+00 7.5362293725845770e+00 -4.1593309886395895e+00 -2 -1 2
68 11 4 -5.9782299999999999e-01 -1.0300610712367726e+01 7.0435772971418960e+00 -3.2240397536175678e+00 1 1 1
760 126 1 3.1932000000000002e-02 -7.2092088664017702e+00 1.0729202264390326e+01 -4.9354747447001746e+00 0 -1 0
15 2 2 4.0257300000000001e-01 -1.0985896605633924e+01 1.0208244072137896e+01 -4.6277189679570343e+00 2 -1 -1
285 47 2 4.0257300000000001e-01 -8.8434500052450211e+00 6.7148895815335674e+00 7.1532034091061547e-01 1 1 1
584 97 4 -5.9782299999999999e-01 -7.0940079189315846e+00 8.3750939459921181e+00 4.9433627532352631e-01 -2 1 2
886 147 1 3.1932000000000002e-02 -1.1114939834364982e+01 1.1157473862108153e+01 5.0870872767636062e+00 1 -1 0
854 142 4 -5.9782299999999999e-01 -9.7912012469503900e+00 6.2108616113342112e+00 3.1488418716615971e+00 1 0 0
284 47 4 -5.9782299999999999e-01 -8.5421709931880301e+00 5.7892274017786551e+00 6.3622368899419257e-01 1 1 1
853 142 3 9.9454000000000001e-02 -9.0000991854045971e+00 6.9252179066027377e+00 4.0030605183545305e+00 1 0 0
879 146 2 4.0257300000000001e-01 -6.3661319534656293e+00 5.9232278989668021e+00 2.5925130592436112e+00 2 0 -1
347 57 1 3.1932000000000002e-02 -9.8083896153035113e+00 9.5435286723920658e+00 1.9611526741633512e+00 -1 0 1
857 142 1 3.1932000000000002e-02 -9.1569761676060111e+00 7.9892458352913298e+00 3.8561202949305677e+00 1 0 0
634 105 1 3.1932000000000002e-02 -7.0166270982944425e+00 1.0059985760875692e+01 5.5050824175865412e+00 -1 -2 0
343 57 3 9.9454000000000001e-02 -1.0829668562144068e+01 9.8334308459723996e+00 2.2280204776086379e+00 -1 0 1
348 57 1 3.1932000000000002e-02 -1.0761676475433910e+01 1.0230532247914573e+01 3.2391781734902594e+00 -1 0 1
856 142 1 3.1932000000000002e-02 -7.9187232792697522e+00 6.7726535333817122e+00 3.9347410923212074e+00 1 0 0
585 97 2 4.0257300000000001e-01 -6.2441621456652383e+00 8.2171215106618529e+00 8.9391100920139976e-01 -2 1 2
53 8 1 3.1932000000000002e-02 -6.5691460335634089e+00 7.5646741191744322e+00 5.1000181020506350e+00 0 -1 0
858 142 1 3.1932000000000002e-02 -9.2452024986939705e+00 6.6952324647275123e+00 5.1135549484150484e+00 1 0 0
635 105 1 3.1932000000000002e-02 -8.5915955367550900e+00 9.4031461551060129e+00 6.0480807623669950e+00 -1 -2 0
164 27 4 -5.9782299999999999e-01 -1.0611107954896237e+01 7.8420294652804206e+00 9.2921062220749508e+00 0 1 -2
163 27 3 9.9454000000000001e-02 -1.0144701125919131e+01 9.2236158968684254e+00 9.3880539959789413e+00 0 1 -2
165 27 2 4.0257300000000001e-01 -1.0639067987628325e+01 7.5101554227809668e+00 1.0192631625522234e+01 0 1 -2
631 105 3 9.9454000000000001e-02 -7.8731241358052468e+00 1.0263210236119393e+01 6.1448228652781811e+00 -1 -2 0
632 105 4 -5.9782299999999999e-01 -7.3167047681592923e+00 1.0504852250733522e+01 7.4036617000392884e+00 -1 -2 0
49 8 3 9.9454000000000001e-02 -5.9377098104795580e+00 7.0903822998924628e+00 5.8481946368634272e+00 0 -1 0
633 105 2 4.0257300000000001e-01 -6.8369154828917109e+00 9.6861838680096728e+00 7.6134557769804889e+00 -1 -2 0
168 27 1 3.1932000000000002e-02 -1.0107421256603665e+01 9.7220814721742972e+00 8.4073181206230192e+00 0 1 -2
125 20 1 3.1932000000000002e-02 -8.0188604572287847e+00 6.1106788563350012e+00 8.7827655839818686e+00 0 -1 0
52 8 1 3.1932000000000002e-02 -6.0696228767305405e+00 5.9928653691073155e+00 5.7047167805915695e+00 0 -1 0
167 27 1 3.1932000000000002e-02 -9.1841643279669931e+00 9.2066973112086306e+00 9.9111364062887066e+00 0 1 -2
166 27 1 3.1932000000000002e-02 -1.0757477159531694e+01 9.8212692455038511e+00 1.0018011544117519e+01 0 1 -2
50 8 4 -5.9782299999999999e-01 -6.0515267063501330e+00 7.6321386526287238e+00 7.0945528589080897e+00 0 -1 0
636 105 1 3.1932000000000002e-02 -8.5134526772022880e+00 1.1014030477320444e+01 5.6837224656218677e+00 -1 -2 0
865 144 3 9.9454000000000001e-02 -3.5993097832352321e+00 -9.4460513585387300e+00 -7.0770870038829621e+00 2 -1 0
870 144 1 3.1932000000000002e-02 -3.1239968527327200e+00 -9.0799424947751231e+00 -6.1458357173996756e+00 2 -1 0
505 84 3 9.9454000000000001e-02 -4.1263738658160429e+00 -5.8873906044160051e+00 -1.0120150928556290e+01 1 2 1
508 84 1 3.1932000000000002e-02 -4.9472062563176129e+00 -6.6946675416192765e+00 -1.0242533075566111e+01 1 2 1
868 144 1 3.1932000000000002e-02 -3.2049569687498671e+00 -1.0426424703274829e+01 -7.2055996659811754e+00 2 -1 0
506 84 4 -5.9782299999999999e-01 -2.8990212896020182e+00 -6.4465630494508765e+00 -9.8614713862036609e+00 1 2 1
682 113 1 3.1932000000000002e-02 -6.7015940465970658e-01 -7.1795457431018734e+00 -9.1649695473549109e+00 -1 0 0
82 13 1 3.1932000000000002e-02 -1.5690139691102498e+00 -7.2075492192686088e+00 -6.5391526628958152e+00 0 -2 0
683 113 1 3.1932000000000002e-02 -1.0554841723095834e+00 -8.1530388119362698e+00 -1.0554193932602214e+01 -1 0 0
866 144 4 -5.9782299999999999e-01 -5.0133778551950785e+00 -9.5396164628069009e+00 -6.8512013165669465e+00 2 -1 0
120 19 1 3.1932000000000002e-02 -3.9919054009511346e+00 -8.7136309368667124e+00 -1.0475833940265295e+01 1 0 2
869 144 1 3.1932000000000002e-02 -3.4682677915469773e+00 -8.8449155155605226e+00 -7.9654305111906449e+00 2 -1 0
867 144 2 4.0257300000000001e-01 -5.4168959911332566e+00 -9.9747628266541764e+00 -7.6072860901818657e+00 2 -1 0
679 113 3 9.9454000000000001e-02 -3.1311757188830747e-01 -8.0337375817630416e+00 -9.7591413385100054e+00 -1 0 0
507 84 2 4.0257300000000001e-01 -2.4547561026994149e+00 -5.7359471412483511e+00 -9.4481984198324227e+00 1 2 1
684 113 1 3.1932000000000002e-02 -4.6991668997654656e-01 -8.9783633692283580e+00 -9.1098657598175556e+00 -1 0 0
79 13 3 9.9454000000000001e-02 -7.6394632519383876e-01 -6.8763186656809907e+00 -5.8655621026396334e+00 0 -2 0
872 145 4 -5.9782299999999999e-01 -3.3111926720659639e+00 -6.2836115409927693e+00 -1.3530878861457687e+00 0 1 1
409 68 3 9.9454000000000001e-02 -3.7767898260715382e+00 -9.9233668262394019e+00 -1.0590987379252415e+00 0 0 0
412 68 1 3.1932000000000002e-02 -3.6253010644121773e+00 -9.2344513307794163e+00 -1.9623366610824888e-01 0 0 0
411 68 2 4.0257300000000001e-01 -3.0233956737844370e+00 -8.5694627451879803e+00 -2.1631979305975584e+00 0 0 0
873 145 2 4.0257300000000001e-01 -2.7929768807933240e+00 -6.3813505870145848e+00 -5.2346576118759636e-01 0 1 1
410 68 4 -5.9782299999999999e-01 -2.9193370654076158e+00 -9.5498931990852238e+00 -2.1227033430076254e+00 0 0 0
84 13 1 3.1932000000000002e-02 -9.8776273443304596e-01 -7.2954413789472259e+00 -4.8893672665479437e+00 0 -2 0
56 9 4 -5.9782299999999999e-01 -5.6156087666296983e-01 -1.0633864474250034e+01 -3.6900203999092449e+00 0 0 1
57 9 2 4.0257300000000001e-01 -1.4421501162109518e+00 -1.0708429097661302e+01 -3.3277715926450790e+00 0 0 1
414 68 1 3.1932000000000002e-02 -3.6807945926033137e+00 -1.0993467711069270e+01 -7.4169519073816126e-01 0 0 0