
                                 *****************
                                 * O   R   C   A *
                                 *****************

           --- An Ab Initio, DFT and Semiempirical electronic structure package ---

                  #######################################################
                  #                        -***-                        #
                  #          Department of theory and spectroscopy      #
                  #               Directorship: Frank Neese             #
                  #        Max Planck Institute fuer Kohlenforschung    #
                  #                Kaiser Wilhelm Platz 1               #
                  #                 D-45470 Muelheim/Ruhr               #
                  #                      Germany                        #
                  #                                                     #
                  #                  All rights reserved                #
                  #                        -***-                        #
                  #######################################################


                         Program Version 4.1.2  - RELEASE  -


 With contributions from (in alphabetic order):
   Daniel Aravena         : Magnetic Properties
   Michael Atanasov       : Ab Initio Ligand Field Theory
   Alexander A. Auer      : GIAO ZORA
   Ute Becker             : Parallelization
   Giovanni Bistoni       : ED, Open-shell LED
   Martin Brehm           : Molecular dynamics
   Dmytro Bykov           : SCF Hessian
   Vijay G. Chilkuri      : MRCI spin determinant printing
   Dipayan Datta          : RHF DLPNO-CCSD density
   Achintya Kumar Dutta   : EOM-CC, STEOM-CC
   Dmitry Ganyushin       : Spin-Orbit,Spin-Spin,Magnetic field MRCI
   Miquel Garcia          : C-PCM Hessian
   Yang Guo               : DLPNO-NEVPT2, CIM, IAO-localization
   Andreas Hansen         : Spin unrestricted coupled pair/coupled cluster methods
   Benjamin Helmich-Paris : CASSCF linear response (MC-RPA)
   Lee Huntington         : MR-EOM, pCC
   Robert Izsak           : Overlap fitted RIJCOSX, COSX-SCS-MP3, EOM
   Christian Kollmar      : KDIIS, OOCD, Brueckner-CCSD(T), CCSD density
   Simone Kossmann        : Meta GGA functionals, TD-DFT gradient, OOMP2, MP2 Hessian
   Martin Krupicka        : AUTO-CI
   Lucas Lang             : DCDCAS
   Dagmar Lenk            : GEPOL surface, SMD
   Dimitrios Liakos       : Extrapolation schemes; parallel MDCI
   Dimitrios Manganas     : ROCIS; embedding schemes
   Dimitrios Pantazis     : SARC Basis sets
   Taras Petrenko         : DFT Hessian,TD-DFT gradient, ASA, ECA, R-Raman, ABS, FL, XAS/XES, NRVS
   Peter Pinski           : DLPNO-MP2, DLPNO-MP2 Gradient
   Christoph Reimann      : Effective Core Potentials
   Marius Retegan         : Local ZFS, SOC
   Christoph Riplinger    : Optimizer, TS searches, QM/MM, DLPNO-CCSD(T), (RO)-DLPNO pert. Triples
   Tobias Risthaus        : Range-separated hybrids, TD-DFT gradient, RPA, STAB
   Michael Roemelt        : Restricted open shell CIS
   Masaaki Saitow         : Open-shell DLPNO
   Barbara Sandhoefer     : DKH picture change effects
   Avijit Sen             : IP-ROCIS
   Kantharuban Sivalingam : CASSCF convergence, NEVPT2, FIC-MRCI
   Bernardo de Souza      : ESD, SOC TD-DFT
   Georgi Stoychev        : AutoAux, RI-MP2 NMR
   Willem Van den Heuvel  : Paramagnetic NMR
   Boris Wezisla          : Elementary symmetry handling
   Frank Wennmohs         : Technical directorship


 We gratefully acknowledge several colleagues who have allowed us to
 interface, adapt or use parts of their codes:
   Stefan Grimme, W. Hujo, H. Kruse,             : VdW corrections, initial TS optimization,
                  C. Bannwarth                     DFT functionals, gCP, sTDA/sTD-DF
   Ed Valeev                                     : LibInt (2-el integral package), F12 methods
   Garnet Chan, S. Sharma, J. Yang, R. Olivares  : DMRG
   Ulf Ekstrom                                   : XCFun DFT Library
   Mihaly Kallay                                 : mrcc  (arbitrary order and MRCC methods)
   Andreas Klamt, Michael Diedenhofen            : otool_cosmo (COSMO solvation model)
   Jiri Pittner, Ondrej Demel                    : Mk-CCSD
   Frank Weinhold                                : gennbo (NPA and NBO analysis)
   Christopher J. Cramer and Donald G. Truhlar   : smd solvation model
   Lars Goerigk                                  : TD-DFT with DH, B97 family of functionals
   V. Asgeirsson, H. Jonsson                     : NEB implementation
   FAccTs GmbH                                   : IRC, NEB, NEB-TS, Multilevel


 Your calculation uses the libint2 library for the computation of 2-el integrals
 For citations please refer to: http://libint.valeyev.net

 This ORCA versions uses:
   CBLAS   interface :  Fast vector & matrix operations
   LAPACKE interface :  Fast linear algebra routines
   SCALAPACK package :  Parallel linear algebra routines


Your calculation utilizes the atom-pairwise dispersion correction
with the zero-damping scheme (D30)
Cite in your paper:
S.Grimme, J.Antony, S.Ehrlich and H.Krieg, J.Chem.Phys., 132, (2010), 154104 
   

XCFun DFT library Copyright 2009-2010 Ulf Ekstrom and contributors.
See http://admol.org/xcfun for more information. This is free soft-
ware; see the source code for copying conditions. There is ABSOLUTELY
NO WARRANTY; not even for MERCHANTABILITY or FITNESS FOR A PARTICULAR
PURPOSE. For details see the documentation. Scientific users of this 
library should cite U. Ekstrom, L. Visscher, R. Bast, A. J. Thorvald-
sen and K. Ruud; J.Chem.Theor.Comp. 2010, DOI: 10.1021/ct100117s
XCFun Version 0.99 
----- Orbital basis set information -----
Your calculation utilizes the basis: def2-TZVP
   F. Weigend and R. Ahlrichs, Phys. Chem. Chem. Phys. 7, 3297 (2005).

================================================================================
                                        WARNINGS
                       Please study these warnings very carefully!
================================================================================


INFO   : the flag for use of LIBINT has been found!

================================================================================
                                       INPUT FILE
================================================================================
NAME = 186.in
|  1> #Run DFT-D3 single point of the dimer
|  2> ! wB97X-D3 def2-TZVP TIGHTSCF  CHELPG PAL8
|  3> 
|  4> %base "186_charges"
|  5> 
|  6> %scf
|  7> MaxIter 1000
|  8> end
|  9> %output
| 10>   Print[ P_Mayer ] 1
| 11>   Print[ P_NatPop ] 1
| 12>   Print[ P_Hirshfeld ] 1
| 13>   Print[ P_Mulliken ] 1
| 14>   Print [ P_Loewdin ] 1
| 15> end
| 16> 
| 17> * xyz 0 1
| 18>   C                      11.850537            8.407869             -4.919315           
| 19>   O                      12.344051            9.709187             -5.195754           
| 20>   H                      11.679485            10.260093            -5.476464           
| 21>   H                      12.590602            7.649585             -5.164954           
| 22>   H                      11.502005            8.261121             -3.944394           
| 23>   H                      11.017990            8.175174             -5.496754           
| 24> *
| 25> 
| 26>                          ****END OF INPUT****
================================================================================

                       ****************************
                       * Single Point Calculation *
                       ****************************

---------------------------------
CARTESIAN COORDINATES (ANGSTROEM)
---------------------------------
  C     11.850537    8.407869   -4.919315
  O     12.344051    9.709187   -5.195754
  H     11.679485   10.260093   -5.476464
  H     12.590602    7.649585   -5.164954
  H     11.502005    8.261121   -3.944394
  H     11.017990    8.175174   -5.496754

----------------------------
CARTESIAN COORDINATES (A.U.)
----------------------------
  NO LB      ZA    FRAG     MASS         X           Y           Z
   0 C     6.0000    0    12.011   22.394269   15.888570   -9.296158
   1 O     8.0000    0    15.999   23.326876   18.347704   -9.818552
   2 H     1.0000    0     1.008   22.071028   19.388766  -10.349017
   3 H     1.0000    0     1.008   23.792790   14.455621   -9.760349
   4 H     1.0000    0     1.008   21.735639   15.611256   -7.453824
   5 H     1.0000    0     1.008   20.820984   15.448840  -10.387360

--------------------------------
INTERNAL COORDINATES (ANGSTROEM)
--------------------------------
 C      0   0   0     0.000000000000     0.00000000     0.00000000
 O      1   0   0     1.418944370312     0.00000000     0.00000000
 H      2   1   0     0.907713332111   111.23626309     0.00000000
 H      1   2   3     1.087671525417   111.02173184   146.02174369
 H      1   2   3     1.045696173259   115.23041592   271.69413007
 H      1   2   3     1.039575523449   112.06180511    28.61901608

---------------------------
INTERNAL COORDINATES (A.U.)
---------------------------
 C      0   0   0     0.000000000000     0.00000000     0.00000000
 O      1   0   0     2.681416259160     0.00000000     0.00000000
 H      2   1   0     1.715329605799   111.23626309     0.00000000
 H      1   2   3     2.055401306702   111.02173184   146.02174369
 H      1   2   3     1.976079386749   115.23041592   271.69413007
 H      1   2   3     1.964513034847   112.06180511    28.61901608

---------------------
BASIS SET INFORMATION
---------------------
There are 3 groups of distinct atoms

 Group   1 Type C   : 11s6p2d1f contracted to 5s3p2d1f pattern {62111/411/11/1}
 Group   2 Type O   : 11s6p2d1f contracted to 5s3p2d1f pattern {62111/411/11/1}
 Group   3 Type H   : 5s1p contracted to 3s1p pattern {311/1}

Atom   0C    basis set group =>   1
Atom   1O    basis set group =>   2
Atom   2H    basis set group =>   3
Atom   3H    basis set group =>   3
Atom   4H    basis set group =>   3
Atom   5H    basis set group =>   3


           ************************************************************
           *        Program running with 8 parallel MPI-processes     *
           *              working on a common directory               *
           ************************************************************
------------------------------------------------------------------------------
                           ORCA GTO INTEGRAL CALCULATION
------------------------------------------------------------------------------

                         BASIS SET STATISTICS AND STARTUP INFO

 # of primitive gaussian shells          ...   64
 # of primitive gaussian functions       ...  124
 # of contracted shells                  ...   38
 # of contracted basis functions         ...   86
 Highest angular momentum                ...    3
 Maximum contraction depth               ...    6
 Integral package used                   ... LIBINT
 Integral threshhold            Thresh   ...  2.500e-11
 Primitive cut-off              TCut     ...  2.500e-12


------------------------------ INTEGRAL EVALUATION ----------------------------


 * One electron integrals 
 Pre-screening matrix                    ... done
 Shell pair data                         ... done (   0.000 sec)



           ************************************************************
           *        Program running with 8 parallel MPI-processes     *
           *              working on a common directory               *
           ************************************************************
-------------------------------------------------------------------------------
                                 ORCA SCF
-------------------------------------------------------------------------------

------------
SCF SETTINGS
------------
Hamiltonian:
 Density Functional     Method          .... DFT(GTOs)
 Exchange Functional    Exchange        .... WB97X-D3
 Correlation Functional Correlation     .... WB97X-D3
 Gradients option       PostSCFGGA      .... off
 Hybrid DFT is turned on
   Fraction HF Exchange ScalHFX         ....  0.195728
   Scaling of DF-GGA-X  ScalDFX         ....  0.000000
   Scaling of DF-GGA-C  ScalDFC         ....  1.000000
   Scaling of DF-LDA-C  ScalLDAC        ....  1.000000
   Perturbative correction              ....  0.000000
   Density functional embedding theory  .... OFF
 Long-range corrected/Screened/Range-Separated Hybrid DFT is turned on
   Amount of maximum screened exact exchange              ....  0.804272
   Range separation parameter mu (erf(mu*r12)/r12)        ....  0.250000


General Settings:
 Integral files         IntName         .... 186_charges
 Hartree-Fock type      HFTyp           .... RHF
 Total Charge           Charge          ....    0
 Multiplicity           Mult            ....    1
 Number of Electrons    NEL             ....   18
 Basis Dimension        Dim             ....   86
 Nuclear Repulsion      ENuc            ....     40.9227895099 Eh

Convergence Acceleration:
 DIIS                   CNVDIIS         .... on
   Start iteration      DIISMaxIt       ....    12
   Startup error        DIISStart       ....  0.200000
   # of expansion vecs  DIISMaxEq       ....     5
   Bias factor          DIISBfac        ....   1.050
   Max. coefficient     DIISMaxC        ....  10.000
 Newton-Raphson         CNVNR           .... off
 SOSCF                  CNVSOSCF        .... on
   Start iteration      SOSCFMaxIt      ....   150
   Startup grad/error   SOSCFStart      ....  0.003300
 Level Shifting         CNVShift        .... on
   Level shift para.    LevelShift      ....    0.2500
   Turn off err/grad.   ShiftErr        ....    0.0010
 Zerner damping         CNVZerner       .... off
 Static damping         CNVDamp         .... on
   Fraction old density DampFac         ....    0.7000
   Max. Damping (<1)    DampMax         ....    0.9800
   Min. Damping (>=0)   DampMin         ....    0.0000
   Turn off err/grad.   DampErr         ....    0.1000
 Fernandez-Rico         CNVRico         .... off

SCF Procedure:
 Maximum # iterations   MaxIter         ....  1000
 SCF integral mode      SCFMode         .... Direct
   Integral package                     .... LIBINT
 Reset frequency        DirectResetFreq ....    20
 Integral Threshold     Thresh          ....  2.500e-11 Eh
 Primitive CutOff       TCut            ....  2.500e-12 Eh

Convergence Tolerance:
 Convergence Check Mode ConvCheckMode   .... Total+1el-Energy
 Convergence forced     ConvForced      .... 0
 Energy Change          TolE            ....  1.000e-08 Eh
 1-El. energy change                    ....  1.000e-05 Eh
 Orbital Gradient       TolG            ....  1.000e-05
 Orbital Rotation angle TolX            ....  1.000e-05
 DIIS Error             TolErr          ....  5.000e-07


Diagonalization of the overlap matrix:
Smallest eigenvalue                        ... 1.425e-03
Time for diagonalization                   ...    0.053 sec
Threshold for overlap eigenvalues          ... 1.000e-08
Number of eigenvalues below threshold      ... 0
Time for construction of square roots      ...    0.461 sec
Total time needed                          ...    0.524 sec

-------------------
DFT GRID GENERATION
-------------------

General Integration Accuracy     IntAcc      ...  4.340
Radial Grid Type                 RadialGrid  ... Gauss-Chebyshev
Angular Grid (max. acc.)         AngularGrid ... Lebedev-110
Angular grid pruning method      GridPruning ... 3 (G Style)
Weight generation scheme         WeightScheme... Becke
Basis function cutoff            BFCut       ...    1.0000e-11
Integration weight cutoff        WCut        ...    1.0000e-14
Grids for H and He will be reduced by one unit

# of grid points (after initial pruning)     ...   6548 (   0.0 sec)
# of grid points (after weights+screening)   ...   6383 (   0.5 sec)
nearest neighbour list constructed           ...    0.0 sec
Grid point re-assignment to atoms done       ...    0.0 sec
Grid point division into batches done        ...    0.0 sec
Reduced shell lists constructed in    0.0 sec

Total number of grid points                  ...     6383
Total number of batches                      ...      104
Average number of points per batch           ...       61
Average number of grid points per atom       ...     1064
Average number of shells per batch           ...    32.07 (84.40%)
Average number of basis functions per batch  ...    74.21 (86.30%)
Average number of large shells per batch     ...    30.50 (95.10%)
Average number of large basis fcns per batch ...    70.50 (95.00%)
Maximum spatial batch extension              ...  15.20, 13.22, 22.44 au
Average spatial batch extension              ...   0.39,  0.34,  0.46 au

Time for grid setup =    0.886 sec

------------------------------
INITIAL GUESS: MODEL POTENTIAL
------------------------------
Loading Hartree-Fock densities                     ... done
Calculating cut-offs                               ... done
Setting up the integral package                    ... done
Initializing the effective Hamiltonian             ... done
Starting the Coulomb interaction                   ... done (   0.0 sec)
Reading the grid                                   ... done
Mapping shells                                     ... done
Starting the XC term evaluation                    ... done (   0.2 sec)
  promolecular density results
     # of electrons  =     17.996706988
     EX              =    -14.457123801
     EC              =     -0.577532588
     EX+EC           =    -15.034656389
Transforming the Hamiltonian                       ... done (   0.0 sec)
Diagonalizing the Hamiltonian                      ... done (   0.1 sec)
Back transforming the eigenvectors                 ... done (   0.0 sec)
Now organizing SCF variables                       ... done
                      ------------------
                      INITIAL GUESS DONE (   1.5 sec)
                      ------------------
--------------
SCF ITERATIONS
--------------
ITER       Energy         Delta-E        Max-DP      RMS-DP      [F,P]     Damp
               ***  Starting incremental Fock matrix formation  ***
  0   -115.6368263875   0.000000000000 0.03772828  0.00150679  0.2486638 0.7000
  1   -115.6753749978  -0.038548610271 0.02206235  0.00107583  0.1260435 0.7000
                               ***Turning on DIIS***
  2   -115.6935564556  -0.018181457785 0.03481263  0.00197617  0.0505521 0.0000
  3   -115.7233456808  -0.029789225278 0.01849460  0.00070185  0.0613068 0.0000
  4   -115.7279189430  -0.004573262134 0.00410056  0.00013091  0.0060827 0.0000
                      *** Initiating the SOSCF procedure ***
                           *** Shutting down DIIS ***
                      *** Re-Reading the Fockian *** 
                      *** Removing any level shift *** 
ITER      Energy       Delta-E        Grad      Rot      Max-DP    RMS-DP
  5   -115.72800950  -0.0000905553  0.000447  0.000447  0.000717  0.000043
               *** Restarting incremental Fock matrix formation ***
  6   -115.72801741  -0.0000079146  0.000153  0.000189  0.000474  0.000027
  7   -115.72801813  -0.0000007205  0.000051  0.000106  0.000236  0.000012
  8   -115.72801819  -0.0000000592  0.000022  0.000018  0.000030  0.000001
  9   -115.72801820  -0.0000000078  0.000011  0.000008  0.000015  0.000001
 10   -115.72801820  -0.0000000014  0.000003  0.000003  0.000004  0.000000
                  ***Gradient check signals convergence***
              ***Rediagonalizing the Fockian in SOSCF/NRSCF***

               *****************************************************
               *                     SUCCESS                       *
               *           SCF CONVERGED AFTER  11 CYCLES          *
               *****************************************************

Setting up the final grid:

General Integration Accuracy     IntAcc      ...  4.670
Radial Grid Type                 RadialGrid  ... Gauss-Chebyshev
Angular Grid (max. acc.)         AngularGrid ... Lebedev-302
Angular grid pruning method      GridPruning ... 3 (G Style)
Weight generation scheme         WeightScheme... Becke
Basis function cutoff            BFCut       ...    1.0000e-11
Integration weight cutoff        WCut        ...    1.0000e-14
Grids for H and He will be reduced by one unit

# of grid points (after initial pruning)     ...  26000 (   0.0 sec)
# of grid points (after weights+screening)   ...  25166 (   0.0 sec)
nearest neighbour list constructed           ...    0.0 sec
Grid point re-assignment to atoms done       ...    0.0 sec
Grid point division into batches done        ...    0.1 sec
Reduced shell lists constructed in    0.1 sec

Total number of grid points                  ...    25166
Total number of batches                      ...      396
Average number of points per batch           ...       63
Average number of grid points per atom       ...     4194
Average number of shells per batch           ...    31.18 (82.04%)
Average number of basis functions per batch  ...    71.49 (83.13%)
Average number of large shells per batch     ...    29.57 (94.84%)
Average number of large basis fcns per batch ...    68.04 (95.17%)
Maximum spatial batch extension              ...  16.57, 15.22, 16.88 au
Average spatial batch extension              ...   0.33,  0.27,  0.33 au

Final grid set up in    0.2 sec
Final integration                            ... done (   0.1 sec)
Change in XC energy                          ...    -0.000113785
Integrated number of electrons               ...    17.999999500
Previous integrated no of electrons          ...    17.999729189

----------------
TOTAL SCF ENERGY
----------------

Total Energy       :         -115.72813199 Eh           -3149.12257 eV

Components:
Nuclear Repulsion  :           40.92278951 Eh            1113.56572 eV
Electronic Energy  :         -156.65092150 Eh           -4262.68828 eV
One Electron Energy:         -238.16233566 Eh           -6480.72663 eV
Two Electron Energy:           81.51141416 Eh            2218.03834 eV

Virial components:
Potential Energy   :         -231.21100186 Eh           -6291.57122 eV
Kinetic Energy     :          115.48286987 Eh            3142.44865 eV
Virial Ratio       :            2.00212380


DFT components:
N(Alpha)           :        8.999999749767 electrons
N(Beta)            :        8.999999749767 electrons
N(Total)           :       17.999999499533 electrons
E(XC)              :      -10.702140294169 Eh       
DFET-embed. en.    :        0.000000000000 Eh       

---------------
SCF CONVERGENCE
---------------

  Last Energy change         ...   -1.7033e-10  Tolerance :   1.0000e-08
  Last MAX-Density change    ...    1.9664e-06  Tolerance :   1.0000e-07
  Last RMS-Density change    ...    1.0019e-07  Tolerance :   5.0000e-09
  Last Orbital Gradient      ...    1.1946e-06  Tolerance :   1.0000e-05
  Last Orbital Rotation      ...    1.1703e-06  Tolerance :   1.0000e-05

             **** THE GBW FILE WAS UPDATED (186_charges.gbw) ****
             **** DENSITY FILE WAS UPDATED (186_charges.scfp.tmp) ****
             **** ENERGY FILE WAS UPDATED (186_charges.en.tmp) ****
----------------
ORBITAL ENERGIES
----------------

  NO   OCC          E(Eh)            E(eV) 
   0   2.0000     -19.223635      -523.1017 
   1   2.0000     -10.301684      -280.3231 
   2   2.0000      -1.142620       -31.0923 
   3   2.0000      -0.811963       -22.0946 
   4   2.0000      -0.624276       -16.9874 
   5   2.0000      -0.544397       -14.8138 
   6   2.0000      -0.528976       -14.3942 
   7   2.0000      -0.433888       -11.8067 
   8   2.0000      -0.377253       -10.2656 
   9   0.0000       0.122092         3.3223 
  10   0.0000       0.157139         4.2760 
  11   0.0000       0.203862         5.5474 
  12   0.0000       0.216034         5.8786 
  13   0.0000       0.236423         6.4334 
  14   0.0000       0.307330         8.3629 
  15   0.0000       0.309628         8.4254 
  16   0.0000       0.401578        10.9275 
  17   0.0000       0.455852        12.4044 
  18   0.0000       0.500902        13.6302 
  19   0.0000       0.546319        14.8661 
  20   0.0000       0.557219        15.1627 
  21   0.0000       0.573594        15.6083 
  22   0.0000       0.614420        16.7192 
  23   0.0000       0.630487        17.1564 
  24   0.0000       0.689164        18.7531 
  25   0.0000       0.767759        20.8918 
  26   0.0000       0.809738        22.0341 
  27   0.0000       0.856640        23.3104 
  28   0.0000       0.991392        26.9771 
  29   0.0000       1.052708        28.6456 
  30   0.0000       1.104708        30.0606 
  31   0.0000       1.386590        37.7310 
  32   0.0000       1.483623        40.3714 
  33   0.0000       1.537861        41.8473 
  34   0.0000       1.599199        43.5164 
  35   0.0000       1.631439        44.3937 
  36   0.0000       1.660094        45.1735 
  37   0.0000       1.670695        45.4619 
  38   0.0000       1.710021        46.5320 
  39   0.0000       1.776310        48.3358 
  40   0.0000       1.949209        53.0407 
  41   0.0000       2.001482        54.4631 
  42   0.0000       2.079684        56.5911 
  43   0.0000       2.093237        56.9599 
  44   0.0000       2.154800        58.6351 
  45   0.0000       2.292755        62.3890 
  46   0.0000       2.313207        62.9456 
  47   0.0000       2.384550        64.8869 
  48   0.0000       2.419845        65.8473 
  49   0.0000       2.500461        68.0410 
  50   0.0000       2.513213        68.3880 
  51   0.0000       2.630161        71.5703 
  52   0.0000       2.680486        72.9397 
  53   0.0000       2.710901        73.7674 
  54   0.0000       2.869049        78.0708 
  55   0.0000       2.905720        79.0687 
  56   0.0000       2.936894        79.9169 
  57   0.0000       2.994356        81.4806 
  58   0.0000       3.119187        84.8774 
  59   0.0000       3.183230        86.6201 
  60   0.0000       3.288336        89.4802 
  61   0.0000       3.392379        92.3113 
  62   0.0000       3.500164        95.2443 
  63   0.0000       3.562212        96.9327 
  64   0.0000       3.613207        98.3204 
  65   0.0000       3.664730        99.7224 
  66   0.0000       3.705765       100.8390 
  67   0.0000       4.051790       110.2548 
  68   0.0000       4.284926       116.5988 
  69   0.0000       4.430633       120.5637 
  70   0.0000       4.461358       121.3997 
  71   0.0000       4.575549       124.5070 
  72   0.0000       5.346213       145.4779 
  73   0.0000       5.412684       147.2866 
  74   0.0000       5.614765       152.7855 
  75   0.0000       5.825656       158.5242 
  76   0.0000       5.857138       159.3808 
  77   0.0000       5.981644       162.7688 
  78   0.0000       6.506611       177.0539 
  79   0.0000       6.530498       177.7039 
  80   0.0000       6.779917       184.4909 
  81   0.0000       6.799457       185.0226 
  82   0.0000       7.040463       191.5807 
  83   0.0000       7.272230       197.8874 
  84   0.0000      22.544621       613.4703 
  85   0.0000      43.640330      1187.5138 

                    ********************************
                    * MULLIKEN POPULATION ANALYSIS *
                    ********************************

-----------------------
MULLIKEN ATOMIC CHARGES
-----------------------
   0 C :   -0.157024
   1 O :   -0.473872
   2 H :    0.304799
   3 H :    0.117342
   4 H :    0.103108
   5 H :    0.105648
Sum of atomic charges:   -0.0000000

--------------------------------
MULLIKEN REDUCED ORBITAL CHARGES
--------------------------------
  0 C s       :     3.198667  s :     3.198667
      pz      :     1.064631  p :     2.854350
      px      :     1.031437
      py      :     0.758283
      dz2     :     0.010836  d :     0.096617
      dxz     :     0.011243
      dyz     :     0.028312
      dx2y2   :     0.015618
      dxy     :     0.030609
      f0      :     0.001244  f :     0.007390
      f+1     :     0.000534
      f-1     :     0.000833
      f+2     :     0.000727
      f-2     :     0.000888
      f+3     :     0.001455
      f-3     :     0.001709
  1 O s       :     3.773420  s :     3.773420
      pz      :     1.837448  p :     4.669911
      px      :     1.553229
      py      :     1.279234
      dz2     :     0.003985  d :     0.028766
      dxz     :     0.003724
      dyz     :     0.003440
      dx2y2   :     0.005058
      dxy     :     0.012559
      f0      :     0.000326  f :     0.001776
      f+1     :     0.000144
      f-1     :     0.000307
      f+2     :     0.000130
      f-2     :     0.000316
      f+3     :     0.000177
      f-3     :     0.000376
  2 H s       :     0.640017  s :     0.640017
      pz      :     0.020800  p :     0.055184
      px      :     0.017506
      py      :     0.016878
  3 H s       :     0.862384  s :     0.862384
      pz      :     0.004800  p :     0.020274
      px      :     0.007837
      py      :     0.007637
  4 H s       :     0.875414  s :     0.875414
      pz      :     0.012030  p :     0.021479
      px      :     0.005949
      py      :     0.003500
  5 H s       :     0.873197  s :     0.873197
      pz      :     0.007493  p :     0.021155
      px      :     0.009630
      py      :     0.004032


                     *******************************
                     * LOEWDIN POPULATION ANALYSIS *
                     *******************************

----------------------
LOEWDIN ATOMIC CHARGES
----------------------
   0 C :   -0.362518
   1 O :   -0.051485
   2 H :    0.131814
   3 H :    0.108649
   4 H :    0.086672
   5 H :    0.086867

-------------------------------
LOEWDIN REDUCED ORBITAL CHARGES
-------------------------------
  0 C s       :     2.833972  s :     2.833972
      pz      :     1.112229  p :     3.066144
      px      :     1.082184
      py      :     0.871731
      dz2     :     0.067081  d :     0.406614
      dxz     :     0.053174
      dyz     :     0.092253
      dx2y2   :     0.069630
      dxy     :     0.124476
      f0      :     0.006318  f :     0.055787
      f+1     :     0.002525
      f-1     :     0.007865
      f+2     :     0.010125
      f-2     :     0.006818
      f+3     :     0.011288
      f-3     :     0.010848
  1 O s       :     3.335788  s :     3.335788
      pz      :     1.739193  p :     4.641649
      px      :     1.571895
      py      :     1.330560
      dz2     :     0.007344  d :     0.069366
      dxz     :     0.005536
      dyz     :     0.012824
      dx2y2   :     0.013609
      dxy     :     0.030054
      f0      :     0.000635  f :     0.004681
      f+1     :     0.000168
      f-1     :     0.000646
      f+2     :     0.000354
      f-2     :     0.000711
      f+3     :     0.000677
      f-3     :     0.001491
  2 H s       :     0.683885  s :     0.683885
      pz      :     0.060467  p :     0.184301
      px      :     0.074185
      py      :     0.049649
  3 H s       :     0.831369  s :     0.831369
      pz      :     0.015058  p :     0.059982
      px      :     0.023745
      py      :     0.021178
  4 H s       :     0.845034  s :     0.845034
      pz      :     0.037272  p :     0.068293
      px      :     0.019388
      py      :     0.011633
  5 H s       :     0.843389  s :     0.843389
      pz      :     0.024372  p :     0.069744
      px      :     0.031098
      py      :     0.014274


                      *****************************
                      * MAYER POPULATION ANALYSIS *
                      *****************************

  NA   - Mulliken gross atomic population
  ZA   - Total nuclear charge
  QA   - Mulliken gross atomic charge
  VA   - Mayer's total valence
  BVA  - Mayer's bonded valence
  FA   - Mayer's free valence

  ATOM       NA         ZA         QA         VA         BVA        FA
  0 C      6.1570     6.0000    -0.1570     3.9510     3.9510     0.0000
  1 O      8.4739     8.0000    -0.4739     1.9002     1.9002    -0.0000
  2 H      0.6952     1.0000     0.3048     0.9247     0.9247     0.0000
  3 H      0.8827     1.0000     0.1173     0.9573     0.9573    -0.0000
  4 H      0.8969     1.0000     0.1031     0.9504     0.9504    -0.0000
  5 H      0.8944     1.0000     0.1056     0.9579     0.9579    -0.0000

  Mayer bond orders larger than 0.1
B(  0-C ,  1-O ) :   1.0031 B(  0-C ,  3-H ) :   0.9770 B(  0-C ,  4-H ) :   0.9738 
B(  0-C ,  5-H ) :   0.9858 B(  1-O ,  2-H ) :   0.9123 


------------------
HIRSHFELD ANALYSIS
------------------

Total integrated alpha density =      8.999864595
Total integrated beta density  =      8.999864595

  ATOM     CHARGE      SPIN    
   0 C    0.005609    0.000000
   1 O   -0.252937    0.000000
   2 H    0.156096    0.000000
   3 H    0.039045    0.000000
   4 H    0.026840    0.000000
   5 H    0.025617    0.000000

  TOTAL   0.000271    0.000000

-------
TIMINGS
-------

Total SCF time: 0 days 0 hours 0 min 28 sec 

Total time                  ....      28.408 sec
Sum of individual times     ....      24.609 sec  ( 86.6%)

Fock matrix formation       ....      17.979 sec  ( 63.3%)
  XC integration            ....       4.276 sec  ( 23.8% of F)
    Basis function eval.    ....       0.034 sec  (  0.8% of XC)
    Density eval.           ....       0.048 sec  (  1.1% of XC)
    XC-Functional eval.     ....       0.107 sec  (  2.5% of XC)
    XC-Potential eval.      ....       0.036 sec  (  0.8% of XC)
Diagonalization             ....       2.205 sec  (  7.8%)
Density matrix formation    ....       1.808 sec  (  6.4%)
Population analysis         ....       0.029 sec  (  0.1%)
Initial guess               ....       0.610 sec  (  2.1%)
Orbital Transformation      ....       0.000 sec  (  0.0%)
Orbital Orthonormalization  ....       0.000 sec  (  0.0%)
DIIS solution               ....       0.330 sec  (  1.2%)
SOSCF solution              ....       0.571 sec  (  2.0%)
Grid generation             ....       1.076 sec  (  3.8%)


-------------------------------------------------------------------------------
                          DFT DISPERSION CORRECTION                            
                                                                               
                              DFTD3 V3.1  Rev 1                                
                              USING zero damping                               
-------------------------------------------------------------------------------
The omegaB97X-D3 functional is recognized. Fit by Chai et al.
Active option DFTDOPT                   ...         3   

molecular C6(AA) [au] = 208.621958 


            DFT-D V3
 parameters
 s6 scaling factor         :     1.0000 
 rs6 scaling factor        :     1.2810 
 s8 scaling factor         :     1.0000 
 rs8 scaling factor        :     1.0940 
 Damping factor alpha6     :    14.0000 
 Damping factor alpha8     :    16.0000 
 ad hoc parameters k1-k3   :    16.0000     1.3333    -4.0000 

 Edisp/kcal,au: -0.150314520652  -0.000239541411 
 E6   /kcal   :  -0.029409417 
 E8   /kcal   :  -0.120905104 
 % E8         :  80.434746588 

-------------------------   ----------------
Dispersion correction           -0.000239541
-------------------------   ----------------


-------------------------   --------------------
FINAL SINGLE POINT ENERGY      -115.728371528948
-------------------------   --------------------


                            ***************************************
                            *     ORCA property calculations      *
                            ***************************************

                                    ---------------------
                                    Active property flags
                                    ---------------------
   (+) Dipole Moment


------------------------------------------------------------------------------
                       ORCA ELECTRIC PROPERTIES CALCULATION
------------------------------------------------------------------------------

Dipole Moment Calculation                       ... on
Quadrupole Moment Calculation                   ... off
Polarizability Calculation                      ... off
GBWName                                         ... 186_charges.gbw
Electron density file                           ... 186_charges.scfp.tmp
The origin for moment calculation is the CENTER OF MASS  = (22.823546, 17.158924 -9.581091)

-------------
DIPOLE MOMENT
-------------
                                X             Y             Z
Electronic contribution:      0.73881       1.65870      -0.27618
Nuclear contribution   :     -1.42276      -1.84310       0.18373
                        -----------------------------------------
Total Dipole Moment    :     -0.68395      -0.18440      -0.09245
                        -----------------------------------------
Magnitude (a.u.)       :      0.71438
Magnitude (Debye)      :      1.81581



--------------------
Rotational spectrum 
--------------------
 
Rotational constants in cm-1:     4.772625     0.825414     0.798385 
Rotational constants in MHz : 143079.690138 24745.284445 23934.972964 

 Dipole components along the rotational axes: 
x,y,z [a.u.] :    -0.358935     0.606157    -0.118660 
x,y,z [Debye]:    -0.912339     1.540730    -0.301609 

 
------------------------------------------------------------------------------
                      ORCA CHELPG CHARGES GENERATION
------------------------------------------------------------------------------

GBW file                           ... 186_charges.gbw

Reading the GBW file               ... done

Grid spacing                       ...     0.300000
Point Cut-Off                      ...     2.800000
Van-der-Waals Radii                ...        COSMO
Total charge                       ...            0


Number of points X direction       ...           23
Number of points Y direction       ...           27
Number of points Z direction       ...           23
Maximum number of possible points  ...        14283
Final number of points             ...         5802


CHELPG Charges            
--------------------------------
  0   C   :       0.207280
  1   O   :      -0.659423
  2   H   :       0.421447
  3   H   :       0.038312
  4   H   :       0.004225
  5   H   :      -0.011842
--------------------------------
Total charge:     0.000000
--------------------------------

CHELPG charges calculated...

Timings for individual parts in CHELPG calculation:
Grid generation                 ...        0.001 sec (=   0.000 min)
Potential calculation           ...        0.661 sec (=   0.011 min)
Fit to the potential            ...        0.001 sec (=   0.000 min)
------------------------------------------------------------------------------


Timings for individual modules:

Sum of individual times         ...       39.667 sec (=   0.661 min)
GTO integral calculation        ...        4.225 sec (=   0.070 min)  10.7 %
SCF iterations                  ...       34.723 sec (=   0.579 min)  87.5 %
CHELPG charge generation        ...        0.720 sec (=   0.012 min)   1.8 %
                             ****ORCA TERMINATED NORMALLY****
TOTAL RUN TIME: 0 days 0 hours 0 minutes 41 seconds 540 msec
