
                                 *****************
                                 * O   R   C   A *
                                 *****************

           --- An Ab Initio, DFT and Semiempirical electronic structure package ---

                  #######################################################
                  #                        -***-                        #
                  #          Department of theory and spectroscopy      #
                  #               Directorship: Frank Neese             #
                  #        Max Planck Institute fuer Kohlenforschung    #
                  #                Kaiser Wilhelm Platz 1               #
                  #                 D-45470 Muelheim/Ruhr               #
                  #                      Germany                        #
                  #                                                     #
                  #                  All rights reserved                #
                  #                        -***-                        #
                  #######################################################


                         Program Version 4.1.2  - RELEASE  -


 With contributions from (in alphabetic order):
   Daniel Aravena         : Magnetic Properties
   Michael Atanasov       : Ab Initio Ligand Field Theory
   Alexander A. Auer      : GIAO ZORA
   Ute Becker             : Parallelization
   Giovanni Bistoni       : ED, Open-shell LED
   Martin Brehm           : Molecular dynamics
   Dmytro Bykov           : SCF Hessian
   Vijay G. Chilkuri      : MRCI spin determinant printing
   Dipayan Datta          : RHF DLPNO-CCSD density
   Achintya Kumar Dutta   : EOM-CC, STEOM-CC
   Dmitry Ganyushin       : Spin-Orbit,Spin-Spin,Magnetic field MRCI
   Miquel Garcia          : C-PCM Hessian
   Yang Guo               : DLPNO-NEVPT2, CIM, IAO-localization
   Andreas Hansen         : Spin unrestricted coupled pair/coupled cluster methods
   Benjamin Helmich-Paris : CASSCF linear response (MC-RPA)
   Lee Huntington         : MR-EOM, pCC
   Robert Izsak           : Overlap fitted RIJCOSX, COSX-SCS-MP3, EOM
   Christian Kollmar      : KDIIS, OOCD, Brueckner-CCSD(T), CCSD density
   Simone Kossmann        : Meta GGA functionals, TD-DFT gradient, OOMP2, MP2 Hessian
   Martin Krupicka        : AUTO-CI
   Lucas Lang             : DCDCAS
   Dagmar Lenk            : GEPOL surface, SMD
   Dimitrios Liakos       : Extrapolation schemes; parallel MDCI
   Dimitrios Manganas     : ROCIS; embedding schemes
   Dimitrios Pantazis     : SARC Basis sets
   Taras Petrenko         : DFT Hessian,TD-DFT gradient, ASA, ECA, R-Raman, ABS, FL, XAS/XES, NRVS
   Peter Pinski           : DLPNO-MP2, DLPNO-MP2 Gradient
   Christoph Reimann      : Effective Core Potentials
   Marius Retegan         : Local ZFS, SOC
   Christoph Riplinger    : Optimizer, TS searches, QM/MM, DLPNO-CCSD(T), (RO)-DLPNO pert. Triples
   Tobias Risthaus        : Range-separated hybrids, TD-DFT gradient, RPA, STAB
   Michael Roemelt        : Restricted open shell CIS
   Masaaki Saitow         : Open-shell DLPNO
   Barbara Sandhoefer     : DKH picture change effects
   Avijit Sen             : IP-ROCIS
   Kantharuban Sivalingam : CASSCF convergence, NEVPT2, FIC-MRCI
   Bernardo de Souza      : ESD, SOC TD-DFT
   Georgi Stoychev        : AutoAux, RI-MP2 NMR
   Willem Van den Heuvel  : Paramagnetic NMR
   Boris Wezisla          : Elementary symmetry handling
   Frank Wennmohs         : Technical directorship


 We gratefully acknowledge several colleagues who have allowed us to
 interface, adapt or use parts of their codes:
   Stefan Grimme, W. Hujo, H. Kruse,             : VdW corrections, initial TS optimization,
                  C. Bannwarth                     DFT functionals, gCP, sTDA/sTD-DF
   Ed Valeev                                     : LibInt (2-el integral package), F12 methods
   Garnet Chan, S. Sharma, J. Yang, R. Olivares  : DMRG
   Ulf Ekstrom                                   : XCFun DFT Library
   Mihaly Kallay                                 : mrcc  (arbitrary order and MRCC methods)
   Andreas Klamt, Michael Diedenhofen            : otool_cosmo (COSMO solvation model)
   Jiri Pittner, Ondrej Demel                    : Mk-CCSD
   Frank Weinhold                                : gennbo (NPA and NBO analysis)
   Christopher J. Cramer and Donald G. Truhlar   : smd solvation model
   Lars Goerigk                                  : TD-DFT with DH, B97 family of functionals
   V. Asgeirsson, H. Jonsson                     : NEB implementation
   FAccTs GmbH                                   : IRC, NEB, NEB-TS, Multilevel


 Your calculation uses the libint2 library for the computation of 2-el integrals
 For citations please refer to: http://libint.valeyev.net

 This ORCA versions uses:
   CBLAS   interface :  Fast vector & matrix operations
   LAPACKE interface :  Fast linear algebra routines
   SCALAPACK package :  Parallel linear algebra routines


Your calculation utilizes the atom-pairwise dispersion correction
with the zero-damping scheme (D30)
Cite in your paper:
S.Grimme, J.Antony, S.Ehrlich and H.Krieg, J.Chem.Phys., 132, (2010), 154104 
   

XCFun DFT library Copyright 2009-2010 Ulf Ekstrom and contributors.
See http://admol.org/xcfun for more information. This is free soft-
ware; see the source code for copying conditions. There is ABSOLUTELY
NO WARRANTY; not even for MERCHANTABILITY or FITNESS FOR A PARTICULAR
PURPOSE. For details see the documentation. Scientific users of this 
library should cite U. Ekstrom, L. Visscher, R. Bast, A. J. Thorvald-
sen and K. Ruud; J.Chem.Theor.Comp. 2010, DOI: 10.1021/ct100117s
XCFun Version 0.99 
----- Orbital basis set information -----
Your calculation utilizes the basis: def2-TZVP
   F. Weigend and R. Ahlrichs, Phys. Chem. Chem. Phys. 7, 3297 (2005).

================================================================================
                                        WARNINGS
                       Please study these warnings very carefully!
================================================================================


WARNING: Geometry Optimization
  ===> : Switching off AutoStart
         For restart on a previous wavefunction, please use MOREAD

INFO   : the flag for use of LIBINT has been found!

================================================================================
                                       INPUT FILE
================================================================================
NAME = bonds_angles_[1[6[8][1][1]]]-[6[8[1]][1][1][1]]-[1[6[8][1][1]]]_9.in
|  1> #Run DFT geometry optimization
|  2> ! wB97X-D3 def2-TZVP TIGHTSCF Grid5 FinalGrid6 Opt CHELPG PAL4
|  3> 
|  4> %base "9_geo_opt"
|  5> %geom MaxIter 500
|  6> end
|  7> 
|  8> %geom
|  9>   Constraints
| 10>     { A 5 0 4 C }
| 11>   end
| 12> end
| 13> 
| 14> 
| 15> * xyz 0 1
| 16>   C                    3.011308             -1.180897            0.598492            
| 17>   O                    4.394673             -1.128050            0.874308            
| 18>   H                    4.772196             -0.379022            0.412493            
| 19>   H                    2.806434             -1.318965            -0.469350           
| 20>   H                    2.609252             -2.037972            1.137781            
| 21>   H                    2.482678             -0.286644            0.948042            
| 22> *
| 23> 
| 24>                          ****END OF INPUT****
================================================================================

                       *****************************
                       * Geometry Optimization Run *
                       *****************************

Geometry optimization settings:
Update method            Update   .... BFGS
Choice of coordinates    CoordSys .... Z-matrix Internals
Initial Hessian          InHess   .... Almoef's Model

Convergence Tolerances:
Energy Change            TolE     ....  5.0000e-06 Eh
Max. Gradient            TolMAXG  ....  3.0000e-04 Eh/bohr
RMS Gradient             TolRMSG  ....  1.0000e-04 Eh/bohr
Max. Displacement        TolMAXD  ....  4.0000e-03 bohr
RMS Displacement         TolRMSD  ....  2.0000e-03 bohr

------------------------------------------------------------------------------
                        ORCA OPTIMIZATION COORDINATE SETUP
------------------------------------------------------------------------------

The optimization will be done in new redundant internal coordinates
Making redundant internal coordinates   ...  (new redundants) done
Evaluating the initial hessian          ...  (Almloef) done
Evaluating the coordinates              ...  done
Calculating the B-matrix                .... done
Calculating the G-matrix                .... done
Diagonalizing the G-matrix              .... done
Imposing constraints:
 Iter   0:  RMS(Cart)=    0.0000000000 RMS(Int)=    0.0000000000
CONVERGED
The first mode is                       ....    3
The number of degrees of freedom        ....   12
Storing new coordinates                 .... done

    -----------------------------------------------------------------
                    Redundant Internal Coordinates


    -----------------------------------------------------------------
         Definition                    Initial Value    Approx d2E/dq
    -----------------------------------------------------------------
      1. B(O   1,C   0)                  1.4116         0.516942   
      2. B(H   2,O   1)                  0.9575         0.524720   
      3. B(H   3,C   0)                  1.0960         0.352187   
      4. B(H   4,C   0)                  1.0895         0.360732   
      5. B(H   5,C   0)                  1.0960         0.352186   
      6. A(O   1,C   0,H   4)          107.1203         0.340286   
      7. A(O   1,C   0,H   3)          112.2263         0.338926   
      8. A(O   1,C   0,H   5)          112.3215         0.338926   
      9. A(H   3,C   0,H   5)          108.8647         0.288819   
     10. A(H   4,C   0,H   5)          107.8173         0.289907 C 
     11. A(H   3,C   0,H   4)          108.3106         0.289907   
     12. A(C   0,O   1,H   2)          108.7499         0.359342   
     13. D(H   2,O   1,C   0,H   5)    -61.6216         0.021176   
     14. D(H   2,O   1,C   0,H   3)     61.4271         0.021176   
     15. D(H   2,O   1,C   0,H   4)   -179.8228         0.021176   
    -----------------------------------------------------------------

Number of atoms                         .... 6
Number of degrees of freedom            .... 15

         *************************************************************
         *                GEOMETRY OPTIMIZATION CYCLE   1            *
         *************************************************************
---------------------------------
CARTESIAN COORDINATES (ANGSTROEM)
---------------------------------
  C      3.011308   -1.180897    0.598492
  O      4.394673   -1.128050    0.874308
  H      4.772196   -0.379022    0.412493
  H      2.806434   -1.318965   -0.469350
  H      2.609252   -2.037972    1.137781
  H      2.482678   -0.286644    0.948042

----------------------------
CARTESIAN COORDINATES (A.U.)
----------------------------
  NO LB      ZA    FRAG     MASS         X           Y           Z
   0 C     6.0000    0    12.011    5.690547   -2.231572    1.130986
   1 O     8.0000    0    15.999    8.304728   -2.131706    1.652203
   2 H     1.0000    0     1.008    9.018143   -0.716248    0.779499
   3 H     1.0000    0     1.008    5.303392   -2.492483   -0.886943
   4 H     1.0000    0     1.008    4.930772   -3.851209    2.150094
   5 H     1.0000    0     1.008    4.691581   -0.541679    1.791540

--------------------------------
INTERNAL COORDINATES (ANGSTROEM)
--------------------------------
 C      0   0   0     0.000000000000     0.00000000     0.00000000
 O      1   0   0     1.411582797603     0.00000000     0.00000000
 H      2   1   0     0.957517443464   108.74989122     0.00000000
 H      1   2   3     1.096048660172   112.22633944    61.42708393
 H      1   2   3     1.089522468002   107.12026338   180.17717503
 H      1   2   3     1.096048953017   112.32150851   298.37841842

---------------------------
INTERNAL COORDINATES (A.U.)
---------------------------
 C      0   0   0     0.000000000000     0.00000000     0.00000000
 O      1   0   0     2.667504902825     0.00000000     0.00000000
 H      2   1   0     1.809445736600   108.74989122     0.00000000
 H      1   2   3     2.071231797176   112.22633944    61.42708393
 H      1   2   3     2.058899081278   107.12026338   180.17717503
 H      1   2   3     2.071232350573   112.32150851   298.37841842

---------------------
BASIS SET INFORMATION
---------------------
There are 3 groups of distinct atoms

 Group   1 Type C   : 11s6p2d1f contracted to 5s3p2d1f pattern {62111/411/11/1}
 Group   2 Type O   : 11s6p2d1f contracted to 5s3p2d1f pattern {62111/411/11/1}
 Group   3 Type H   : 5s1p contracted to 3s1p pattern {311/1}

Atom   0C    basis set group =>   1
Atom   1O    basis set group =>   2
Atom   2H    basis set group =>   3
Atom   3H    basis set group =>   3
Atom   4H    basis set group =>   3
Atom   5H    basis set group =>   3


           ************************************************************
           *        Program running with 4 parallel MPI-processes     *
           *              working on a common directory               *
           ************************************************************
------------------------------------------------------------------------------
                           ORCA GTO INTEGRAL CALCULATION
------------------------------------------------------------------------------

                         BASIS SET STATISTICS AND STARTUP INFO

 # of primitive gaussian shells          ...   64
 # of primitive gaussian functions       ...  124
 # of contracted shells                  ...   38
 # of contracted basis functions         ...   86
 Highest angular momentum                ...    3
 Maximum contraction depth               ...    6
 Integral package used                   ... LIBINT
 Integral threshhold            Thresh   ...  2.500e-11
 Primitive cut-off              TCut     ...  2.500e-12


------------------------------ INTEGRAL EVALUATION ----------------------------


 * One electron integrals 
 Pre-screening matrix                    ... done
 Shell pair data                         ... done (   0.000 sec)



           ************************************************************
           *        Program running with 4 parallel MPI-processes     *
           *              working on a common directory               *
           ************************************************************
-------------------------------------------------------------------------------
                                 ORCA SCF
-------------------------------------------------------------------------------

------------
SCF SETTINGS
------------
Hamiltonian:
 Density Functional     Method          .... DFT(GTOs)
 Exchange Functional    Exchange        .... WB97X-D3
 Correlation Functional Correlation     .... WB97X-D3
 Gradients option       PostSCFGGA      .... off
 Hybrid DFT is turned on
   Fraction HF Exchange ScalHFX         ....  0.195728
   Scaling of DF-GGA-X  ScalDFX         ....  0.000000
   Scaling of DF-GGA-C  ScalDFC         ....  1.000000
   Scaling of DF-LDA-C  ScalLDAC        ....  1.000000
   Perturbative correction              ....  0.000000
   Density functional embedding theory  .... OFF
 Long-range corrected/Screened/Range-Separated Hybrid DFT is turned on
   Amount of maximum screened exact exchange              ....  0.804272
   Range separation parameter mu (erf(mu*r12)/r12)        ....  0.250000


General Settings:
 Integral files         IntName         .... 9_geo_opt
 Hartree-Fock type      HFTyp           .... RHF
 Total Charge           Charge          ....    0
 Multiplicity           Mult            ....    1
 Number of Electrons    NEL             ....   18
 Basis Dimension        Dim             ....   86
 Nuclear Repulsion      ENuc            ....     40.4358464751 Eh

Convergence Acceleration:
 DIIS                   CNVDIIS         .... on
   Start iteration      DIISMaxIt       ....    12
   Startup error        DIISStart       ....  0.200000
   # of expansion vecs  DIISMaxEq       ....     5
   Bias factor          DIISBfac        ....   1.050
   Max. coefficient     DIISMaxC        ....  10.000
 Newton-Raphson         CNVNR           .... off
 SOSCF                  CNVSOSCF        .... on
   Start iteration      SOSCFMaxIt      ....   150
   Startup grad/error   SOSCFStart      ....  0.003300
 Level Shifting         CNVShift        .... on
   Level shift para.    LevelShift      ....    0.2500
   Turn off err/grad.   ShiftErr        ....    0.0010
 Zerner damping         CNVZerner       .... off
 Static damping         CNVDamp         .... on
   Fraction old density DampFac         ....    0.7000
   Max. Damping (<1)    DampMax         ....    0.9800
   Min. Damping (>=0)   DampMin         ....    0.0000
   Turn off err/grad.   DampErr         ....    0.1000
 Fernandez-Rico         CNVRico         .... off

SCF Procedure:
 Maximum # iterations   MaxIter         ....   125
 SCF integral mode      SCFMode         .... Direct
   Integral package                     .... LIBINT
 Reset frequency        DirectResetFreq ....    20
 Integral Threshold     Thresh          ....  2.500e-11 Eh
 Primitive CutOff       TCut            ....  2.500e-12 Eh

Convergence Tolerance:
 Convergence Check Mode ConvCheckMode   .... Total+1el-Energy
 Convergence forced     ConvForced      .... 0
 Energy Change          TolE            ....  1.000e-08 Eh
 1-El. energy change                    ....  1.000e-05 Eh
 Orbital Gradient       TolG            ....  1.000e-05
 Orbital Rotation angle TolX            ....  1.000e-05
 DIIS Error             TolErr          ....  5.000e-07


Diagonalization of the overlap matrix:
Smallest eigenvalue                        ... 1.650e-03
Time for diagonalization                   ...    0.148 sec
Threshold for overlap eigenvalues          ... 1.000e-08
Number of eigenvalues below threshold      ... 0
Time for construction of square roots      ...    0.005 sec
Total time needed                          ...    0.153 sec

-------------------
DFT GRID GENERATION
-------------------

General Integration Accuracy     IntAcc      ...  5.010
Radial Grid Type                 RadialGrid  ... Gauss-Chebyshev
Angular Grid (max. acc.)         AngularGrid ... Lebedev-434
Angular grid pruning method      GridPruning ... 3 (G Style)
Weight generation scheme         WeightScheme... Becke
Basis function cutoff            BFCut       ...    1.0000e-11
Integration weight cutoff        WCut        ...    1.0000e-14
Grids for H and He will be reduced by one unit

# of grid points (after initial pruning)     ...  48308 (   0.0 sec)
# of grid points (after weights+screening)   ...  46675 (   0.0 sec)
nearest neighbour list constructed           ...    0.0 sec
Grid point re-assignment to atoms done       ...    0.0 sec
Grid point division into batches done        ...    0.3 sec
Reduced shell lists constructed in    0.3 sec

Total number of grid points                  ...    46675
Total number of batches                      ...      733
Average number of points per batch           ...       63
Average number of grid points per atom       ...     7779
Average number of shells per batch           ...    33.10 (87.11%)
Average number of basis functions per batch  ...    76.77 (89.26%)
Average number of large shells per batch     ...    30.62 (92.50%)
Average number of large basis fcns per batch ...    72.31 (94.19%)
Maximum spatial batch extension              ...  15.77, 14.99, 16.58 au
Average spatial batch extension              ...   0.41,  0.41,  0.43 au

Time for grid setup =    0.366 sec

------------------------------
INITIAL GUESS: MODEL POTENTIAL
------------------------------
Loading Hartree-Fock densities                     ... done
Calculating cut-offs                               ... done
Setting up the integral package                    ... done
Initializing the effective Hamiltonian             ... done
Starting the Coulomb interaction                   ... done (   0.0 sec)
Reading the grid                                   ... done
Mapping shells                                     ... done
Starting the XC term evaluation                    ... done (   0.1 sec)
  promolecular density results
     # of electrons  =     17.998045186
     EX              =    -14.430277866
     EC              =     -0.575113261
     EX+EC           =    -15.005391127
Transforming the Hamiltonian                       ... done (   0.0 sec)
Diagonalizing the Hamiltonian                      ... done (   0.0 sec)
Back transforming the eigenvectors                 ... done (   0.0 sec)
Now organizing SCF variables                       ... done
                      ------------------
                      INITIAL GUESS DONE (   0.5 sec)
                      ------------------
--------------
SCF ITERATIONS
--------------
ITER       Energy         Delta-E        Max-DP      RMS-DP      [F,P]     Damp
               ***  Starting incremental Fock matrix formation  ***
  0   -115.6512331773   0.000000000000 0.03695614  0.00147431  0.2522897 0.7000
  1   -115.6882857493  -0.037052572003 0.02202450  0.00104065  0.1262242 0.7000
                               ***Turning on DIIS***
  2   -115.7053452185  -0.017059469219 0.03156034  0.00188110  0.0490916 0.0000
  3   -115.7330752331  -0.027730014651 0.01773936  0.00068027  0.0611057 0.0000
  4   -115.7375970975  -0.004521864366 0.00406170  0.00013175  0.0065587 0.0000
                      *** Initiating the SOSCF procedure ***
                           *** Shutting down DIIS ***
                      *** Re-Reading the Fockian *** 
                      *** Removing any level shift *** 
ITER      Energy       Delta-E        Grad      Rot      Max-DP    RMS-DP
  5   -115.73769118  -0.0000940820  0.000488  0.000488  0.000678  0.000043
               *** Restarting incremental Fock matrix formation ***
  6   -115.73769931  -0.0000081346  0.000151  0.000202  0.000489  0.000026
  7   -115.73770004  -0.0000007216  0.000056  0.000109  0.000208  0.000011
  8   -115.73770009  -0.0000000573  0.000020  0.000017  0.000030  0.000001
  9   -115.73770010  -0.0000000056  0.000010  0.000008  0.000015  0.000001
 10   -115.73770010  -0.0000000015  0.000003  0.000003  0.000003  0.000000
                  ***Gradient check signals convergence***
              ***Rediagonalizing the Fockian in SOSCF/NRSCF***

               *****************************************************
               *                     SUCCESS                       *
               *           SCF CONVERGED AFTER  11 CYCLES          *
               *****************************************************

Setting up the final grid:

General Integration Accuracy     IntAcc      ...  5.340
Radial Grid Type                 RadialGrid  ... Gauss-Chebyshev
Angular Grid (max. acc.)         AngularGrid ... Lebedev-590
Angular grid pruning method      GridPruning ... 3 (G Style)
Weight generation scheme         WeightScheme... Becke
Basis function cutoff            BFCut       ...    1.0000e-11
Integration weight cutoff        WCut        ...    1.0000e-14
Grids for H and He will be reduced by one unit

# of grid points (after initial pruning)     ...  77324 (   0.0 sec)
# of grid points (after weights+screening)   ...  74513 (   0.0 sec)
nearest neighbour list constructed           ...    0.0 sec
Grid point re-assignment to atoms done       ...    0.0 sec
Grid point division into batches done        ...    0.8 sec
Reduced shell lists constructed in    0.8 sec

Total number of grid points                  ...    74513
Total number of batches                      ...     1167
Average number of points per batch           ...       63
Average number of grid points per atom       ...    12419
Average number of shells per batch           ...    32.89 (86.56%)
Average number of basis functions per batch  ...    76.23 (88.63%)
Average number of large shells per batch     ...    30.35 (92.27%)
Average number of large basis fcns per batch ...    71.60 (93.93%)
Maximum spatial batch extension              ...  13.18, 15.65, 15.48 au
Average spatial batch extension              ...   0.34,  0.37,  0.37 au

Final grid set up in    0.9 sec
Final integration                            ... done (   0.2 sec)
Change in XC energy                          ...    -0.000107564
Integrated number of electrons               ...    18.000000745
Previous integrated no of electrons          ...    18.000002275

----------------
TOTAL SCF ENERGY
----------------

Total Energy       :         -115.73780766 Eh           -3149.38586 eV

Components:
Nuclear Repulsion  :           40.43584648 Eh            1100.31532 eV
Electronic Energy  :         -156.17365414 Eh           -4249.70118 eV
One Electron Energy:         -237.29055505 Eh           -6457.00427 eV
Two Electron Energy:           81.11690091 Eh            2207.30309 eV

Virial components:
Potential Energy   :         -230.98795600 Eh           -6285.50183 eV
Kinetic Energy     :          115.25014833 Eh            3136.11597 eV
Virial Ratio       :            2.00423131


DFT components:
N(Alpha)           :        9.000000372663 electrons
N(Beta)            :        9.000000372663 electrons
N(Total)           :       18.000000745325 electrons
E(XC)              :      -10.655558868902 Eh       
DFET-embed. en.    :        0.000000000000 Eh       

---------------
SCF CONVERGENCE
---------------

  Last Energy change         ...   -4.7322e-11  Tolerance :   1.0000e-08
  Last MAX-Density change    ...    1.8828e-06  Tolerance :   1.0000e-07
  Last RMS-Density change    ...    7.8140e-08  Tolerance :   5.0000e-09
  Last Orbital Gradient      ...    1.3494e-06  Tolerance :   1.0000e-05
  Last Orbital Rotation      ...    7.8063e-07  Tolerance :   1.0000e-05

             **** THE GBW FILE WAS UPDATED (9_geo_opt.gbw) ****
             **** DENSITY FILE WAS UPDATED (9_geo_opt.scfp.tmp) ****
             **** ENERGY FILE WAS UPDATED (9_geo_opt.en.tmp) ****
----------------
ORBITAL ENERGIES
----------------

  NO   OCC          E(Eh)            E(eV) 
   0   2.0000     -19.228169      -523.2251 
   1   2.0000     -10.315116      -280.6886 
   2   2.0000      -1.136823       -30.9345 
   3   2.0000      -0.795404       -21.6440 
   4   2.0000      -0.611532       -16.6406 
   5   2.0000      -0.541883       -14.7454 
   6   2.0000      -0.526338       -14.3224 
   7   2.0000      -0.433662       -11.8006 
   8   2.0000      -0.373712       -10.1692 
   9   0.0000       0.116693         3.1754 
  10   0.0000       0.156563         4.2603 
  11   0.0000       0.202647         5.5143 
  12   0.0000       0.205162         5.5827 
  13   0.0000       0.226293         6.1577 
  14   0.0000       0.304413         8.2835 
  15   0.0000       0.313558         8.5323 
  16   0.0000       0.404456        11.0058 
  17   0.0000       0.452645        12.3171 
  18   0.0000       0.484778        13.1915 
  19   0.0000       0.535947        14.5839 
  20   0.0000       0.543736        14.7958 
  21   0.0000       0.567475        15.4418 
  22   0.0000       0.598651        16.2901 
  23   0.0000       0.603834        16.4312 
  24   0.0000       0.671245        18.2655 
  25   0.0000       0.778621        21.1874 
  26   0.0000       0.831958        22.6387 
  27   0.0000       0.861438        23.4409 
  28   0.0000       0.989757        26.9326 
  29   0.0000       1.013897        27.5895 
  30   0.0000       1.109716        30.1969 
  31   0.0000       1.382549        37.6211 
  32   0.0000       1.513320        41.1795 
  33   0.0000       1.553655        42.2771 
  34   0.0000       1.602516        43.6067 
  35   0.0000       1.612859        43.8881 
  36   0.0000       1.624899        44.2158 
  37   0.0000       1.660287        45.1787 
  38   0.0000       1.687698        45.9246 
  39   0.0000       1.775044        48.3014 
  40   0.0000       1.952062        53.1183 
  41   0.0000       2.030427        55.2507 
  42   0.0000       2.055589        55.9354 
  43   0.0000       2.093434        56.9652 
  44   0.0000       2.114477        57.5378 
  45   0.0000       2.268456        61.7278 
  46   0.0000       2.333316        63.4927 
  47   0.0000       2.346127        63.8414 
  48   0.0000       2.381243        64.7969 
  49   0.0000       2.428822        66.0916 
  50   0.0000       2.499003        68.0013 
  51   0.0000       2.595369        70.6236 
  52   0.0000       2.640798        71.8598 
  53   0.0000       2.707117        73.6644 
  54   0.0000       2.842676        77.3531 
  55   0.0000       2.871042        78.1250 
  56   0.0000       2.887993        78.5863 
  57   0.0000       2.992225        81.4226 
  58   0.0000       3.095979        84.2459 
  59   0.0000       3.173418        86.3531 
  60   0.0000       3.297756        89.7365 
  61   0.0000       3.406944        92.7077 
  62   0.0000       3.442340        93.6708 
  63   0.0000       3.488965        94.9396 
  64   0.0000       3.611800        98.2821 
  65   0.0000       3.645123        99.1888 
  66   0.0000       3.667776        99.8053 
  67   0.0000       4.005591       108.9977 
  68   0.0000       4.222636       114.9038 
  69   0.0000       4.275287       116.3365 
  70   0.0000       4.454931       121.2248 
  71   0.0000       4.564254       124.1997 
  72   0.0000       5.346012       145.4724 
  73   0.0000       5.425383       147.6322 
  74   0.0000       5.554185       151.1371 
  75   0.0000       5.826107       158.5364 
  76   0.0000       5.834109       158.7542 
  77   0.0000       5.985632       162.8773 
  78   0.0000       6.379457       173.5938 
  79   0.0000       6.530611       177.7070 
  80   0.0000       6.744849       183.5367 
  81   0.0000       6.803848       185.1421 
  82   0.0000       7.039292       191.5489 
  83   0.0000       7.215649       196.3478 
  84   0.0000      22.406252       609.7051 
  85   0.0000      43.663995      1188.1577 

                    ********************************
                    * MULLIKEN POPULATION ANALYSIS *
                    ********************************

-----------------------
MULLIKEN ATOMIC CHARGES
-----------------------
   0 C :   -0.151041
   1 O :   -0.477573
   2 H :    0.313092
   3 H :    0.098764
   4 H :    0.118157
   5 H :    0.098601
Sum of atomic charges:    0.0000000

--------------------------------
MULLIKEN REDUCED ORBITAL CHARGES
--------------------------------
  0 C s       :     3.222926  s :     3.222926
      pz      :     1.046886  p :     2.826434
      px      :     0.702221
      py      :     1.077327
      dz2     :     0.011057  d :     0.094264
      dxz     :     0.032540
      dyz     :     0.002686
      dx2y2   :     0.012661
      dxy     :     0.035320
      f0      :     0.001356  f :     0.007417
      f+1     :     0.000957
      f-1     :     0.000175
      f+2     :     0.001459
      f-2     :     0.000126
      f+3     :     0.001363
      f-3     :     0.001982
  1 O s       :     3.792787  s :     3.792787
      pz      :     1.759496  p :     4.652532
      px      :     1.313546
      py      :     1.579491
      dz2     :     0.003134  d :     0.030569
      dxz     :     0.006472
      dyz     :     0.005835
      dx2y2   :     0.008937
      dxy     :     0.006191
      f0      :     0.000269  f :     0.001685
      f+1     :     0.000233
      f-1     :     0.000087
      f+2     :     0.000287
      f-2     :     0.000235
      f+3     :     0.000367
      f-3     :     0.000206
  2 H s       :     0.639215  s :     0.639215
      pz      :     0.017007  p :     0.047693
      px      :     0.012719
      py      :     0.017967
  3 H s       :     0.881870  s :     0.881870
      pz      :     0.012074  p :     0.019366
      px      :     0.003005
      py      :     0.004286
  4 H s       :     0.861617  s :     0.861617
      pz      :     0.006308  p :     0.020226
      px      :     0.004213
      py      :     0.009705
  5 H s       :     0.882023  s :     0.882023
      pz      :     0.004945  p :     0.019376
      px      :     0.004996
      py      :     0.009435


                     *******************************
                     * LOEWDIN POPULATION ANALYSIS *
                     *******************************

----------------------
LOEWDIN ATOMIC CHARGES
----------------------
   0 C :   -0.385318
   1 O :   -0.076011
   2 H :    0.165841
   3 H :    0.093458
   4 H :    0.108651
   5 H :    0.093380

-------------------------------
LOEWDIN REDUCED ORBITAL CHARGES
-------------------------------
  0 C s       :     2.862799  s :     2.862799
      pz      :     1.096298  p :     3.052510
      px      :     0.846031
      py      :     1.110181
      dz2     :     0.072290  d :     0.413020
      dxz     :     0.114198
      dyz     :     0.020798
      dx2y2   :     0.081905
      dxy     :     0.123829
      f0      :     0.007814  f :     0.056990
      f+1     :     0.007158
      f-1     :     0.000854
      f+2     :     0.012502
      f-2     :     0.004877
      f+3     :     0.011733
      f-3     :     0.012053
  1 O s       :     3.366271  s :     3.366271
      pz      :     1.699095  p :     4.633552
      px      :     1.381128
      py      :     1.553329
      dz2     :     0.006121  d :     0.071545
      dxz     :     0.017854
      dyz     :     0.008085
      dx2y2   :     0.019338
      dxy     :     0.020147
      f0      :     0.000483  f :     0.004643
      f+1     :     0.000622
      f-1     :     0.000072
      f+2     :     0.001050
      f-2     :     0.000560
      f+3     :     0.000890
      f-3     :     0.000966
  2 H s       :     0.675080  s :     0.675080
      pz      :     0.055752  p :     0.159079
      px      :     0.033896
      py      :     0.069431
  3 H s       :     0.846715  s :     0.846715
      pz      :     0.036184  p :     0.059827
      px      :     0.009707
      py      :     0.013936
  4 H s       :     0.831740  s :     0.831740
      pz      :     0.019241  p :     0.059609
      px      :     0.011654
      py      :     0.028714
  5 H s       :     0.846780  s :     0.846780
      pz      :     0.015633  p :     0.059839
      px      :     0.015247
      py      :     0.028960


                      *****************************
                      * MAYER POPULATION ANALYSIS *
                      *****************************

  NA   - Mulliken gross atomic population
  ZA   - Total nuclear charge
  QA   - Mulliken gross atomic charge
  VA   - Mayer's total valence
  BVA  - Mayer's bonded valence
  FA   - Mayer's free valence

  ATOM       NA         ZA         QA         VA         BVA        FA
  0 C      6.1510     6.0000    -0.1510     3.9351     3.9351    -0.0000
  1 O      8.4776     8.0000    -0.4776     1.8883     1.8883     0.0000
  2 H      0.6869     1.0000     0.3131     0.9135     0.9135     0.0000
  3 H      0.9012     1.0000     0.0988     0.9598     0.9598    -0.0000
  4 H      0.8818     1.0000     0.1182     0.9597     0.9597    -0.0000
  5 H      0.9014     1.0000     0.0986     0.9594     0.9594    -0.0000

  Mayer bond orders larger than 0.1
B(  0-C ,  1-O ) :   0.9989 B(  0-C ,  3-H ) :   0.9756 B(  0-C ,  4-H ) :   0.9749 
B(  0-C ,  5-H ) :   0.9754 B(  1-O ,  2-H ) :   0.9002 

-------
TIMINGS
-------

Total SCF time: 0 days 0 hours 0 min 8 sec 

Total time                  ....       8.971 sec
Sum of individual times     ....       8.439 sec  ( 94.1%)

Fock matrix formation       ....       6.940 sec  ( 77.4%)
  XC integration            ....       1.946 sec  ( 28.0% of F)
    Basis function eval.    ....       0.406 sec  ( 20.9% of XC)
    Density eval.           ....       0.260 sec  ( 13.4% of XC)
    XC-Functional eval.     ....       0.668 sec  ( 34.3% of XC)
    XC-Potential eval.      ....       0.273 sec  ( 14.0% of XC)
Diagonalization             ....       0.015 sec  (  0.2%)
Density matrix formation    ....       0.004 sec  (  0.0%)
Population analysis         ....       0.020 sec  (  0.2%)
Initial guess               ....       0.165 sec  (  1.8%)
Orbital Transformation      ....       0.000 sec  (  0.0%)
Orbital Orthonormalization  ....       0.000 sec  (  0.0%)
DIIS solution               ....       0.015 sec  (  0.2%)
SOSCF solution              ....       0.025 sec  (  0.3%)
Grid generation             ....       1.256 sec  ( 14.0%)


-------------------------------------------------------------------------------
                          DFT DISPERSION CORRECTION                            
                                                                               
                              DFTD3 V3.1  Rev 1                                
                              USING zero damping                               
-------------------------------------------------------------------------------
The omegaB97X-D3 functional is recognized. Fit by Chai et al.
Active option DFTDOPT                   ...         3   

molecular C6(AA) [au] = 208.715830 


            DFT-D V3
 parameters
 s6 scaling factor         :     1.0000 
 rs6 scaling factor        :     1.2810 
 s8 scaling factor         :     1.0000 
 rs8 scaling factor        :     1.0940 
 Damping factor alpha6     :    14.0000 
 Damping factor alpha8     :    16.0000 
 ad hoc parameters k1-k3   :    16.0000     1.3333    -4.0000 

 Edisp/kcal,au: -0.150427746572  -0.000239721848 
 E6   /kcal   :  -0.029682122 
 E8   /kcal   :  -0.120745624 
 % E8         :  80.268186613 

-------------------------   ----------------
Dispersion correction           -0.000239722
-------------------------   ----------------


-------------------------   --------------------
FINAL SINGLE POINT ENERGY      -115.738047385632
-------------------------   --------------------



           ************************************************************
           *        Program running with 4 parallel MPI-processes     *
           *              working on a common directory               *
           ************************************************************
------------------------------------------------------------------------------
                         ORCA SCF GRADIENT CALCULATION
------------------------------------------------------------------------------

Gradient of the Kohn-Sham DFT energy:
Kohn-Sham wavefunction type      ... RKS
Hartree-Fock exchange scaling    ...    0.196
Number of operators              ...    1
Number of atoms                  ...    6
Basis set dimensions             ...   86
Integral neglect threshold       ... 2.5e-11
Integral primitive cutoff        ... 2.5e-12

Nuclear repulsion gradient       ... done
One Electron Gradient            ... done
Pre-screening matrix             ... done
Starting the two electron gradient:
Two electron gradient done
Exchange-correlation gradient    ... done
Dispersion correction            ... done

------------------
CARTESIAN GRADIENT
------------------

   1   C   :    0.000264781    0.000021618   -0.000423930
   2   O   :    0.000226832   -0.000010649   -0.000036306
   3   H   :    0.000027372    0.000003057   -0.000006640
   4   H   :    0.000081684   -0.000003752   -0.000101271
   5   H   :   -0.000319690    0.000383977    0.000246875
   6   H   :   -0.000280979   -0.000394250    0.000321272

Difference to translation invariance:
           :    0.0000000000   -0.0000000000    0.0000000000

Norm of the cartesian gradient     ...    0.0009844322
RMS gradient                       ...    0.0002320329
MAX gradient                       ...    0.0004239298

-------
TIMINGS
-------

Total SCF gradient time            ...        1.768 sec

One electron gradient       ....       0.005 sec  (  0.3%)
Prescreening matrices       ....       0.024 sec  (  1.4%)
Two electron gradient       ....       0.840 sec  ( 47.5%)
XC gradient                 ....       0.604 sec  ( 34.2%)
------------------------------------------------------------------------------
                         ORCA GEOMETRY RELAXATION STEP
------------------------------------------------------------------------------

Reading the OPT-File                    .... done
Getting information on internals        .... done
Copying old internal coords+grads       .... done
Making the new internal coordinates     .... (new redundants).... done
Validating the new internal coordinates .... (new redundants).... done
Calculating the B-matrix                .... done
Calculating the G,G- and P matrices     .... done
Transforming gradient to internals      .... done
Projecting the internal gradient        .... done
Number of atoms                         ....   6
Number of internal coordinates          ....  15
Current Energy                          ....  -115.738047386 Eh
Current gradient norm                   ....     0.000984432 Eh/bohr
Maximum allowed component of the step   ....  0.300
Current trust radius                    ....  0.300
Evaluating the initial hessian          ....  (Almloef) done
Projecting the Hessian                  .... done
Forming the augmented Hessian           .... done
Diagonalizing the augmented Hessian     .... done
Last element of RFO vector              ....  0.999999554
Lowest eigenvalues of augmented Hessian:
 -0.000000288  0.021176454  0.184096154  0.268714668  0.324211668
Length of the computed step             ....  0.000944601
The final length of the internal step   ....  0.000944601
Converting the step to cartesian space:
 Initial RMS(Int)=    0.0002438949
Transforming coordinates:
 Iter   0:  RMS(Cart)=    0.0002365029 RMS(Int)=    0.0002438965
 Iter   1:  RMS(Cart)=    0.0000000489 RMS(Int)=    0.0000000458
Imposing constraints:
 Iter   0:  RMS(Cart)=    0.0000000035 RMS(Int)=    0.0000000069
CONVERGED
done
Storing new coordinates                 .... done

                                .--------------------.
          ----------------------|Geometry convergence|-------------------------
          Item                value                   Tolerance       Converged
          ---------------------------------------------------------------------
          RMS gradient        0.0000877940            0.0001000000      YES
          MAX gradient        0.0002407610            0.0003000000      YES
          RMS step            0.0002438949            0.0020000000      YES
          MAX step            0.0005120685            0.0040000000      YES
          ........................................................
          Max(Bonds)      0.0002      Max(Angles)    0.03
          Max(Dihed)        0.02      Max(Improp)    0.00
          ---------------------------------------------------------------------

                    ***********************HURRAY********************
                    ***        THE OPTIMIZATION HAS CONVERGED     ***
                    *************************************************


    ---------------------------------------------------------------------------
                         Redundant Internal Coordinates

                          --- Optimized Parameters ---  
                            (Angstroem and degrees)

        Definition                    OldVal   dE/dq     Step     FinalVal
    ----------------------------------------------------------------------------
     1. B(O   1,C   0)                1.4116  0.000241 -0.0002    1.4113   
     2. B(H   2,O   1)                0.9575  0.000016 -0.0000    0.9575   
     3. B(H   3,C   0)                1.0960  0.000084 -0.0001    1.0959   
     4. B(H   4,C   0)                1.0895 -0.000062  0.0001    1.0896   
     5. B(H   5,C   0)                1.0960 -0.000084  0.0001    1.0962   
     6. A(O   1,C   0,H   4)          107.12  0.000266   -0.00    107.12   
     7. A(O   1,C   0,H   3)          112.23 -0.000098    0.03    112.26   
     8. A(O   1,C   0,H   5)          112.32  0.000305   -0.01    112.31   
     9. A(H   3,C   0,H   5)          108.86  0.000102   -0.01    108.86   
    10. A(H   4,C   0,H   5)          107.82 -0.000724    0.00    107.82 C 
    11. A(H   3,C   0,H   4)          108.31  0.000114   -0.01    108.30   
    12. A(C   0,O   1,H   2)          108.75  0.000040   -0.01    108.74   
    13. D(H   2,O   1,C   0,H   5)    -61.62 -0.000283    0.01    -61.61   
    14. D(H   2,O   1,C   0,H   3)     61.43  0.000008    0.01     61.44   
    15. D(H   2,O   1,C   0,H   4)   -179.82  0.000260    0.02   -179.80   
    ----------------------------------------------------------------------------
                 *******************************************************
                 *** FINAL ENERGY EVALUATION AT THE STATIONARY POINT ***
                 ***               (AFTER    1 CYCLES)               ***
                 *******************************************************
---------------------------------
CARTESIAN COORDINATES (ANGSTROEM)
---------------------------------
  C      3.011474   -1.180946    0.598349
  O      4.394555   -1.128090    0.874324
  H      4.772006   -0.378954    0.412658
  H      2.806234   -1.319031   -0.469291
  H      2.609337   -2.038020    1.137764
  H      2.482935   -0.286510    0.947961

----------------------------
CARTESIAN COORDINATES (A.U.)
----------------------------
  NO LB      ZA    FRAG     MASS         X           Y           Z
   0 C     6.0000    0    12.011    5.690860   -2.231665    1.130716
   1 O     8.0000    0    15.999    8.304505   -2.131780    1.652233
   2 H     1.0000    0     1.008    9.017785   -0.716119    0.779811
   3 H     1.0000    0     1.008    5.303015   -2.492607   -0.886831
   4 H     1.0000    0     1.008    4.930932   -3.851299    2.150062
   5 H     1.0000    0     1.008    4.692067   -0.541424    1.791387

--------------------------------
INTERNAL COORDINATES (ANGSTROEM)
--------------------------------
 C      0   0   0     0.000000000000     0.00000000     0.00000000
 O      1   0   0     1.411336338065     0.00000000     0.00000000
 H      2   1   0     0.957501454495   108.74351504     0.00000000
 H      1   2   3     1.095922292334   112.25567871    61.43901864
 H      1   2   3     1.089613448999   107.11740650   180.19551931
 H      1   2   3     1.096174758534   112.30821153   298.38738752

---------------------------
INTERNAL COORDINATES (A.U.)
---------------------------
 C      0   0   0     0.000000000000     0.00000000     0.00000000
 O      1   0   0     2.667039161795     0.00000000     0.00000000
 H      2   1   0     1.809415521827   108.74351504     0.00000000
 H      1   2   3     2.070992996571   112.25567871    61.43901864
 H      1   2   3     2.059071010446   107.11740650   180.19551931
 H      1   2   3     2.071470088546   112.30821153   298.38738752

---------------------
BASIS SET INFORMATION
---------------------
There are 3 groups of distinct atoms

 Group   1 Type C   : 11s6p2d1f contracted to 5s3p2d1f pattern {62111/411/11/1}
 Group   2 Type O   : 11s6p2d1f contracted to 5s3p2d1f pattern {62111/411/11/1}
 Group   3 Type H   : 5s1p contracted to 3s1p pattern {311/1}

Atom   0C    basis set group =>   1
Atom   1O    basis set group =>   2
Atom   2H    basis set group =>   3
Atom   3H    basis set group =>   3
Atom   4H    basis set group =>   3
Atom   5H    basis set group =>   3


           ************************************************************
           *        Program running with 4 parallel MPI-processes     *
           *              working on a common directory               *
           ************************************************************
------------------------------------------------------------------------------
                           ORCA GTO INTEGRAL CALCULATION
------------------------------------------------------------------------------

                         BASIS SET STATISTICS AND STARTUP INFO

 # of primitive gaussian shells          ...   64
 # of primitive gaussian functions       ...  124
 # of contracted shells                  ...   38
 # of contracted basis functions         ...   86
 Highest angular momentum                ...    3
 Maximum contraction depth               ...    6
 Integral package used                   ... LIBINT
 Integral threshhold            Thresh   ...  2.500e-11
 Primitive cut-off              TCut     ...  2.500e-12


------------------------------ INTEGRAL EVALUATION ----------------------------


 * One electron integrals 
 Pre-screening matrix                    ... done
 Shell pair data                         ... done (   0.000 sec)



           ************************************************************
           *        Program running with 4 parallel MPI-processes     *
           *              working on a common directory               *
           ************************************************************
-------------------------------------------------------------------------------
                                 ORCA SCF
-------------------------------------------------------------------------------

------------
SCF SETTINGS
------------
Hamiltonian:
 Density Functional     Method          .... DFT(GTOs)
 Exchange Functional    Exchange        .... WB97X-D3
 Correlation Functional Correlation     .... WB97X-D3
 Gradients option       PostSCFGGA      .... off
 Hybrid DFT is turned on
   Fraction HF Exchange ScalHFX         ....  0.195728
   Scaling of DF-GGA-X  ScalDFX         ....  0.000000
   Scaling of DF-GGA-C  ScalDFC         ....  1.000000
   Scaling of DF-LDA-C  ScalLDAC        ....  1.000000
   Perturbative correction              ....  0.000000
   Density functional embedding theory  .... OFF
 Long-range corrected/Screened/Range-Separated Hybrid DFT is turned on
   Amount of maximum screened exact exchange              ....  0.804272
   Range separation parameter mu (erf(mu*r12)/r12)        ....  0.250000


General Settings:
 Integral files         IntName         .... 9_geo_opt
 Hartree-Fock type      HFTyp           .... RHF
 Total Charge           Charge          ....    0
 Multiplicity           Mult            ....    1
 Number of Electrons    NEL             ....   18
 Basis Dimension        Dim             ....   86
 Nuclear Repulsion      ENuc            ....     40.4395444709 Eh

Convergence Acceleration:
 DIIS                   CNVDIIS         .... on
   Start iteration      DIISMaxIt       ....    12
   Startup error        DIISStart       ....  0.200000
   # of expansion vecs  DIISMaxEq       ....     5
   Bias factor          DIISBfac        ....   1.050
   Max. coefficient     DIISMaxC        ....  10.000
 Newton-Raphson         CNVNR           .... off
 SOSCF                  CNVSOSCF        .... on
   Start iteration      SOSCFMaxIt      ....   150
   Startup grad/error   SOSCFStart      ....  0.003300
 Level Shifting         CNVShift        .... on
   Level shift para.    LevelShift      ....    0.2500
   Turn off err/grad.   ShiftErr        ....    0.0010
 Zerner damping         CNVZerner       .... off
 Static damping         CNVDamp         .... on
   Fraction old density DampFac         ....    0.7000
   Max. Damping (<1)    DampMax         ....    0.9800
   Min. Damping (>=0)   DampMin         ....    0.0000
   Turn off err/grad.   DampErr         ....    0.1000
 Fernandez-Rico         CNVRico         .... off

SCF Procedure:
 Maximum # iterations   MaxIter         ....   125
 SCF integral mode      SCFMode         .... Direct
   Integral package                     .... LIBINT
 Reset frequency        DirectResetFreq ....    20
 Integral Threshold     Thresh          ....  2.500e-11 Eh
 Primitive CutOff       TCut            ....  2.500e-12 Eh

Convergence Tolerance:
 Convergence Check Mode ConvCheckMode   .... Total+1el-Energy
 Convergence forced     ConvForced      .... 0
 Energy Change          TolE            ....  1.000e-08 Eh
 1-El. energy change                    ....  1.000e-05 Eh
 Orbital Gradient       TolG            ....  1.000e-05
 Orbital Rotation angle TolX            ....  1.000e-05
 DIIS Error             TolErr          ....  5.000e-07


Diagonalization of the overlap matrix:
Smallest eigenvalue                        ... 1.650e-03
Time for diagonalization                   ...    0.003 sec
Threshold for overlap eigenvalues          ... 1.000e-08
Number of eigenvalues below threshold      ... 0
Time for construction of square roots      ...    0.004 sec
Total time needed                          ...    0.007 sec

---------------------
INITIAL GUESS: MOREAD
---------------------
Guess MOs are being read from file: 9_geo_opt.gbw
Input Geometry matches current geometry (good)
Input basis set matches current basis set (good)
MOs were renormalized
MOs were reorthogonalized (Cholesky)
                      ------------------
                      INITIAL GUESS DONE (   0.0 sec)
                      ------------------
-------------------
DFT GRID GENERATION
-------------------

General Integration Accuracy     IntAcc      ...  5.010
Radial Grid Type                 RadialGrid  ... Gauss-Chebyshev
Angular Grid (max. acc.)         AngularGrid ... Lebedev-434
Angular grid pruning method      GridPruning ... 3 (G Style)
Weight generation scheme         WeightScheme... Becke
Basis function cutoff            BFCut       ...    1.0000e-11
Integration weight cutoff        WCut        ...    1.0000e-14
Grids for H and He will be reduced by one unit

# of grid points (after initial pruning)     ...  48308 (   0.0 sec)
# of grid points (after weights+screening)   ...  46675 (   0.0 sec)
nearest neighbour list constructed           ...    0.0 sec
Grid point re-assignment to atoms done       ...    0.0 sec
Grid point division into batches done        ...    0.3 sec
Reduced shell lists constructed in    0.3 sec

Total number of grid points                  ...    46675
Total number of batches                      ...      733
Average number of points per batch           ...       63
Average number of grid points per atom       ...     7779
Average number of shells per batch           ...    33.14 (87.20%)
Average number of basis functions per batch  ...    76.84 (89.35%)
Average number of large shells per batch     ...    30.61 (92.38%)
Average number of large basis fcns per batch ...    72.36 (94.17%)
Maximum spatial batch extension              ...  15.77, 14.99, 16.58 au
Average spatial batch extension              ...   0.40,  0.42,  0.42 au

Time for grid setup =    0.401 sec

--------------
SCF ITERATIONS
--------------
ITER       Energy         Delta-E        Max-DP      RMS-DP      [F,P]     Damp
               ***  Starting incremental Fock matrix formation  ***
                      *** Initiating the SOSCF procedure ***
                      *** Re-Reading the Fockian *** 
                      *** Removing any level shift *** 
ITER      Energy       Delta-E        Grad      Rot      Max-DP    RMS-DP
  0   -115.73770021 -115.7377002131  0.000031  0.000031  0.000066  0.000003
               *** Restarting incremental Fock matrix formation ***
  1   -115.73770026  -0.0000000436  0.000014  0.000020  0.000027  0.000001
  2   -115.73770026  -0.0000000059  0.000010  0.000012  0.000014  0.000001
  3   -115.73770026  -0.0000000009  0.000004  0.000003  0.000008  0.000000
                  ***Gradient check signals convergence***
              ***Rediagonalizing the Fockian in SOSCF/NRSCF***

               *****************************************************
               *                     SUCCESS                       *
               *           SCF CONVERGED AFTER   4 CYCLES          *
               *****************************************************

Setting up the final grid:

General Integration Accuracy     IntAcc      ...  5.340
Radial Grid Type                 RadialGrid  ... Gauss-Chebyshev
Angular Grid (max. acc.)         AngularGrid ... Lebedev-590
Angular grid pruning method      GridPruning ... 3 (G Style)
Weight generation scheme         WeightScheme... Becke
Basis function cutoff            BFCut       ...    1.0000e-11
Integration weight cutoff        WCut        ...    1.0000e-14
Grids for H and He will be reduced by one unit

# of grid points (after initial pruning)     ...  77324 (   0.0 sec)
# of grid points (after weights+screening)   ...  74513 (   0.0 sec)
nearest neighbour list constructed           ...    0.0 sec
Grid point re-assignment to atoms done       ...    0.0 sec
Grid point division into batches done        ...    0.8 sec
Reduced shell lists constructed in    0.8 sec

Total number of grid points                  ...    74513
Total number of batches                      ...     1167
Average number of points per batch           ...       63
Average number of grid points per atom       ...    12419
Average number of shells per batch           ...    32.90 (86.59%)
Average number of basis functions per batch  ...    76.33 (88.76%)
Average number of large shells per batch     ...    30.35 (92.25%)
Average number of large basis fcns per batch ...    71.62 (93.83%)
Maximum spatial batch extension              ...  13.18, 15.65, 15.48 au
Average spatial batch extension              ...   0.34,  0.37,  0.37 au

Final grid set up in    0.9 sec
Final integration                            ... done (   0.2 sec)
Change in XC energy                          ...    -0.000107682
Integrated number of electrons               ...    18.000000744
Previous integrated no of electrons          ...    18.000002269

----------------
TOTAL SCF ENERGY
----------------

Total Energy       :         -115.73780795 Eh           -3149.38587 eV

Components:
Nuclear Repulsion  :           40.43954447 Eh            1100.41595 eV
Electronic Energy  :         -156.17735242 Eh           -4249.80182 eV
One Electron Energy:         -237.29764911 Eh           -6457.19731 eV
Two Electron Energy:           81.12029669 Eh            2207.39549 eV

Virial components:
Potential Energy   :         -230.98837957 Eh           -6285.51336 eV
Kinetic Energy     :          115.25057163 Eh            3136.12749 eV
Virial Ratio       :            2.00422763


DFT components:
N(Alpha)           :        9.000000372167 electrons
N(Beta)            :        9.000000372167 electrons
N(Total)           :       18.000000744334 electrons
E(XC)              :      -10.655641308820 Eh       
DFET-embed. en.    :        0.000000000000 Eh       

---------------
SCF CONVERGENCE
---------------

  Last Energy change         ...   -3.2290e-10  Tolerance :   1.0000e-08
  Last MAX-Density change    ...    1.1882e-06  Tolerance :   1.0000e-07
  Last RMS-Density change    ...    6.2566e-08  Tolerance :   5.0000e-09
  Last Orbital Gradient      ...    4.5668e-07  Tolerance :   1.0000e-05
  Last Orbital Rotation      ...    5.2862e-07  Tolerance :   1.0000e-05

             **** THE GBW FILE WAS UPDATED (9_geo_opt.gbw) ****
             **** DENSITY FILE WAS UPDATED (9_geo_opt.scfp.tmp) ****
             **** ENERGY FILE WAS UPDATED (9_geo_opt.en.tmp) ****
----------------
ORBITAL ENERGIES
----------------

  NO   OCC          E(Eh)            E(eV) 
   0   2.0000     -19.228176      -523.2253 
   1   2.0000     -10.315094      -280.6880 
   2   2.0000      -1.136911       -30.9369 
   3   2.0000      -0.795385       -21.6435 
   4   2.0000      -0.611587       -16.6421 
   5   2.0000      -0.541901       -14.7459 
   6   2.0000      -0.526352       -14.3228 
   7   2.0000      -0.433652       -11.8003 
   8   2.0000      -0.373706       -10.1691 
   9   0.0000       0.116693         3.1754 
  10   0.0000       0.156577         4.2607 
  11   0.0000       0.202639         5.5141 
  12   0.0000       0.205174         5.5831 
  13   0.0000       0.226326         6.1586 
  14   0.0000       0.304418         8.2836 
  15   0.0000       0.313562         8.5324 
  16   0.0000       0.404552        11.0084 
  17   0.0000       0.452688        12.3183 
  18   0.0000       0.484795        13.1919 
  19   0.0000       0.535936        14.5836 
  20   0.0000       0.543715        14.7952 
  21   0.0000       0.567462        15.4414 
  22   0.0000       0.598674        16.2907 
  23   0.0000       0.603829        16.4310 
  24   0.0000       0.671247        18.2656 
  25   0.0000       0.778628        21.1875 
  26   0.0000       0.831972        22.6391 
  27   0.0000       0.861415        23.4403 
  28   0.0000       0.989758        26.9327 
  29   0.0000       1.013917        27.5901 
  30   0.0000       1.109791        30.1989 
  31   0.0000       1.382548        37.6211 
  32   0.0000       1.513320        41.1795 
  33   0.0000       1.553735        42.2793 
  34   0.0000       1.602530        43.6071 
  35   0.0000       1.612923        43.8899 
  36   0.0000       1.624921        44.2164 
  37   0.0000       1.660221        45.1769 
  38   0.0000       1.687732        45.9255 
  39   0.0000       1.775070        48.3021 
  40   0.0000       1.952041        53.1177 
  41   0.0000       2.030449        55.2513 
  42   0.0000       2.055633        55.9366 
  43   0.0000       2.093439        56.9654 
  44   0.0000       2.114508        57.5387 
  45   0.0000       2.268439        61.7274 
  46   0.0000       2.333451        63.4964 
  47   0.0000       2.346111        63.8409 
  48   0.0000       2.381304        64.7986 
  49   0.0000       2.428895        66.0936 
  50   0.0000       2.498993        68.0011 
  51   0.0000       2.595390        70.6242 
  52   0.0000       2.640771        71.8590 
  53   0.0000       2.707159        73.6656 
  54   0.0000       2.842766        77.3556 
  55   0.0000       2.871061        78.1255 
  56   0.0000       2.888067        78.5883 
  57   0.0000       2.992289        81.4243 
  58   0.0000       3.096028        84.2472 
  59   0.0000       3.173487        86.3550 
  60   0.0000       3.297859        89.7393 
  61   0.0000       3.406842        92.7049 
  62   0.0000       3.442373        93.6717 
  63   0.0000       3.489119        94.9438 
  64   0.0000       3.612056        98.2890 
  65   0.0000       3.645213        99.1913 
  66   0.0000       3.667829        99.8067 
  67   0.0000       4.005670       108.9998 
  68   0.0000       4.222678       114.9049 
  69   0.0000       4.275181       116.3336 
  70   0.0000       4.454797       121.2212 
  71   0.0000       4.564168       124.1973 
  72   0.0000       5.346133       145.4757 
  73   0.0000       5.425551       147.6367 
  74   0.0000       5.554240       151.1386 
  75   0.0000       5.826523       158.5478 
  76   0.0000       5.834326       158.7601 
  77   0.0000       5.986026       162.8881 
  78   0.0000       6.379550       173.5964 
  79   0.0000       6.530650       177.7080 
  80   0.0000       6.744927       183.5388 
  81   0.0000       6.803976       185.1456 
  82   0.0000       7.039277       191.5485 
  83   0.0000       7.215763       196.3509 
  84   0.0000      22.406773       609.7193 
  85   0.0000      43.664076      1188.1599 

                    ********************************
                    * MULLIKEN POPULATION ANALYSIS *
                    ********************************

-----------------------
MULLIKEN ATOMIC CHARGES
-----------------------
   0 C :   -0.151022
   1 O :   -0.477496
   2 H :    0.313097
   3 H :    0.098747
   4 H :    0.118125
   5 H :    0.098550
Sum of atomic charges:   -0.0000000

--------------------------------
MULLIKEN REDUCED ORBITAL CHARGES
--------------------------------
  0 C s       :     3.222882  s :     3.222882
      pz      :     1.046883  p :     2.826419
      px      :     0.702224
      py      :     1.077312
      dz2     :     0.011055  d :     0.094299
      dxz     :     0.032559
      dyz     :     0.002688
      dx2y2   :     0.012661
      dxy     :     0.035335
      f0      :     0.001356  f :     0.007422
      f+1     :     0.000958
      f-1     :     0.000175
      f+2     :     0.001460
      f-2     :     0.000126
      f+3     :     0.001363
      f-3     :     0.001983
  1 O s       :     3.792765  s :     3.792765
      pz      :     1.759479  p :     4.652463
      px      :     1.313614
      py      :     1.579371
      dz2     :     0.003136  d :     0.030582
      dxz     :     0.006475
      dyz     :     0.005835
      dx2y2   :     0.008941
      dxy     :     0.006195
      f0      :     0.000269  f :     0.001685
      f+1     :     0.000233
      f-1     :     0.000087
      f+2     :     0.000287
      f-2     :     0.000235
      f+3     :     0.000367
      f-3     :     0.000206
  2 H s       :     0.639210  s :     0.639210
      pz      :     0.017007  p :     0.047693
      px      :     0.012718
      py      :     0.017968
  3 H s       :     0.881884  s :     0.881884
      pz      :     0.012074  p :     0.019369
      px      :     0.003007
      py      :     0.004289
  4 H s       :     0.861651  s :     0.861651
      pz      :     0.006308  p :     0.020224
      px      :     0.004212
      py      :     0.009703
  5 H s       :     0.882077  s :     0.882077
      pz      :     0.004944  p :     0.019373
      px      :     0.004995
      py      :     0.009435


                     *******************************
                     * LOEWDIN POPULATION ANALYSIS *
                     *******************************

----------------------
LOEWDIN ATOMIC CHARGES
----------------------
   0 C :   -0.385535
   1 O :   -0.075809
   2 H :    0.165860
   3 H :    0.093414
   4 H :    0.108672
   5 H :    0.093397

-------------------------------
LOEWDIN REDUCED ORBITAL CHARGES
-------------------------------
  0 C s       :     2.862751  s :     2.862751
      pz      :     1.096302  p :     3.052532
      px      :     0.846107
      py      :     1.110123
      dz2     :     0.072303  d :     0.413219
      dxz     :     0.114303
      dyz     :     0.020803
      dx2y2   :     0.081922
      dxy     :     0.123888
      f0      :     0.007816  f :     0.057032
      f+1     :     0.007164
      f-1     :     0.000854
      f+2     :     0.012513
      f-2     :     0.004881
      f+3     :     0.011737
      f-3     :     0.012067
  1 O s       :     3.366132  s :     3.366132
      pz      :     1.699023  p :     4.633439
      px      :     1.381234
      py      :     1.553182
      dz2     :     0.006127  d :     0.071591
      dxz     :     0.017866
      dyz     :     0.008084
      dx2y2   :     0.019348
      dxy     :     0.020166
      f0      :     0.000484  f :     0.004647
      f+1     :     0.000622
      f-1     :     0.000072
      f+2     :     0.001051
      f-2     :     0.000560
      f+3     :     0.000891
      f-3     :     0.000968
  2 H s       :     0.675063  s :     0.675063
      pz      :     0.055747  p :     0.159077
      px      :     0.033896
      py      :     0.069434
  3 H s       :     0.846738  s :     0.846738
      pz      :     0.036189  p :     0.059848
      px      :     0.009714
      py      :     0.013945
  4 H s       :     0.831736  s :     0.831736
      pz      :     0.019238  p :     0.059592
      px      :     0.011651
      py      :     0.028703
  5 H s       :     0.846787  s :     0.846787
      pz      :     0.015626  p :     0.059816
      px      :     0.015237
      py      :     0.028953


                      *****************************
                      * MAYER POPULATION ANALYSIS *
                      *****************************

  NA   - Mulliken gross atomic population
  ZA   - Total nuclear charge
  QA   - Mulliken gross atomic charge
  VA   - Mayer's total valence
  BVA  - Mayer's bonded valence
  FA   - Mayer's free valence

  ATOM       NA         ZA         QA         VA         BVA        FA
  0 C      6.1510     6.0000    -0.1510     3.9351     3.9351     0.0000
  1 O      8.4775     8.0000    -0.4775     1.8884     1.8884    -0.0000
  2 H      0.6869     1.0000     0.3131     0.9135     0.9135    -0.0000
  3 H      0.9013     1.0000     0.0987     0.9597     0.9597    -0.0000
  4 H      0.8819     1.0000     0.1181     0.9597     0.9597    -0.0000
  5 H      0.9015     1.0000     0.0985     0.9595     0.9595    -0.0000

  Mayer bond orders larger than 0.1
B(  0-C ,  1-O ) :   0.9989 B(  0-C ,  3-H ) :   0.9755 B(  0-C ,  4-H ) :   0.9749 
B(  0-C ,  5-H ) :   0.9755 B(  1-O ,  2-H ) :   0.9001 

-------
TIMINGS
-------

Total SCF time: 0 days 0 hours 0 min 4 sec 

Total time                  ....       4.763 sec
Sum of individual times     ....       4.433 sec  ( 93.1%)

Fock matrix formation       ....       3.094 sec  ( 64.9%)
  XC integration            ....       0.921 sec  ( 29.8% of F)
    Basis function eval.    ....       0.204 sec  ( 22.2% of XC)
    Density eval.           ....       0.131 sec  ( 14.2% of XC)
    XC-Functional eval.     ....       0.326 sec  ( 35.5% of XC)
    XC-Potential eval.      ....       0.127 sec  ( 13.8% of XC)
Diagonalization             ....       0.008 sec  (  0.2%)
Density matrix formation    ....       0.001 sec  (  0.0%)
Population analysis         ....       0.011 sec  (  0.2%)
Initial guess               ....       0.004 sec  (  0.1%)
Orbital Transformation      ....       0.000 sec  (  0.0%)
Orbital Orthonormalization  ....       0.002 sec  (  0.0%)
DIIS solution               ....       0.000 sec  (  0.0%)
SOSCF solution              ....       0.013 sec  (  0.3%)
Grid generation             ....       1.301 sec  ( 27.3%)


-------------------------------------------------------------------------------
                          DFT DISPERSION CORRECTION                            
                                                                               
                              DFTD3 V3.1  Rev 1                                
                              USING zero damping                               
-------------------------------------------------------------------------------
The omegaB97X-D3 functional is recognized. Fit by Chai et al.
Active option DFTDOPT                   ...         3   

molecular C6(AA) [au] = 208.715565 


            DFT-D V3
 parameters
 s6 scaling factor         :     1.0000 
 rs6 scaling factor        :     1.2810 
 s8 scaling factor         :     1.0000 
 rs8 scaling factor        :     1.0940 
 Damping factor alpha6     :    14.0000 
 Damping factor alpha8     :    16.0000 
 ad hoc parameters k1-k3   :    16.0000     1.3333    -4.0000 

 Edisp/kcal,au: -0.150371426072  -0.000239632095 
 E6   /kcal   :  -0.029667769 
 E8   /kcal   :  -0.120703657 
 % E8         :  80.270341222 

-------------------------   ----------------
Dispersion correction           -0.000239632
-------------------------   ----------------


-------------------------   --------------------
FINAL SINGLE POINT ENERGY      -115.738047578099
-------------------------   --------------------

                                *** OPTIMIZATION RUN DONE ***

                            ***************************************
                            *     ORCA property calculations      *
                            ***************************************

                                    ---------------------
                                    Active property flags
                                    ---------------------
   (+) Dipole Moment


------------------------------------------------------------------------------
                       ORCA ELECTRIC PROPERTIES CALCULATION
------------------------------------------------------------------------------

Dipole Moment Calculation                       ... on
Quadrupole Moment Calculation                   ... off
Polarizability Calculation                      ... off
GBWName                                         ... 9_geo_opt.gbw
Electron density file                           ... 9_geo_opt.scfp.tmp
The origin for moment calculation is the CENTER OF MASS  = ( 7.033021, -2.140102  1.369459)

-------------
DIPOLE MOMENT
-------------
                                X             Y             Z
Electronic contribution:      1.75968      -0.02845       0.41669
Nuclear contribution   :     -2.06937       0.47615      -0.81368
                        -----------------------------------------
Total Dipole Moment    :     -0.30969       0.44770      -0.39699
                        -----------------------------------------
Magnitude (a.u.)       :      0.67375
Magnitude (Debye)      :      1.71255



--------------------
Rotational spectrum 
--------------------
 
Rotational constants in cm-1:     4.295971     0.833622     0.804982 
Rotational constants in MHz : 128789.981060 24991.350749 24132.754364 

 Dipole components along the rotational axes: 
x,y,z [a.u.] :    -0.332583     0.585927    -0.004764 
x,y,z [Debye]:    -0.845360     1.489307    -0.012109 

 
------------------------------------------------------------------------------
                      ORCA CHELPG CHARGES GENERATION
------------------------------------------------------------------------------

GBW file                           ... 9_geo_opt.gbw

Reading the GBW file               ... done

Grid spacing                       ...     0.300000
Point Cut-Off                      ...     2.800000
Van-der-Waals Radii                ...        COSMO
Total charge                       ...            0


Number of points X direction       ...           26
Number of points Y direction       ...           24
Number of points Z direction       ...           24
Maximum number of possible points  ...        14976
Final number of points             ...         5947


CHELPG Charges            
--------------------------------
  0   C   :       0.096414
  1   O   :      -0.607047
  2   H   :       0.403642
  3   H   :       0.013838
  4   H   :       0.080190
  5   H   :       0.012963
--------------------------------
Total charge:     0.000000
--------------------------------

CHELPG charges calculated...

Timings for individual parts in CHELPG calculation:
Grid generation                 ...        0.002 sec (=   0.000 min)
Potential calculation           ...        0.782 sec (=   0.013 min)
Fit to the potential            ...        0.001 sec (=   0.000 min)
------------------------------------------------------------------------------


Timings for individual modules:

Sum of individual times         ...       30.668 sec (=   0.511 min)
GTO integral calculation        ...        5.717 sec (=   0.095 min)  18.6 %
SCF iterations                  ...       17.141 sec (=   0.286 min)  55.9 %
SCF Gradient evaluation         ...        2.812 sec (=   0.047 min)   9.2 %
Geometry relaxation             ...        3.072 sec (=   0.051 min)  10.0 %
CHELPG charge generation        ...        1.926 sec (=   0.032 min)   6.3 %
                             ****ORCA TERMINATED NORMALLY****
TOTAL RUN TIME: 0 days 0 hours 0 minutes 35 seconds 441 msec
