LAMMPS data file via vdw_self_gen.py, on 2021-08-05 13:25:08.648298

5500 atoms
8 atom types
5000 bonds
7 bond types
8000 angles
11 angle types
9000 dihedrals
8 dihedral types

-39.3716419816876879  39.3716419816876879 xlo xhi
-39.3716419816876879  39.3716419816876879 ylo yhi
-39.3716419816876879  39.3716419816876879 zlo zhi

Masses

1  1.007940
2  1.007940
3  1.007940
4  1.007940
5  12.011000
6  12.011000
7  14.006740
8  15.999400

Atoms

1         0    7   -0.9730690000000000  -31.0084083319967974 -13.4239791981226908  23.4508523148117014 0 0 0
2         0    6    0.3875520000000000  -31.0870084866689602 -13.4234643795606132  21.9933628381267567 0 0 0
3         0    5    0.2468840000000000  -29.9243085659703674 -12.6626851744334470  21.3496143806889442 0 0 0
4         0    8   -0.6441380000000000  -30.0300442516594970 -12.7082715094480854  19.9300891278907493 0 0 0
5         0    3    0.3512850000000000  -31.8229415196921224 -13.9069051783386453  23.8295294157504145 0 0 0
6         0    3    0.3512850000000000  -31.0676871369984688 -12.4652383300708216  23.7945632803113831 0 0 0
7         0    1   -0.0517540000000000  -32.0373269736994501 -12.9818981903361124  21.6717604470569292 0 0 0
8         0    1   -0.0517540000000000  -31.0911240291816569 -14.4574140427701749  21.6301815918341376 0 0 0
9         0    2   -0.0094320000000000  -28.9582350335928318 -13.0900585330454202  21.6389111405883909 0 0 0
10        0    2   -0.0094320000000000  -29.9364297149944711 -11.6107098470179615  21.6527819562233610 0 0 0
11        0    4    0.4025730000000000  -29.8827562433178144 -13.6320628830442185  19.6628322836975435 0 0 0
12        1    7   -0.9730690000000000   23.3610955683183654  12.4641170691227199 -4.0936499377196762  0 0 0
13        1    6    0.3875520000000000   22.3301493889420293  13.3576951628085077 -4.6124196262272115  0 0 0
14        1    5    0.2468840000000000   20.9297232779412070  12.9713518844483762 -4.1280501805629966  0 0 0
15        1    8   -0.6441380000000000   19.9616180506379202  13.8822008525077170 -4.6393588141232787  0 0 0
16        1    3    0.3512850000000000   24.2655967311163465  12.7394397797879986 -4.4759498389608554  0 0 0
17        1    3    0.3512850000000000   23.1915606135989272  11.5169011166395787 -4.4325822245997237  0 0 0
18        1    1   -0.0517540000000000   22.3528451108821571  13.3560535713312536 -5.7083193632392408  0 0 0
19        1    1   -0.0517540000000000   22.5518644264444248  14.3853214875995103 -4.3029102723429533  0 0 0
20        1    2   -0.0094320000000000   20.8689240343085025  12.9789918874943453 -3.0344854795840583  0 0 0
21        1    2   -0.0094320000000000   20.6634708964906721  11.9684946184560861 -4.4774733681427357  0 0 0
22        1    4    0.4025730000000000   20.1276306782997558  14.7421198359920975 -4.2156966498933297  0 0 0
23        2    7   -0.9730690000000000   13.9136855362263745 -11.9382598310980601  12.2879525021136331 0 0 0
24        2    6    0.3875520000000000   12.9316168486851826 -12.9672333692169808  12.6153794020503174 0 0 0
25        2    5    0.2468840000000000   13.1918545922994017 -13.6035910515622973  13.9837336682835449 0 0 0
26        2    8   -0.6441380000000000   12.1981848030754758 -14.5828911040489597  14.2699186603486368 0 0 0
27        2    3    0.3512850000000000   13.7198869185351562 -11.5759086692750017  11.3545598225267153 0 0 0
28        2    3    0.3512850000000000   14.8419006542418739 -12.3585561624326150  12.2369334355385480 0 0 0
29        2    1   -0.0517540000000000   12.9348484006290434 -13.7445785193355654  11.8425675886965447 0 0 0
30        2    1   -0.0517540000000000   11.9279481352641863 -12.5273774544629752  12.6033233099903192 0 0 0
31        2    2   -0.0094320000000000   13.1792531081382052 -12.8537641429008396  14.7820064803873663 0 0 0
32        2    2   -0.0094320000000000   14.1668696146669344 -14.1014164439974845  13.9987395139575064 0 0 0
33        2    4    0.4025730000000000   11.3566386544263516 -14.1091105178574114  14.3875728822950659 0 0 0
34        3    7   -0.9730690000000000   13.3785188181604546  29.0538834470054219 -22.3239299560628375 0 0 0
35        3    6    0.3875520000000000   12.7670701820646482  30.3763774047784487 -22.2367857016888060 0 0 0
36        3    5    0.2468840000000000   13.5321932621848546  31.3085954873680237 -21.2930567682760454 0 0 0
37        3    8   -0.6441380000000000   12.9140390512224688  32.5911444883915422 -21.2575106863114023 0 0 0
38        3    3    0.3512850000000000   12.8110671404645959  28.4624016736093566 -22.9307462941919233 0 0 0
39        3    3    0.3512850000000000   13.3604096049359491  28.6100909088610180 -21.4054771831432156 0 0 0
40        3    1   -0.0517540000000000   11.7281174008347442  30.2848845033952507 -21.8995614564585317 0 0 0
41        3    1   -0.0517540000000000   12.7264701991230833  30.8235738253294507 -23.2364538787513339 0 0 0
42        3    2   -0.0094320000000000   14.5724306816622686  31.4341557953873050 -21.6120855962353353 0 0 0
43        3    2   -0.0094320000000000   13.5339020641904284  30.9092282174373878 -20.2736390647296254 0 0 0
44        3    4    0.4025730000000000   13.0384688613446951  32.9919345362092429 -22.1352321911312586 0 0 0
45        4    7   -0.9730690000000000  -29.0463946900873076 -4.6933126148775530  -22.2512193682300143 0 0 0
46        4    6    0.3875520000000000  -30.2712460386974413 -3.9453969552969514  -21.9851081810130076 0 0 0
47        4    5    0.2468840000000000  -31.4475646501893955 -4.8624483811475150  -21.6381796759819451 0 0 0
48        4    8   -0.6441380000000000  -32.6121683229046582 -4.0896870171959989  -21.3645955894895110 0 0 0
49        4    3    0.3512850000000000  -28.3073395547779079 -4.0418571522036553  -22.5148127105684317 0 0 0
50        4    3    0.3512850000000000  -29.1868578871002065 -5.2982712214885819  -23.0606206476780784 0 0 0
51        4    1   -0.0517540000000000  -30.5291195614697131 -3.3311131864097518  -22.8555510118380738 0 0 0
52        4    1   -0.0517540000000000  -30.0974432682880568 -3.2474978674478217  -21.1582472969597255 0 0 0
53        4    2   -0.0094320000000000  -31.2275557870898979 -5.4799325984523186  -20.7607128592662669 0 0 0
54        4    2   -0.0094320000000000  -31.6771614935722141 -5.5292825439991251  -22.4756324085959314 0 0 0
55        4    4    0.4025730000000000  -32.4434190335956458 -3.6020962168767898  -20.5397990273593258 0 0 0
56        5    7   -0.9730690000000000  -31.7105870181976570 -30.1297072444981211  31.7631568947133331 0 0 0
57        5    6    0.3875520000000000  -30.4356904374757633 -30.3779263978759637  31.0972141161204583 0 0 0
58        5    5    0.2468840000000000  -30.6142578108267429 -31.0560914894359534  29.7358640572583148 0 0 0
59        5    8   -0.6441380000000000  -29.3486259938880210 -31.2570974634564962  29.1145084466290847 0 0 0
60        5    3    0.3512850000000000  -31.5347855153663978 -29.7151804498793410  32.6782194778984092 0 0 0
61        5    3    0.3512850000000000  -32.1777762535953329 -31.0183495528033859  31.9444972454862075 0 0 0
62        5    1   -0.0517540000000000  -29.7967233675089034 -30.9989845165331559  31.7355885524412997 0 0 0
63        5    1   -0.0517540000000000  -29.9052693002225638 -29.4282355531242814  30.9641345235832723 0 0 0
64        5    2   -0.0094320000000000  -31.2364574467609657 -30.4518372094250864  29.0669970667199316 0 0 0
65        5    2   -0.0094320000000000  -31.0897244866285831 -32.0354629080162496  29.8519358250141202 0 0 0
66        5    4    0.4025730000000000  -28.9963726573015137 -30.3773975027244063  28.8941540819080025 0 0 0
67        6    7   -0.9730690000000000  -21.8856549883486444 -28.9893727386616362 -22.1208602739909708 0 0 0
68        6    6    0.3875520000000000  -21.4945633192767502 -30.3917723243189570 -22.2246703531294187 0 0 0
69        6    5    0.2468840000000000  -22.3661641402194746 -31.3032874123207137 -21.3560389961792367 0 0 0
70        6    8   -0.6441380000000000  -21.9638464326761138 -32.6611387716164998 -21.5066717972406956 0 0 0
71        6    3    0.3512850000000000  -21.2520826377225376 -28.4228821145429187 -22.6845557700770115 0 0 0
72        6    3    0.3512850000000000  -21.7622027546165349 -28.6726098100397735 -21.1589579662499752 0 0 0
73        6    1   -0.0517540000000000  -20.4429730956789513 -30.5074080653118429 -21.9377898880598075 0 0 0
74        6    1   -0.0517540000000000  -21.5636381852354404 -30.7108977243454611 -23.2707855969485280 0 0 0
75        6    2   -0.0094320000000000  -23.4238963726699403 -31.2231047350532336 -21.6288245082607631 0 0 0
76        6    2   -0.0094320000000000  -22.2657974078839906 -31.0395939223203463 -20.2981628914430949 0 0 0
77        6    4    0.4025730000000000  -22.1836594426519440 -32.9242026692410619 -22.4171607354008131 0 0 0
78        7    7   -0.9730690000000000  -5.0154737321184077   4.3834268813616504  -14.6462151376016294 0 0 0
79        7    6    0.3875520000000000  -4.7641871528792858   4.7619627683111503  -13.2591248516484566 0 0 0
80        7    5    0.2468840000000000  -3.7155299369936996   3.8660248764763812  -12.5937816931612314 0 0 0
81        7    8   -0.6441380000000000  -3.4867447311672484   4.2859980799961690  -11.2522937392756024 0 0 0
82        7    3    0.3512850000000000  -5.7464939961241335   4.9825924075812047  -15.0292141047060230 0 0 0
83        7    3    0.3512850000000000  -5.3880507324726210   3.4341813432161281  -14.6771108285289138 0 0 0
84        7    1   -0.0517540000000000  -5.6981594226356727   4.7210373706735114  -12.6868181721886568 0 0 0
85        7    1   -0.0517540000000000  -4.4281584069514146   5.8044363143622340  -13.2230270803346581 0 0 0
86        7    2   -0.0094320000000000  -2.7630540762626068   3.8969788095373730  -13.1336615516970241 0 0 0
87        7    2   -0.0094320000000000  -4.0579654064417481   2.8264819431478538  -12.5655322749264187 0 0 0
88        7    4    0.4025730000000000  -3.0570781613492146   5.1577749607324055  -11.2959078321195747 0 0 0
89        8    7   -0.9730690000000000   29.1155047051789637 -22.4917700754991330 -21.5995354003534672 0 0 0
90        8    6    0.3875520000000000   30.2191176857725381 -21.8056376978666826 -22.2641515101716152 0 0 0
91        8    5    0.2468840000000000   31.5001057584770514 -21.8184951426338429 -21.4251208643053062 0 0 0
92        8    8   -0.6441380000000000   32.5532118357438165 -21.1595346450086552 -22.1215752742226748 0 0 0
93        8    3    0.3512850000000000   28.2796126894409170 -22.4204238327918688 -22.1794254025753794 0 0 0
94        8    3    0.3512850000000000   28.8922590163636919 -22.0109553565894771 -20.7278623968107283 0 0 0
95        8    1   -0.0517540000000000   29.9351866517498095 -20.7701136756637581 -22.4845765349747495 0 0 0
96        8    1   -0.0517540000000000   30.4126609480898686 -22.2828133399332806 -23.2315262429561216 0 0 0
97        8    2   -0.0094320000000000   31.8203637924618405 -22.8415342990994894 -21.2004781504099498 0 0 0
98        8    2   -0.0094320000000000   31.3456966989211914 -21.2934345440626167 -20.4768704750329924 0 0 0
99        8    4    0.4025730000000000   32.7725505055727666 -21.7097661678315212 -22.8933565251673308 0 0 0
100       9    7   -0.9730690000000000   14.3837233292472124 -21.7065862942034222  5.4297678945739314  0 0 0
101       9    6    0.3875520000000000   13.0731745698351798 -22.0726065852819460  4.9016155304569269  0 0 0
102       9    5    0.2468840000000000   12.8981294827012718 -21.6512921522535962  3.4397942188759649  0 0 0
103       9    8   -0.6441380000000000   11.6167874188660178 -22.0483927385970695  2.9614807941510630  0 0 0
104       9    3    0.3512850000000000   14.4341792643148938 -21.9724372845835632  6.4130560580999303  0 0 0
105       9    3    0.3512850000000000   14.4868104997486338 -20.6917979328294663  5.4094486057583522  0 0 0
106       9    1   -0.0517540000000000   12.2850489894125410 -21.6165623768970576  5.5118579197434130  0 0 0
107       9    1   -0.0517540000000000   12.9379046592901261 -23.1567736251015646  4.9867820876838769  0 0 0
108       9    2   -0.0094320000000000   13.6625601112706079 -22.1039902291332595  2.7992093781291985  0 0 0
109       9    2   -0.0094320000000000   12.9703708819673409 -20.5633561309180664  3.3403659315896577  0 0 0
110       9    4    0.4025730000000000   11.6139980595343655 -23.0206834271813072  2.9275173363337332  0 0 0
111       10   7   -0.9730690000000000   31.8216597235660963 -23.0030584453094740  21.7578784576319180 0 0 0
112       10   6    0.3875520000000000   30.9251369236628868 -22.0048404753779145  22.3325623514026042 0 0 0
113       10   5    0.2468840000000000   29.9473712667292631 -21.4390141821874565  21.2986943196618483 0 0 0
114       10   8   -0.6441380000000000   29.0796145126669003 -20.4883438394759345  21.9082303791102575 0 0 0
115       10   3    0.3512850000000000   32.4753912754412255 -23.3176008240622679  22.4746603721997040 0 0 0
116       10   3    0.3512850000000000   32.3916641937083156 -22.5694976875165487  21.0312731796990455 0 0 0
117       10   1   -0.0517540000000000   31.5095864629987510 -21.1875411070903361  22.7706884779538754 0 0 0
118       10   1   -0.0517540000000000   30.3621160011810538 -22.4554883045053408  23.1577250240620209 0 0 0
119       10   2   -0.0094320000000000   29.3355247186866421 -22.2303021234692295  20.8524366939226340 0 0 0
120       10   2   -0.0094320000000000   30.4881481934443421 -20.9309848112553141  20.4936004963077778 0 0 0
121       10   4    0.4025730000000000   28.5100570156869537 -20.9778069767305020  22.5267290250286258 0 0 0
122       11   7   -0.9730690000000000   31.8948706602921455  13.7624970721728594 -13.9612705735351028 0 0 0
123       11   6    0.3875520000000000   30.7005418671528219  13.6842067681127464 -13.1258645727375551 0 0 0
124       11   5    0.2468840000000000   30.2251813606275768  12.2422232696619062 -12.9264049025494732 0 0 0
125       11   8   -0.6441380000000000   29.0740668380095109  12.2132100429948292 -12.0883096329075705 0 0 0
126       11   3    0.3512850000000000   32.1457289585286645  14.7418946005282550 -14.0951688881518606 0 0 0
127       11   3    0.3512850000000000   31.6836314930373817  13.3989726385789432 -14.8908206028491410 0 0 0
128       11   1   -0.0517540000000000   29.8943662490944710  14.2779787685450668 -13.5719920304789934 0 0 0
129       11   1   -0.0517540000000000   30.9104020750200696  14.1366870424147244 -12.1500624637413157 0 0 0
130       11   2   -0.0094320000000000   31.0041570977847769  11.6247097276320819 -12.4665000219163193 0 0 0
131       11   2   -0.0094320000000000   29.9528276806255782  11.7894680128570322 -13.8853343791143100 0 0 0
132       11   4    0.4025730000000000   29.3604960075994441  12.4908393226897338 -11.2009591982065402 0 0 0
133       12   7   -0.9730690000000000  -4.1659615544952207   14.1619526702128731  31.8901143853624021 0 0 0
134       12   6    0.3875520000000000  -3.8709364861240294   13.3693950718160135  30.7004646527704992 0 0 0
135       12   5    0.2468840000000000  -5.0825159618271600   12.5621438792674045  30.2256079720932895 0 0 0
136       12   8   -0.6441380000000000  -4.7551699168370583   11.8242875221654540  29.0522697192379731 0 0 0
137       12   3    0.3512850000000000  -3.3195183211943835   14.6471324921860120  32.1871203720854382 0 0 0
138       12   3    0.3512850000000000  -4.4155496581712868   13.5399918225905314  32.6593385003823826 0 0 0
139       12   1   -0.0517540000000000  -3.0343401019530352   12.6907419718342762  30.9030738432757630 0 0 0
140       12   1   -0.0517540000000000  -3.5381016366168736   14.0341944098314197  29.8953359273310113 0 0 0
141       12   2   -0.0094320000000000  -5.9329944029933674   13.2139975319915717  29.9988660274917684 0 0 0
142       12   2   -0.0094320000000000  -5.3955939927582541   11.8478324036460592  30.9940159711042007 0 0 0
143       12   4    0.4025730000000000  -4.6102137224254056   12.4710174906465703  28.3400629166377023 0 0 0
144       13   7   -0.9730690000000000  -22.3526850895968821 -22.1420790969785308 -32.1799389507635780 0 0 0
145       13   6    0.3875520000000000  -21.4910455531141800 -21.8486901868228465 -31.0389069264244029 0 0 0
146       13   5    0.2468840000000000  -22.2618341658148218 -21.8433746315981416 -29.7156817602475840 0 0 0
147       13   8   -0.6441380000000000  -21.3786693039498239 -21.5761384157701244 -28.6308247539020968 0 0 0
148       13   3    0.3512850000000000  -21.8011605261765595 -22.0944893111216203 -33.0364633410911992 0 0 0
149       13   3    0.3512850000000000  -23.0632485436253596 -21.4149443143322209 -32.2648497408024042 0 0 0
150       13   1   -0.0517540000000000  -21.0008910306982735 -20.8787457602883144 -31.1819816544158783 0 0 0
151       13   1   -0.0517540000000000  -20.6884598195135752 -22.5932797250438533 -30.9897945940363755 0 0 0
152       13   2   -0.0094320000000000  -22.7514858669954663 -22.8062335450504072 -29.5346221092580770 0 0 0
153       13   2   -0.0094320000000000  -23.0316043997146771 -21.0648247287706099 -29.7205218438201122 0 0 0
154       13   4    0.4025730000000000  -20.7833944777806927 -22.3416790612036529 -28.5526846130107224 0 0 0
155       14   7   -0.9730690000000000   14.5374654881968546  12.7967209663124830 -13.9131897562345834 0 0 0
156       14   6    0.3875520000000000   13.1143258730808885  13.0223848205278685 -13.6803737671181587 0 0 0
157       14   5    0.2468840000000000   12.8084261157149690  13.3333078155691211 -12.2124431111953236 0 0 0
158       14   8   -0.6441380000000000   11.4146969826963787  13.5683148725939713 -12.0375120407025129 0 0 0
159       14   3    0.3512850000000000   14.6818624295517601  12.5556394345667162 -14.8935505986688632 0 0 0
160       14   3    0.3512850000000000   14.8445998015092453  11.9843271086358971 -13.3779141354601308 0 0 0
161       14   1   -0.0517540000000000   12.5411884540994780  12.1430913627938768 -13.9963967699985385 0 0 0
162       14   1   -0.0517540000000000   12.7716449156782481  13.8531267518158074 -14.3075954714887761 0 0 0
163       14   2   -0.0094320000000000   13.3547115513799799  14.2184219397025728 -11.8692465451580453 0 0 0
164       14   2   -0.0094320000000000   13.0888089960049037  12.4901484386657273 -11.5727734337991013 0 0 0
165       14   4    0.4025730000000000   11.2049566582754760  14.3972037550041581 -12.5016916363641499 0 0 0
166       15   7   -0.9730690000000000   14.2838690903027921  4.7241005493780079   3.2518805303509724  0 0 0
167       15   6    0.3875520000000000   13.3490880283594304  3.9557744598952156   4.0681606357389111  0 0 0
168       15   5    0.2468840000000000   12.5594372503427287  4.8418417758705319   5.0358406145221428  0 0 0
169       15   8   -0.6441380000000000   11.6460691853210285  4.0541556817092976   5.7932173288219193  0 0 0
170       15   3    0.3512850000000000   14.8103712998027746  4.0856431205285277   2.6558556164937279  0 0 0
171       15   3    0.3512850000000000   14.9722828553858918  5.1735963105004306   3.8559296222111277  0 0 0
172       15   1   -0.0517540000000000   13.8912028035119768  3.1882702729523462   4.6325744181596393  0 0 0
173       15   1   -0.0517540000000000   12.6521379447136741  3.4199214660356407   3.4138735341711888  0 0 0
174       15   2   -0.0094320000000000   11.9924465749513267  5.6112809770289669   4.5009354241940915  0 0 0
175       15   2   -0.0094320000000000   13.2335382928432388  5.3418162253593628   5.7389216375614893  0 0 0
176       15   4    0.4025730000000000   10.9722439406533105  3.7244949161377363   5.1737063931708533  0 0 0
177       16   7   -0.9730690000000000  -21.0081327875219088 -20.6202195464416960  5.0151273270941381  0 0 0
178       16   6    0.3875520000000000  -22.1432315196213345 -21.4666683087512666  4.6608263460470951  0 0 0
179       16   5    0.2468840000000000  -21.7202638308488432 -22.6962604390099543  3.8519569446847002  0 0 0
180       16   8   -0.6441380000000000  -22.8546410732902636 -23.5024853669844234  3.5494677219947843  0 0 0
181       16   3    0.3512850000000000  -21.3468429062732596 -19.7989783854546317  5.5160430624788948  0 0 0
182       16   3    0.3512850000000000  -20.5693017742507891 -20.2669322540570747  4.1645682830348925  0 0 0
183       16   1   -0.0517540000000000  -22.8767673238284459 -20.8861244205897663  4.0895050335927490  0 0 0
184       16   1   -0.0517540000000000  -22.6535190365588051 -21.7901729725878539  5.5751134147152213  0 0 0
185       16   2   -0.0094320000000000  -20.9976776344852816 -23.3077720573957450  4.4029210109395249  0 0 0
186       16   2   -0.0094320000000000  -21.2607282918368696 -22.3957644374160800  2.9047300278315848  0 0 0
187       16   4    0.4025730000000000  -23.1733725984645176 -23.8731005882918446  4.3906365829824825  0 0 0
188       17   7   -0.9730690000000000   23.2909373726195206  13.2646010011700071 -21.0374927690102176 0 0 0
189       17   6    0.3875520000000000   22.0644075224149212  12.6832466132279205 -21.5742472996642078 0 0 0
190       17   5    0.2468840000000000   21.2940952092976836  13.6677461989320346 -22.4588080307666011 0 0 0
191       17   8   -0.6441380000000000   20.1197598228791854  13.0510538251990234 -22.9773994006184807 0 0 0
192       17   3    0.3512850000000000   23.7436711552055399  12.5850123514128871 -20.4265348717483555 0 0 0
193       17   3    0.3512850000000000   23.0579742560748997  14.0613375774897431 -20.4443871537239410 0 0 0
194       17   1   -0.0517540000000000   21.4210827024304038  12.3470343707618628 -20.7529017401048748 0 0 0
195       17   1   -0.0517540000000000   22.3118579370290995  11.7879653343112274 -22.1558048508391110 0 0 0
196       17   2   -0.0094320000000000   21.9052595393194345  14.0114631627179449 -23.3002208209088018 0 0 0
197       17   2   -0.0094320000000000   20.9846344940371914  14.5448950503232677 -21.8812670808647844 0 0 0
198       17   4    0.4025730000000000   20.4107987656724319  12.3583317806422706 -23.5954147587309642 0 0 0
199       18   7   -0.9730690000000000   11.5595051259029766  30.1001802710999193  4.2835640723305595  0 0 0
200       18   6    0.3875520000000000   13.0133462224783596  30.0686204317354147  4.4092775021930768  0 0 0
201       18   5    0.2468840000000000   13.6315396370809641  31.4684481360521069  4.3510754286094651  0 0 0
202       18   8   -0.6441380000000000   15.0457106118927086  31.3903408280452503  4.5005070013640562  0 0 0
203       18   3    0.3512850000000000   11.2025859149854270  29.1448461255255822  4.2884128018267811  0 0 0
204       18   3    0.3512850000000000   11.3054724138353784  30.4883420862389585  3.3749205541852221  0 0 0
205       18   1   -0.0517540000000000   13.4422902259317159  29.4447753198556867  3.6165995458418392  0 0 0
206       18   1   -0.0517540000000000   13.2849646575509492  29.5897341908396925  5.3568327013289743  0 0 0
207       18   2   -0.0094320000000000   13.2347360286376645  32.1136903146335797  5.1421810474782941  0 0 0
208       18   2   -0.0094320000000000   13.4223174124604068  31.9429948256671281  3.3868446000729362  0 0 0
209       18   4    0.4025730000000000   15.2202190154316526  31.0942977580791329  5.4106805001648759  0 0 0
210       19   7   -0.9730690000000000   20.5349615915343477 -3.9447003016665314   3.5070319622024706  0 0 0
211       19   6    0.3875520000000000   21.9019745526214429 -3.9359288231880893   4.0185517070659706  0 0 0
212       19   5    0.2468840000000000   22.1461189718088924 -5.0490202397619717   5.0415322454581579  0 0 0
213       19   8   -0.6441380000000000   23.4959059038693887 -5.0159170777913555   5.4946211012097086  0 0 0
214       19   3    0.3512850000000000   20.4139766510174709 -3.1635295363003464   2.8626616940294900  0 0 0
215       19   3    0.3512850000000000   19.8840358157277635 -3.7767634914872996   4.2744484845535409  0 0 0
216       19   1   -0.0517540000000000   22.1229184265040253 -2.9637948391864328   4.4742416739763922  0 0 0
217       19   1   -0.0517540000000000   22.6023183920354782 -4.0490340815480943   3.1832702164736593  0 0 0
218       19   2   -0.0094320000000000   21.9491492492089506 -6.0369850440657711   4.6116867537569215  0 0 0
219       19   2   -0.0094320000000000   21.4968018045307048 -4.9208896467759313   5.9137015856776278  0 0 0
220       19   4    0.4025730000000000   24.0563174181218642 -5.2643326736242555   4.7391483309921236  0 0 0
221       20   7   -0.9730690000000000  -4.7591883957812087   22.7033712941845103 -23.2483011809830913 0 0 0
222       20   6    0.3875520000000000  -3.9618352223496638   22.0353647448829548 -22.2243631990188995 0 0 0
223       20   5    0.2468840000000000  -4.8257379426144764   21.4675412637859715 -21.0946212969749141 0 0 0
224       20   8   -0.6441380000000000  -4.0091447715676987   20.8066737859697888 -20.1329873425698942 0 0 0
225       20   3    0.3512850000000000  -4.1362784595252906   23.0963099697755361 -23.9537517969289553 0 0 0
226       20   3    0.3512850000000000  -5.2477483489288526   23.4974270651416717 -22.8340309052089481 0 0 0
227       20   1   -0.0517540000000000  -3.2276255191147767   22.7351044434478169 -21.8086535766524072 0 0 0
228       20   1   -0.0517540000000000  -3.3859001032508353   21.2247289602224356 -22.6849474199996308 0 0 0
229       20   2   -0.0094320000000000  -5.5611989138861126   20.7508918668093862 -21.4756061712800523 0 0 0
230       20   2   -0.0094320000000000  -5.3655240956859727   22.2697497953336985 -20.5810047362369453 0 0 0
231       20   4    0.4025730000000000  -3.6407139826911785   20.0173155874265198 -20.5662111511265664 0 0 0
232       21   7   -0.9730690000000000  -21.8232258917038422  3.2533021331761778   31.8341655444310412 0 0 0
233       21   6    0.3875520000000000  -22.2735335962998136  4.3794263337741057   31.0220565123366931 0 0 0
234       21   5    0.2468840000000000  -21.3610149179788102  4.6281480310721594   29.8176830818723424 0 0 0
235       21   8   -0.6441380000000000  -21.8510415203215445  5.7186455855917107   29.0437327571852144 0 0 0
236       21   3    0.3512850000000000  -22.4391799720811349  3.1554301335302126   32.6410731014360849 0 0 0
237       21   3    0.3512850000000000  -20.8977257494060495  3.4560059775796073   32.2125778786259289 0 0 0
238       21   1   -0.0517540000000000  -22.3245556718293692  5.2853222676447302   31.6370876733402007 0 0 0
239       21   1   -0.0517540000000000  -23.2944084879416096  4.1887427411380722   30.6721655514435234 0 0 0
240       21   2   -0.0094320000000000  -21.3010209109185737  3.7449548811455884   29.1726952897865850 0 0 0
241       21   2   -0.0094320000000000  -20.3475276926977529  4.8796763765182938   30.1467525672841887 0 0 0
242       21   4    0.4025730000000000  -22.6912443658018148  5.4312412942254067   28.6462803300306170 0 0 0
243       22   7   -0.9730690000000000   14.4171262810556886  5.4012352139131394   30.6654635705295959 0 0 0
244       22   6    0.3875520000000000   13.4277228045717578  4.4586294046753787   30.1526001646282040 0 0 0
245       22   5    0.2468840000000000   12.4256644205433044  4.0269500633701023   31.2271233715849128 0 0 0
246       22   8   -0.6441380000000000   11.4682891224459027  3.1275951668843671   30.6767567653486317 0 0 0
247       22   3    0.3512850000000000   15.0811653134659114  5.6252222684192752   29.9245451365239710 0 0 0
248       22   3    0.3512850000000000   14.9621812887830643  4.9539310825336917   31.4028029152021659 0 0 0
249       22   1   -0.0517540000000000   13.9317069425740385  3.5748765386849533   29.7445623174916882 0 0 0
250       22   1   -0.0517540000000000   12.8891560938231784  4.9178285989105071   29.3159093857336117 0 0 0
251       22   2   -0.0094320000000000   11.8923297839195605  4.8875452107214441   31.6449377210665510 0 0 0
252       22   2   -0.0094320000000000   12.9367890205353913  3.5116385798983920   32.0468277749432815 0 0 0
253       22   4    0.4025730000000000   10.9305561944703715  3.6354436273848112   30.0447411647198344 0 0 0
254       23   7   -0.9730690000000000   31.1591743232562699  4.2592220609906635   29.0645670463617307 0 0 0
255       23   6    0.3875520000000000   30.6452914831050975  4.8398137099576086   30.3012123422117767 0 0 0
256       23   5    0.2468840000000000   30.4684714494725881  3.7926442862591214   31.4044979148434393 0 0 0
257       23   8   -0.6441380000000000   29.9882218444285158  4.4071314777052768   32.5961672905108841 0 0 0
258       23   3    0.3512850000000000   31.2206722613918686  4.9876176789829181   28.3534158737586495 0 0 0
259       23   3    0.3512850000000000   30.4913839049600099  3.5758253060788308   28.7069917546990219 0 0 0
260       23   1   -0.0517540000000000   29.6870367452372932  5.3363209734196175   30.1095292211933376 0 0 0
261       23   1   -0.0517540000000000   31.3313606567565515  5.6211361862868614   30.6473535537828781 0 0 0
262       23   2   -0.0094320000000000   31.4136780474672079  3.2880365360648693   31.6316414343445587 0 0 0
263       23   2   -0.0094320000000000   29.7402334118396325  3.0329414187628023   31.1024540368019267 0 0 0
264       23   4    0.4025730000000000   30.7007461598574061  4.9802061208874866   32.9284398192642556 0 0 0
265       24   7   -0.9730690000000000   21.8938621279892907 -30.3174762766785690  23.4963606833914476 0 0 0
266       24   6    0.3875520000000000   21.5256526443745280 -30.9102793675116061  22.2143856073174284 0 0 0
267       24   5    0.2468840000000000   22.3236121830546317 -30.3168037208120182  21.0498619225415702 0 0 0
268       24   8   -0.6441380000000000   21.9480400659309396 -30.9399768027032991  19.8255617194274159 0 0 0
269       24   3    0.3512850000000000   21.3085691824330716 -30.7167836714070006  24.2298890982448221 0 0 0
270       24   3    0.3512850000000000   21.6819538744654743 -29.3196088984991015  23.4825460442825680 0 0 0
271       24   1   -0.0517540000000000   20.4536014196902869 -30.7705123344061882  22.0335946442967838 0 0 0