
                                 *****************
                                 * O   R   C   A *
                                 *****************

           --- An Ab Initio, DFT and Semiempirical electronic structure package ---

                  #######################################################
                  #                        -***-                        #
                  #          Department of theory and spectroscopy      #
                  #               Directorship: Frank Neese             #
                  #        Max Planck Institute fuer Kohlenforschung    #
                  #                Kaiser Wilhelm Platz 1               #
                  #                 D-45470 Muelheim/Ruhr               #
                  #                      Germany                        #
                  #                                                     #
                  #                  All rights reserved                #
                  #                        -***-                        #
                  #######################################################


                         Program Version 4.1.2  - RELEASE  -


 With contributions from (in alphabetic order):
   Daniel Aravena         : Magnetic Properties
   Michael Atanasov       : Ab Initio Ligand Field Theory
   Alexander A. Auer      : GIAO ZORA
   Ute Becker             : Parallelization
   Giovanni Bistoni       : ED, Open-shell LED
   Martin Brehm           : Molecular dynamics
   Dmytro Bykov           : SCF Hessian
   Vijay G. Chilkuri      : MRCI spin determinant printing
   Dipayan Datta          : RHF DLPNO-CCSD density
   Achintya Kumar Dutta   : EOM-CC, STEOM-CC
   Dmitry Ganyushin       : Spin-Orbit,Spin-Spin,Magnetic field MRCI
   Miquel Garcia          : C-PCM Hessian
   Yang Guo               : DLPNO-NEVPT2, CIM, IAO-localization
   Andreas Hansen         : Spin unrestricted coupled pair/coupled cluster methods
   Benjamin Helmich-Paris : CASSCF linear response (MC-RPA)
   Lee Huntington         : MR-EOM, pCC
   Robert Izsak           : Overlap fitted RIJCOSX, COSX-SCS-MP3, EOM
   Christian Kollmar      : KDIIS, OOCD, Brueckner-CCSD(T), CCSD density
   Simone Kossmann        : Meta GGA functionals, TD-DFT gradient, OOMP2, MP2 Hessian
   Martin Krupicka        : AUTO-CI
   Lucas Lang             : DCDCAS
   Dagmar Lenk            : GEPOL surface, SMD
   Dimitrios Liakos       : Extrapolation schemes; parallel MDCI
   Dimitrios Manganas     : ROCIS; embedding schemes
   Dimitrios Pantazis     : SARC Basis sets
   Taras Petrenko         : DFT Hessian,TD-DFT gradient, ASA, ECA, R-Raman, ABS, FL, XAS/XES, NRVS
   Peter Pinski           : DLPNO-MP2, DLPNO-MP2 Gradient
   Christoph Reimann      : Effective Core Potentials
   Marius Retegan         : Local ZFS, SOC
   Christoph Riplinger    : Optimizer, TS searches, QM/MM, DLPNO-CCSD(T), (RO)-DLPNO pert. Triples
   Tobias Risthaus        : Range-separated hybrids, TD-DFT gradient, RPA, STAB
   Michael Roemelt        : Restricted open shell CIS
   Masaaki Saitow         : Open-shell DLPNO
   Barbara Sandhoefer     : DKH picture change effects
   Avijit Sen             : IP-ROCIS
   Kantharuban Sivalingam : CASSCF convergence, NEVPT2, FIC-MRCI
   Bernardo de Souza      : ESD, SOC TD-DFT
   Georgi Stoychev        : AutoAux, RI-MP2 NMR
   Willem Van den Heuvel  : Paramagnetic NMR
   Boris Wezisla          : Elementary symmetry handling
   Frank Wennmohs         : Technical directorship


 We gratefully acknowledge several colleagues who have allowed us to
 interface, adapt or use parts of their codes:
   Stefan Grimme, W. Hujo, H. Kruse,             : VdW corrections, initial TS optimization,
                  C. Bannwarth                     DFT functionals, gCP, sTDA/sTD-DF
   Ed Valeev                                     : LibInt (2-el integral package), F12 methods
   Garnet Chan, S. Sharma, J. Yang, R. Olivares  : DMRG
   Ulf Ekstrom                                   : XCFun DFT Library
   Mihaly Kallay                                 : mrcc  (arbitrary order and MRCC methods)
   Andreas Klamt, Michael Diedenhofen            : otool_cosmo (COSMO solvation model)
   Jiri Pittner, Ondrej Demel                    : Mk-CCSD
   Frank Weinhold                                : gennbo (NPA and NBO analysis)
   Christopher J. Cramer and Donald G. Truhlar   : smd solvation model
   Lars Goerigk                                  : TD-DFT with DH, B97 family of functionals
   V. Asgeirsson, H. Jonsson                     : NEB implementation
   FAccTs GmbH                                   : IRC, NEB, NEB-TS, Multilevel


 Your calculation uses the libint2 library for the computation of 2-el integrals
 For citations please refer to: http://libint.valeyev.net

 This ORCA versions uses:
   CBLAS   interface :  Fast vector & matrix operations
   LAPACKE interface :  Fast linear algebra routines
   SCALAPACK package :  Parallel linear algebra routines


Your calculation utilizes the atom-pairwise dispersion correction
with the zero-damping scheme (D30)
Cite in your paper:
S.Grimme, J.Antony, S.Ehrlich and H.Krieg, J.Chem.Phys., 132, (2010), 154104 
   

XCFun DFT library Copyright 2009-2010 Ulf Ekstrom and contributors.
See http://admol.org/xcfun for more information. This is free soft-
ware; see the source code for copying conditions. There is ABSOLUTELY
NO WARRANTY; not even for MERCHANTABILITY or FITNESS FOR A PARTICULAR
PURPOSE. For details see the documentation. Scientific users of this 
library should cite U. Ekstrom, L. Visscher, R. Bast, A. J. Thorvald-
sen and K. Ruud; J.Chem.Theor.Comp. 2010, DOI: 10.1021/ct100117s
XCFun Version 0.99 
----- Orbital basis set information -----
Your calculation utilizes the basis: def2-TZVP
   F. Weigend and R. Ahlrichs, Phys. Chem. Chem. Phys. 7, 3297 (2005).

================================================================================
                                        WARNINGS
                       Please study these warnings very carefully!
================================================================================


INFO   : the flag for use of LIBINT has been found!

Your calculation utilizes the atom-pairwise dispersion correction
with the zero-damping scheme (D30)
Cite in your paper:
S.Grimme, J.Antony, S.Ehrlich and H.Krieg, J.Chem.Phys., 132, (2010), 154104 
   

XCFun DFT library Copyright 2009-2010 Ulf Ekstrom and contributors.
See http://admol.org/xcfun for more information. This is free soft-
ware; see the source code for copying conditions. There is ABSOLUTELY
NO WARRANTY; not even for MERCHANTABILITY or FITNESS FOR A PARTICULAR
PURPOSE. For details see the documentation. Scientific users of this 
library should cite U. Ekstrom, L. Visscher, R. Bast, A. J. Thorvald-
sen and K. Ruud; J.Chem.Theor.Comp. 2010, DOI: 10.1021/ct100117s
XCFun Version 0.99 
----- Orbital basis set information -----
Your calculation utilizes the basis: def2-TZVP
   F. Weigend and R. Ahlrichs, Phys. Chem. Chem. Phys. 7, 3297 (2005).

================================================================================
                                        WARNINGS
                       Please study these warnings very carefully!
================================================================================


WARNING: MOInp is set but Guess=PModel. MOInp will be ignored!
         To read the initial guess from a file you must also specify
         'MORead' in the simple input or 'Guess MORead' in the %scf block


INFO   : the flag for use of LIBINT has been found!

Your calculation utilizes the atom-pairwise dispersion correction
with the zero-damping scheme (D30)
Cite in your paper:
S.Grimme, J.Antony, S.Ehrlich and H.Krieg, J.Chem.Phys., 132, (2010), 154104 
   

XCFun DFT library Copyright 2009-2010 Ulf Ekstrom and contributors.
See http://admol.org/xcfun for more information. This is free soft-
ware; see the source code for copying conditions. There is ABSOLUTELY
NO WARRANTY; not even for MERCHANTABILITY or FITNESS FOR A PARTICULAR
PURPOSE. For details see the documentation. Scientific users of this 
library should cite U. Ekstrom, L. Visscher, R. Bast, A. J. Thorvald-
sen and K. Ruud; J.Chem.Theor.Comp. 2010, DOI: 10.1021/ct100117s
XCFun Version 0.99 
----- Orbital basis set information -----
Your calculation utilizes the basis: def2-TZVP
   F. Weigend and R. Ahlrichs, Phys. Chem. Chem. Phys. 7, 3297 (2005).

================================================================================
                                        WARNINGS
                       Please study these warnings very carefully!
================================================================================


WARNING: MOInp is set but Guess=PModel. MOInp will be ignored!
         To read the initial guess from a file you must also specify
         'MORead' in the simple input or 'Guess MORead' in the %scf block


INFO   : the flag for use of LIBINT has been found!

================================================================================
                                       INPUT FILE
================================================================================
NAME = 6-149.in
|  1> #Run DFT-D3 single point of the dimer
|  2> ! wB97X-D3 def2-TZVP TIGHTSCF CHELPG PMODEL PAL8
|  3> 
|  4> %base "6-149_DFT_AB"
|  5> 
|  6> %scf
|  7> MaxIter 1000
|  8> end
|  9> 
| 10> * xyz 0 1
| 11>   C                      -1.657348            -2.605589            3.107495            
| 12>   O                      -1.433084            -3.963794            3.336402            
| 13>   H                      -1.822367            -4.471035            2.634541            
| 14>   H                      -1.025186            -1.978984            3.793105            
| 15>   H                      -1.370348            -2.277809            2.137469            
| 16>   H                      -2.655147            -2.318401            3.325334            
| 17>   C                      1.922953             -3.077625            2.484926            
| 18>   O                      1.345528             -3.086113            1.131528            
| 19>   H                      1.970459             -2.601192            0.562478            
| 20>   H                      2.975251             -2.827903            2.476688            
| 21>   H                      1.326520             -2.461149            3.132407            
| 22>   H                      1.791371             -4.136435            2.840835            
| 23> *
| 24> 
| 25> #Run DFT-D3 single point of the molecule with dimer basis set
| 26> $new_job
| 27> %base "6-149_DFT_A"
| 28> ! wB97X-D3 def2-TZVP TIGHTSCF CHELPG PMODEL
| 29> 
| 30> %scf
| 31> MaxIter 1000
| 32> end
| 33> 
| 34> * xyz 0 1
| 35>   C                      -1.657348            -2.605589            3.107495            
| 36>   O                      -1.433084            -3.963794            3.336402            
| 37>   H                      -1.822367            -4.471035            2.634541            
| 38>   H                      -1.025186            -1.978984            3.793105            
| 39>   H                      -1.370348            -2.277809            2.137469            
| 40>   H                      -2.655147            -2.318401            3.325334            
| 41>   C                    : 1.922953             -3.077625            2.484926            
| 42>   O                    : 1.345528             -3.086113            1.131528            
| 43>   H                    : 1.970459             -2.601192            0.562478            
| 44>   H                    : 2.975251             -2.827903            2.476688            
| 45>   H                    : 1.326520             -2.461149            3.132407            
| 46>   H                    : 1.791371             -4.136435            2.840835            
| 47> *
| 48> 
| 49> #Run DFT-D3 single point of the particle with dimer basis set
| 50> $new_job
| 51> %base "6-149_DFT_B"
| 52> ! wB97X-D3 def2-TZVP TIGHTSCF CHELPG PMODEL
| 53> 
| 54> %scf
| 55> MaxIter 1000
| 56> end
| 57> 
| 58> * xyz 0 1
| 59>   C                    : -1.657348            -2.605589            3.107495            
| 60>   O                    : -1.433084            -3.963794            3.336402            
| 61>   H                    : -1.822367            -4.471035            2.634541            
| 62>   H                    : -1.025186            -1.978984            3.793105            
| 63>   H                    : -1.370348            -2.277809            2.137469            
| 64>   H                    : -2.655147            -2.318401            3.325334            
| 65>   C                      1.922953             -3.077625            2.484926            
| 66>   O                      1.345528             -3.086113            1.131528            
| 67>   H                      1.970459             -2.601192            0.562478            
| 68>   H                      2.975251             -2.827903            2.476688            
| 69>   H                      1.326520             -2.461149            3.132407            
| 70>   H                      1.791371             -4.136435            2.840835            
| 71> *
| 72> 
| 73>                          ****END OF INPUT****
================================================================================


                 $$$$$$$$$$$$$$$$$$$$$$$$$$$$$$$$$$$$$$$$$$$$$$ 
                 $ THERE ARE  3 JOBS TO BE PROCESSED THIS RUN $
                 $$$$$$$$$$$$$$$$$$$$$$$$$$$$$$$$$$$$$$$$$$$$$$ 




                 $$$$$$$$$$$$$$$$  JOB NUMBER  1 $$$$$$$$$$$$$$


                       ****************************
                       * Single Point Calculation *
                       ****************************

---------------------------------
CARTESIAN COORDINATES (ANGSTROEM)
---------------------------------
  C     -1.657348   -2.605589    3.107495
  O     -1.433084   -3.963794    3.336402
  H     -1.822367   -4.471035    2.634541
  H     -1.025186   -1.978984    3.793105
  H     -1.370348   -2.277809    2.137469
  H     -2.655147   -2.318401    3.325334
  C      1.922953   -3.077625    2.484926
  O      1.345528   -3.086113    1.131528
  H      1.970459   -2.601192    0.562478
  H      2.975251   -2.827903    2.476688
  H      1.326520   -2.461149    3.132407
  H      1.791371   -4.136435    2.840835

----------------------------
CARTESIAN COORDINATES (A.U.)
----------------------------
  NO LB      ZA    FRAG     MASS         X           Y           Z
   0 C     6.0000    0    12.011   -3.131934   -4.923850    5.872315
   1 O     8.0000    0    15.999   -2.708136   -7.490485    6.304886
   2 H     1.0000    0     1.008   -3.443775   -8.449032    4.978561
   3 H     1.0000    0     1.008   -1.937321   -3.739738    7.167930
   4 H     1.0000    0     1.008   -2.589582   -4.304435    4.039231
   5 H     1.0000    0     1.008   -5.017501   -4.381143    6.283971
   6 C     6.0000    0    12.011    3.633855   -5.815868    4.695830
   7 O     8.0000    0    15.999    2.542679   -5.831908    2.138278
   8 H     1.0000    0     1.008    3.723628   -4.915541    1.062929
   9 H     1.0000    0     1.008    5.622410   -5.343962    4.680262
  10 H     1.0000    0     1.008    2.506760   -4.650898    5.919391
  11 H     1.0000    0     1.008    3.385201   -7.816729    5.368400

--------------------------------
INTERNAL COORDINATES (ANGSTROEM)
--------------------------------
 C      0   0   0     0.000000000000     0.00000000     0.00000000
 O      1   0   0     1.395497609589     0.00000000     0.00000000
 H      2   1   0     0.949443810602   109.44027930     0.00000000
 H      1   2   3     1.123531794107   110.62726632   192.23092493
 H      1   2   3     1.063371604415   113.97061548   308.31506995
 H      1   2   3     1.060911693623   112.39125642    75.65679840
 C      5   1   2     3.406796659225    95.48016846   298.88519900
 O      7   5   1     1.471454322489    61.84898812   152.20274905
 H      8   7   5     0.974425488943   106.41486216   133.00792706
 H      7   5   1     1.081554447419   152.31963462   236.36325280
 H      7   5   1     1.074712346363    52.43182586   306.05007910
 H      7   5   1     1.124750485710    98.05880480    50.73499993

---------------------------
INTERNAL COORDINATES (A.U.)
---------------------------
 C      0   0   0     0.000000000000     0.00000000     0.00000000
 O      1   0   0     2.637108302666     0.00000000     0.00000000
 H      2   1   0     1.794188781585   109.44027930     0.00000000
 H      1   2   3     2.123167393615   110.62726632   192.23092493
 H      1   2   3     2.009481110933   113.97061548   308.31506995
 H      1   2   3     2.004832553222   112.39125642    75.65679840
 C      5   1   2     6.437912679893    95.48016846   298.88519900
 O      7   5   1     2.780645688080    61.84898812   152.20274905
 H      8   7   5     1.841397312015   106.41486216   133.00792706
 H      7   5   1     2.043841704547   152.31963462   236.36325280
 H      7   5   1     2.030912007371    52.43182586   306.05007910
 H      7   5   1     2.125470386987    98.05880480    50.73499993

---------------------
BASIS SET INFORMATION
---------------------
There are 3 groups of distinct atoms

 Group   1 Type C   : 11s6p2d1f contracted to 5s3p2d1f pattern {62111/411/11/1}
 Group   2 Type O   : 11s6p2d1f contracted to 5s3p2d1f pattern {62111/411/11/1}
 Group   3 Type H   : 5s1p contracted to 3s1p pattern {311/1}

Atom   0C    basis set group =>   1
Atom   1O    basis set group =>   2
Atom   2H    basis set group =>   3
Atom   3H    basis set group =>   3
Atom   4H    basis set group =>   3
Atom   5H    basis set group =>   3
Atom   6C    basis set group =>   1
Atom   7O    basis set group =>   2
Atom   8H    basis set group =>   3
Atom   9H    basis set group =>   3
Atom  10H    basis set group =>   3
Atom  11H    basis set group =>   3


           ************************************************************
           *        Program running with 8 parallel MPI-processes     *
           *              working on a common directory               *
           ************************************************************
------------------------------------------------------------------------------
                           ORCA GTO INTEGRAL CALCULATION
------------------------------------------------------------------------------

                         BASIS SET STATISTICS AND STARTUP INFO

 # of primitive gaussian shells          ...  128
 # of primitive gaussian functions       ...  248
 # of contracted shells                  ...   76
 # of contracted basis functions         ...  172
 Highest angular momentum                ...    3
 Maximum contraction depth               ...    6
 Integral package used                   ... LIBINT
 Integral threshhold            Thresh   ...  2.500e-11
 Primitive cut-off              TCut     ...  2.500e-12


------------------------------ INTEGRAL EVALUATION ----------------------------


 * One electron integrals 
 Pre-screening matrix                    ... done
 Shell pair data                         ... done (   0.001 sec)



           ************************************************************
           *        Program running with 8 parallel MPI-processes     *
           *              working on a common directory               *
           ************************************************************
-------------------------------------------------------------------------------
                                 ORCA SCF
-------------------------------------------------------------------------------

------------
SCF SETTINGS
------------
Hamiltonian:
 Density Functional     Method          .... DFT(GTOs)
 Exchange Functional    Exchange        .... WB97X-D3
 Correlation Functional Correlation     .... WB97X-D3
 Gradients option       PostSCFGGA      .... off
 Hybrid DFT is turned on
   Fraction HF Exchange ScalHFX         ....  0.195728
   Scaling of DF-GGA-X  ScalDFX         ....  0.000000
   Scaling of DF-GGA-C  ScalDFC         ....  1.000000
   Scaling of DF-LDA-C  ScalLDAC        ....  1.000000
   Perturbative correction              ....  0.000000
   Density functional embedding theory  .... OFF
 Long-range corrected/Screened/Range-Separated Hybrid DFT is turned on
   Amount of maximum screened exact exchange              ....  0.804272
   Range separation parameter mu (erf(mu*r12)/r12)        ....  0.250000


General Settings:
 Integral files         IntName         .... 6-149_DFT_AB
 Hartree-Fock type      HFTyp           .... RHF
 Total Charge           Charge          ....    0
 Multiplicity           Mult            ....    1
 Number of Electrons    NEL             ....   36
 Basis Dimension        Dim             ....  172
 Nuclear Repulsion      ENuc            ....    126.7045602008 Eh

Convergence Acceleration:
 DIIS                   CNVDIIS         .... on
   Start iteration      DIISMaxIt       ....    12
   Startup error        DIISStart       ....  0.200000
   # of expansion vecs  DIISMaxEq       ....     5
   Bias factor          DIISBfac        ....   1.050
   Max. coefficient     DIISMaxC        ....  10.000
 Newton-Raphson         CNVNR           .... off
 SOSCF                  CNVSOSCF        .... on
   Start iteration      SOSCFMaxIt      ....   150
   Startup grad/error   SOSCFStart      ....  0.003300
 Level Shifting         CNVShift        .... on
   Level shift para.    LevelShift      ....    0.2500
   Turn off err/grad.   ShiftErr        ....    0.0010
 Zerner damping         CNVZerner       .... off
 Static damping         CNVDamp         .... on
   Fraction old density DampFac         ....    0.7000
   Max. Damping (<1)    DampMax         ....    0.9800
   Min. Damping (>=0)   DampMin         ....    0.0000
   Turn off err/grad.   DampErr         ....    0.1000
 Fernandez-Rico         CNVRico         .... off

SCF Procedure:
 Maximum # iterations   MaxIter         ....  1000
 SCF integral mode      SCFMode         .... Direct
   Integral package                     .... LIBINT
 Reset frequency        DirectResetFreq ....    20
 Integral Threshold     Thresh          ....  2.500e-11 Eh
 Primitive CutOff       TCut            ....  2.500e-12 Eh

Convergence Tolerance:
 Convergence Check Mode ConvCheckMode   .... Total+1el-Energy
 Convergence forced     ConvForced      .... 0
 Energy Change          TolE            ....  1.000e-08 Eh
 1-El. energy change                    ....  1.000e-05 Eh
 Orbital Gradient       TolG            ....  1.000e-05
 Orbital Rotation angle TolX            ....  1.000e-05
 DIIS Error             TolErr          ....  5.000e-07


Diagonalization of the overlap matrix:
Smallest eigenvalue                        ... 1.198e-03
Time for diagonalization                   ...    0.033 sec
Threshold for overlap eigenvalues          ... 1.000e-08
Number of eigenvalues below threshold      ... 0
Time for construction of square roots      ...    0.004 sec
Total time needed                          ...    0.037 sec

-------------------
DFT GRID GENERATION
-------------------

General Integration Accuracy     IntAcc      ...  4.340
Radial Grid Type                 RadialGrid  ... Gauss-Chebyshev
Angular Grid (max. acc.)         AngularGrid ... Lebedev-110
Angular grid pruning method      GridPruning ... 3 (G Style)
Weight generation scheme         WeightScheme... Becke
Basis function cutoff            BFCut       ...    1.0000e-11
Integration weight cutoff        WCut        ...    1.0000e-14
Grids for H and He will be reduced by one unit

# of grid points (after initial pruning)     ...  13096 (   0.0 sec)
# of grid points (after weights+screening)   ...  12419 (   0.0 sec)
nearest neighbour list constructed           ...    0.0 sec
Grid point re-assignment to atoms done       ...    0.0 sec
Grid point division into batches done        ...    0.0 sec
Reduced shell lists constructed in    0.0 sec

Total number of grid points                  ...    12419
Total number of batches                      ...      200
Average number of points per batch           ...       62
Average number of grid points per atom       ...     1035
Average number of shells per batch           ...    55.38 (72.87%)
Average number of basis functions per batch  ...   123.77 (71.96%)
Average number of large shells per batch     ...    45.65 (82.43%)
Average number of large basis fcns per batch ...   101.50 (82.01%)
Maximum spatial batch extension              ...  12.83, 12.80, 16.32 au
Average spatial batch extension              ...   0.30,  0.29,  0.34 au

Time for grid setup =    0.037 sec

------------------------------
INITIAL GUESS: MODEL POTENTIAL
------------------------------
Loading Hartree-Fock densities                     ... done
Calculating cut-offs                               ... done
Setting up the integral package                    ... done
Initializing the effective Hamiltonian             ... done
Starting the Coulomb interaction                   ... done (   0.0 sec)
Reading the grid                                   ... done
Mapping shells                                     ... done
Starting the XC term evaluation                    ... done (   0.0 sec)
  promolecular density results
     # of electrons  =     35.990929582
     EX              =    -28.853696611
     EC              =     -1.152078498
     EX+EC           =    -30.005775109
Transforming the Hamiltonian                       ... done (   0.0 sec)
Diagonalizing the Hamiltonian                      ... done (   0.0 sec)
Back transforming the eigenvectors                 ... done (   0.0 sec)
Now organizing SCF variables                       ... done
                      ------------------
                      INITIAL GUESS DONE (   0.1 sec)
                      ------------------
--------------
SCF ITERATIONS
--------------
ITER       Energy         Delta-E        Max-DP      RMS-DP      [F,P]     Damp
               ***  Starting incremental Fock matrix formation  ***
  0   -231.2974150471   0.000000000000 0.03698850  0.00107749  0.2489793 0.7000
  1   -231.3705592306  -0.073144183515 0.02167595  0.00077123  0.1251704 0.7000
                               ***Turning on DIIS***
  2   -231.4042303653  -0.033671134749 0.03189792  0.00139131  0.0491492 0.0000
  3   -231.4591083609  -0.054877995553 0.01788863  0.00050927  0.0612521 0.0000
  4   -231.4680001563  -0.008891795448 0.00410424  0.00010026  0.0062421 0.0000
                      *** Initiating the SOSCF procedure ***
                           *** Shutting down DIIS ***
                      *** Re-Reading the Fockian *** 
                      *** Removing any level shift *** 
ITER      Energy       Delta-E        Grad      Rot      Max-DP    RMS-DP
  5   -231.46818852  -0.0001883619  0.000425  0.000425  0.000803  0.000034
               *** Restarting incremental Fock matrix formation ***
  6   -231.46820570  -0.0000171825  0.000166  0.000211  0.000475  0.000020
  7   -231.46820728  -0.0000015755  0.000053  0.000153  0.000252  0.000011
  8   -231.46820738  -0.0000001022  0.000054  0.000038  0.000065  0.000002
  9   -231.46820746  -0.0000000782  0.000006  0.000007  0.000013  0.000001
                  ***Gradient check signals convergence***
              ***Rediagonalizing the Fockian in SOSCF/NRSCF***

               *****************************************************
               *                     SUCCESS                       *
               *           SCF CONVERGED AFTER  10 CYCLES          *
               *****************************************************

Setting up the final grid:

General Integration Accuracy     IntAcc      ...  4.670
Radial Grid Type                 RadialGrid  ... Gauss-Chebyshev
Angular Grid (max. acc.)         AngularGrid ... Lebedev-302
Angular grid pruning method      GridPruning ... 3 (G Style)
Weight generation scheme         WeightScheme... Becke
Basis function cutoff            BFCut       ...    1.0000e-11
Integration weight cutoff        WCut        ...    1.0000e-14
Grids for H and He will be reduced by one unit

# of grid points (after initial pruning)     ...  52000 (   0.0 sec)
# of grid points (after weights+screening)   ...  48897 (   0.0 sec)
nearest neighbour list constructed           ...    0.0 sec
Grid point re-assignment to atoms done       ...    0.0 sec
Grid point division into batches done        ...    0.2 sec
Reduced shell lists constructed in    0.2 sec

Total number of grid points                  ...    48897
Total number of batches                      ...      770
Average number of points per batch           ...       63
Average number of grid points per atom       ...     4075
Average number of shells per batch           ...    53.95 (70.99%)
Average number of basis functions per batch  ...   120.09 (69.82%)
Average number of large shells per batch     ...    44.07 (81.69%)
Average number of large basis fcns per batch ...    98.32 (81.87%)
Maximum spatial batch extension              ...  15.44, 14.16, 14.28 au
Average spatial batch extension              ...   0.20,  0.20,  0.21 au

Final grid set up in    0.3 sec
Final integration                            ... done (   0.1 sec)
Change in XC energy                          ...     0.000560315
Integrated number of electrons               ...    36.000079674
Previous integrated no of electrons          ...    35.997770161

----------------
TOTAL SCF ENERGY
----------------

Total Energy       :         -231.46764714 Eh           -6298.55489 eV

Components:
Nuclear Repulsion  :          126.70456020 Eh            3447.80637 eV
Electronic Energy  :         -358.17220734 Eh           -9746.36126 eV
One Electron Energy:         -566.46893023 Eh          -15414.40324 eV
Two Electron Energy:          208.29672288 Eh            5668.04199 eV

Virial components:
Potential Energy   :         -461.94778917 Eh          -12570.23840 eV
Kinetic Energy     :          230.48014203 Eh            6271.68351 eV
Virial Ratio       :            2.00428456


DFT components:
N(Alpha)           :       18.000039837189 electrons
N(Beta)            :       18.000039837189 electrons
N(Total)           :       36.000079674379 electrons
E(XC)              :      -21.303390499416 Eh       
DFET-embed. en.    :        0.000000000000 Eh       

---------------
SCF CONVERGENCE
---------------

  Last Energy change         ...   -1.1880e-09  Tolerance :   1.0000e-08
  Last MAX-Density change    ...    4.2159e-06  Tolerance :   1.0000e-07
  Last RMS-Density change    ...    1.5984e-07  Tolerance :   5.0000e-09
  Last Orbital Gradient      ...    2.3546e-06  Tolerance :   1.0000e-05
  Last Orbital Rotation      ...    3.1639e-06  Tolerance :   1.0000e-05

             **** THE GBW FILE WAS UPDATED (6-149_DFT_AB.gbw) ****
             **** DENSITY FILE WAS UPDATED (6-149_DFT_AB.scfp.tmp) ****
             **** ENERGY FILE WAS UPDATED (6-149_DFT_AB.en.tmp) ****
----------------
ORBITAL ENERGIES
----------------

  NO   OCC          E(Eh)            E(eV) 
   0   2.0000     -19.227449      -523.2055 
   1   2.0000     -19.222962      -523.0834 
   2   2.0000     -10.311746      -280.5969 
   3   2.0000     -10.300416      -280.2886 
   4   2.0000      -1.136380       -30.9225 
   5   2.0000      -1.114361       -30.3233 
   6   2.0000      -0.793923       -21.6037 
   7   2.0000      -0.789204       -21.4753 
   8   2.0000      -0.610308       -16.6073 
   9   2.0000      -0.597199       -16.2506 
  10   2.0000      -0.548098       -14.9145 
  11   2.0000      -0.531867       -14.4728 
  12   2.0000      -0.519017       -14.1232 
  13   2.0000      -0.508688       -13.8421 
  14   2.0000      -0.438397       -11.9294 
  15   2.0000      -0.421120       -11.4592 
  16   2.0000      -0.369612       -10.0576 
  17   2.0000      -0.369543       -10.0558 
  18   0.0000       0.108440         2.9508 
  19   0.0000       0.134027         3.6471 
  20   0.0000       0.150720         4.1013 
  21   0.0000       0.163210         4.4412 
  22   0.0000       0.195427         5.3178 
  23   0.0000       0.204609         5.5677 
  24   0.0000       0.219236         5.9657 
  25   0.0000       0.233041         6.3414 
  26   0.0000       0.242464         6.5978 
  27   0.0000       0.257775         7.0144 
  28   0.0000       0.297934         8.1072 
  29   0.0000       0.314983         8.5711 
  30   0.0000       0.331174         9.0117 
  31   0.0000       0.378283        10.2936 
  32   0.0000       0.409045        11.1307 
  33   0.0000       0.445599        12.1254 
  34   0.0000       0.460446        12.5294 
  35   0.0000       0.479032        13.0351 
  36   0.0000       0.495046        13.4709 
  37   0.0000       0.503287        13.6951 
  38   0.0000       0.540660        14.7121 
  39   0.0000       0.548788        14.9333 
  40   0.0000       0.561892        15.2899 
  41   0.0000       0.574352        15.6289 
  42   0.0000       0.580692        15.8014 
  43   0.0000       0.593000        16.1363 
  44   0.0000       0.621736        16.9183 
  45   0.0000       0.635817        17.3015 
  46   0.0000       0.669795        18.2261 
  47   0.0000       0.676603        18.4113 
  48   0.0000       0.682839        18.5810 
  49   0.0000       0.745636        20.2898 
  50   0.0000       0.760945        20.7064 
  51   0.0000       0.787081        21.4176 
  52   0.0000       0.804168        21.8825 
  53   0.0000       0.856950        23.3188 
  54   0.0000       0.878779        23.9128 
  55   0.0000       0.935488        25.4559 
  56   0.0000       0.996297        27.1106 
  57   0.0000       1.000845        27.2344 
  58   0.0000       1.046712        28.4825 
  59   0.0000       1.090381        29.6708 
  60   0.0000       1.130267        30.7561 
  61   0.0000       1.150107        31.2960 
  62   0.0000       1.367978        37.2246 
  63   0.0000       1.426464        38.8161 
  64   0.0000       1.478590        40.2345 
  65   0.0000       1.538523        41.8653 
  66   0.0000       1.561832        42.4996 
  67   0.0000       1.571917        42.7740 
  68   0.0000       1.592255        43.3275 
  69   0.0000       1.620675        44.1008 
  70   0.0000       1.642522        44.6953 
  71   0.0000       1.663393        45.2632 
  72   0.0000       1.673963        45.5508 
  73   0.0000       1.681371        45.7524 
  74   0.0000       1.684528        45.8383 
  75   0.0000       1.693379        46.0792 
  76   0.0000       1.716811        46.7168 
  77   0.0000       1.732313        47.1386 
  78   0.0000       1.779713        48.4284 
  79   0.0000       1.842629        50.1405 
  80   0.0000       1.968206        53.5576 
  81   0.0000       1.975462        53.7551 
  82   0.0000       2.012527        54.7636 
  83   0.0000       2.039280        55.4916 
  84   0.0000       2.078378        56.5555 
  85   0.0000       2.083537        56.6959 
  86   0.0000       2.090593        56.8879 
  87   0.0000       2.108575        57.3772 
  88   0.0000       2.139794        58.2267 
  89   0.0000       2.174921        59.1826 
  90   0.0000       2.220187        60.4143 
  91   0.0000       2.284171        62.1554 
  92   0.0000       2.326611        63.3103 
  93   0.0000       2.351739        63.9941 
  94   0.0000       2.383429        64.8564 
  95   0.0000       2.403872        65.4127 
  96   0.0000       2.407169        65.5024 
  97   0.0000       2.427103        66.0448 
  98   0.0000       2.446666        66.5772 
  99   0.0000       2.491958        67.8096 
 100   0.0000       2.529491        68.8309 
 101   0.0000       2.560702        69.6803 
 102   0.0000       2.586742        70.3888 
 103   0.0000       2.613282        71.1110 
 104   0.0000       2.626730        71.4769 
 105   0.0000       2.690041        73.1997 
 106   0.0000       2.701794        73.5196 
 107   0.0000       2.722932        74.0947 
 108   0.0000       2.831317        77.0441 
 109   0.0000       2.843294        77.3700 
 110   0.0000       2.874212        78.2113 
 111   0.0000       2.905707        79.0683 
 112   0.0000       2.915679        79.3397 
 113   0.0000       2.933411        79.8222 
 114   0.0000       2.967453        80.7485 
 115   0.0000       3.032992        82.5319 
 116   0.0000       3.111454        84.6670 
 117   0.0000       3.133322        85.2620 
 118   0.0000       3.194008        86.9134 
 119   0.0000       3.214490        87.4707 
 120   0.0000       3.274592        89.1062 
 121   0.0000       3.299536        89.7849 
 122   0.0000       3.391932        92.2992 
 123   0.0000       3.408754        92.7569 
 124   0.0000       3.452455        93.9461 
 125   0.0000       3.481427        94.7344 
 126   0.0000       3.545470        96.4771 
 127   0.0000       3.548712        96.5654 
 128   0.0000       3.564367        96.9914 
 129   0.0000       3.620966        98.5315 
 130   0.0000       3.633782        98.8802 
 131   0.0000       3.645932        99.2108 
 132   0.0000       3.695830       100.5686 
 133   0.0000       3.702322       100.7453 
 134   0.0000       3.954554       107.6089 
 135   0.0000       4.037269       109.8597 
 136   0.0000       4.238056       115.3234 
 137   0.0000       4.267200       116.1164 
 138   0.0000       4.292024       116.7919 
 139   0.0000       4.327265       117.7509 
 140   0.0000       4.489623       122.1688 
 141   0.0000       4.504142       122.5639 
 142   0.0000       4.589277       124.8806 
 143   0.0000       4.610149       125.4485 
 144   0.0000       5.337375       145.2374 
 145   0.0000       5.361783       145.9015 
 146   0.0000       5.394611       146.7948 
 147   0.0000       5.438861       147.9989 
 148   0.0000       5.543308       150.8411 
 149   0.0000       5.579838       151.8351 
 150   0.0000       5.738130       156.1425 
 151   0.0000       5.745782       156.3507 
 152   0.0000       5.868132       159.6800 
 153   0.0000       5.874697       159.8586 
 154   0.0000       5.907862       160.7611 
 155   0.0000       6.018099       163.7608 
 156   0.0000       6.283284       170.9768 
 157   0.0000       6.412693       174.4982 
 158   0.0000       6.523460       177.5124 
 159   0.0000       6.538447       177.9202 
 160   0.0000       6.755526       183.8272 
 161   0.0000       6.777113       184.4146 
 162   0.0000       6.787401       184.6946 
 163   0.0000       6.827159       185.7765 
 164   0.0000       7.043626       191.6668 
 165   0.0000       7.052151       191.8988 
 166   0.0000       7.174301       195.2227 
 167   0.0000       7.238737       196.9761 
 168   0.0000      22.295079       606.6799 
 169   0.0000      22.545450       613.4929 
 170   0.0000      43.657199      1187.9728 
 171   0.0000      43.703658      1189.2370 

                    ********************************
                    * MULLIKEN POPULATION ANALYSIS *
                    ********************************

-----------------------
MULLIKEN ATOMIC CHARGES
-----------------------
   0 C :   -0.168962
   1 O :   -0.478182
   2 H :    0.317731
   3 H :    0.097519
   4 H :    0.126176
   5 H :    0.105826
   6 C :   -0.171178
   7 O :   -0.492021
   8 H :    0.310992
   9 H :    0.122151
  10 H :    0.103687
  11 H :    0.126259
Sum of atomic charges:    0.0000000

--------------------------------
MULLIKEN REDUCED ORBITAL CHARGES
--------------------------------
  0 C s       :     3.205586  s :     3.205586
      pz      :     1.075069  p :     2.855961
      px      :     1.071649
      py      :     0.709244
      dz2     :     0.008978  d :     0.099615
      dxz     :     0.002096
      dyz     :     0.036713
      dx2y2   :     0.013703
      dxy     :     0.038124
      f0      :     0.001051  f :     0.007800
      f+1     :     0.000386
      f-1     :     0.000870
      f+2     :     0.001390
      f-2     :     0.000248
      f+3     :     0.002350
      f-3     :     0.001505
  1 O s       :     3.786895  s :     3.786895
      pz      :     1.601955  p :     4.658875
      px      :     1.798506
      py      :     1.258414
      dz2     :     0.004730  d :     0.030667
      dxz     :     0.004765
      dyz     :     0.009530
      dx2y2   :     0.005327
      dxy     :     0.006314
      f0      :     0.000076  f :     0.001745
      f+1     :     0.000206
      f-1     :     0.000335
      f+2     :     0.000194
      f-2     :     0.000290
      f+3     :     0.000274
      f-3     :     0.000370
  2 H s       :     0.633606  s :     0.633606
      pz      :     0.017253  p :     0.048662
      px      :     0.017692
      py      :     0.013717
  3 H s       :     0.882503  s :     0.882503
      pz      :     0.007426  p :     0.019978
      px      :     0.006854
      py      :     0.005698
  4 H s       :     0.853073  s :     0.853073
      pz      :     0.011540  p :     0.020751
      px      :     0.005291
      py      :     0.003921
  5 H s       :     0.873110  s :     0.873110
      pz      :     0.005109  p :     0.021064
      px      :     0.011982
      py      :     0.003972
  6 C s       :     3.230926  s :     3.230926
      pz      :     0.746760  p :     2.842072
      px      :     1.001375
      py      :     1.093937
      dz2     :     0.019954  d :     0.091282
      dxz     :     0.021857
      dyz     :     0.035983
      dx2y2   :     0.009839
      dxy     :     0.003649
      f0      :     0.001698  f :     0.006898
      f+1     :     0.001456
      f-1     :     0.001536
      f+2     :     0.000595
      f-2     :     0.000965
      f+3     :     0.000256
      f-3     :     0.000393
  7 O s       :     3.810307  s :     3.810307
      pz      :     1.268653  p :     4.651762
      px      :     1.604288
      py      :     1.778821
      dz2     :     0.004424  d :     0.028475
      dxz     :     0.010971
      dyz     :     0.005249
      dx2y2   :     0.002803
      dxy     :     0.005028
      f0      :     0.000316  f :     0.001477
      f+1     :     0.000227
      f-1     :     0.000194
      f+2     :     0.000115
      f-2     :     0.000391
      f+3     :     0.000072
      f-3     :     0.000162
  8 H s       :     0.642653  s :     0.642653
      pz      :     0.013850  p :     0.046355
      px      :     0.015039
      py      :     0.017466
  9 H s       :     0.858802  s :     0.858802
      pz      :     0.002597  p :     0.019047
      px      :     0.011919
      py      :     0.004531
 10 H s       :     0.874603  s :     0.874603
      pz      :     0.007218  p :     0.021710
      px      :     0.007026
      py      :     0.007467
 11 H s       :     0.854519  s :     0.854519
      pz      :     0.003863  p :     0.019222
      px      :     0.003671
      py      :     0.011688


                     *******************************
                     * LOEWDIN POPULATION ANALYSIS *
                     *******************************

----------------------
LOEWDIN ATOMIC CHARGES
----------------------
   0 C :   -0.399392
   1 O :   -0.055271
   2 H :    0.165555
   3 H :    0.110114
   4 H :    0.092160
   5 H :    0.087171
   6 C :   -0.344923
   7 O :   -0.128370
   8 H :    0.169712
   9 H :    0.094738
  10 H :    0.092464
  11 H :    0.116043

-------------------------------
LOEWDIN REDUCED ORBITAL CHARGES
-------------------------------
  0 C s       :     2.846658  s :     2.846658
      pz      :     1.110798  p :     3.066437
      px      :     1.104116
      py      :     0.851523
      dz2     :     0.055423  d :     0.426769
      dxz     :     0.018140
      dyz     :     0.127753
      dx2y2   :     0.090696
      dxy     :     0.134758
      f0      :     0.006522  f :     0.059528
      f+1     :     0.002606
      f-1     :     0.007018
      f+2     :     0.010430
      f-2     :     0.005990
      f+3     :     0.016512
      f-3     :     0.010449
  1 O s       :     3.348486  s :     3.348486
      pz      :     1.580474  p :     4.628274
      px      :     1.716917
      py      :     1.330884
      dz2     :     0.008061  d :     0.073659
      dxz     :     0.005457
      dyz     :     0.026648
      dx2y2   :     0.014622
      dxy     :     0.018871
      f0      :     0.000318  f :     0.004852
      f+1     :     0.000398
      f-1     :     0.000989
      f+2     :     0.000592
      f-2     :     0.000777
      f+3     :     0.000902
      f-3     :     0.000875
  2 H s       :     0.671963  s :     0.671963
      pz      :     0.068562  p :     0.162482
      px      :     0.055061
      py      :     0.038859
  3 H s       :     0.835455  s :     0.835455
      pz      :     0.020641  p :     0.054431
      px      :     0.019364
      py      :     0.014426
  4 H s       :     0.841384  s :     0.841384
      pz      :     0.036017  p :     0.066456
      px      :     0.017352
      py      :     0.013087
  5 H s       :     0.847162  s :     0.847162
      pz      :     0.016797  p :     0.065667
      px      :     0.036468
      py      :     0.012402
  6 C s       :     2.879927  s :     2.879927
      pz      :     0.856724  p :     3.051289
      px      :     1.066951
      py      :     1.127614
      dz2     :     0.089482  d :     0.365826
      dxz     :     0.095006
      dyz     :     0.109377
      dx2y2   :     0.052464
      dxy     :     0.019496
      f0      :     0.011119  f :     0.047881
      f+1     :     0.012883
      f-1     :     0.008880
      f+2     :     0.004099
      f-2     :     0.007308
      f+3     :     0.001471
      f-3     :     0.002121
  7 O s       :     3.411638  s :     3.411638
      pz      :     1.317928  p :     4.650849
      px      :     1.611540
      py      :     1.721381
      dz2     :     0.014051  d :     0.062010
      dxz     :     0.023370
      dyz     :     0.015144
      dx2y2   :     0.002705
      dxy     :     0.006740
      f0      :     0.000972  f :     0.003873
      f+1     :     0.000682
      f-1     :     0.000558
      f+2     :     0.000350
      f-2     :     0.001017
      f+3     :     0.000071
      f-3     :     0.000224
  8 H s       :     0.676701  s :     0.676701
      pz      :     0.039993  p :     0.153587
      px      :     0.058510
      py      :     0.055084
  9 H s       :     0.842499  s :     0.842499
      pz      :     0.009856  p :     0.062763
      px      :     0.037248
      py      :     0.015658
 10 H s       :     0.843214  s :     0.843214
      pz      :     0.019947  p :     0.064322
      px      :     0.021270
      py      :     0.023104
 11 H s       :     0.828485  s :     0.828485
      pz      :     0.010311  p :     0.055472
      px      :     0.011105
      py      :     0.034055


                      *****************************
                      * MAYER POPULATION ANALYSIS *
                      *****************************

  NA   - Mulliken gross atomic population
  ZA   - Total nuclear charge
  QA   - Mulliken gross atomic charge
  VA   - Mayer's total valence
  BVA  - Mayer's bonded valence
  FA   - Mayer's free valence

  ATOM       NA         ZA         QA         VA         BVA        FA
  0 C      6.1690     6.0000    -0.1690     3.9214     3.9214    -0.0000
  1 O      8.4782     8.0000    -0.4782     1.8821     1.8821     0.0000
  2 H      0.6823     1.0000     0.3177     0.9123     0.9123     0.0000
  3 H      0.9025     1.0000     0.0975     0.9590     0.9590     0.0000
  4 H      0.8738     1.0000     0.1262     0.9673     0.9673    -0.0000
  5 H      0.8942     1.0000     0.1058     0.9616     0.9616     0.0000
  6 C      6.1712     6.0000    -0.1712     3.9251     3.9251     0.0000
  7 O      8.4920     8.0000    -0.4920     1.8761     1.8761     0.0000
  8 H      0.6890     1.0000     0.3110     0.9156     0.9156     0.0000
  9 H      0.8778     1.0000     0.1222     0.9605     0.9605    -0.0000
 10 H      0.8963     1.0000     0.1037     0.9499     0.9499     0.0000
 11 H      0.8737     1.0000     0.1263     0.9636     0.9636    -0.0000

  Mayer bond orders larger than 0.1
B(  0-C ,  1-O ) :   0.9893 B(  0-C ,  3-H ) :   0.9771 B(  0-C ,  4-H ) :   0.9767 
B(  0-C ,  5-H ) :   0.9755 B(  1-O ,  2-H ) :   0.8974 B(  6-C ,  7-O ) :   0.9889 
B(  6-C ,  9-H ) :   0.9736 B(  6-C , 10-H ) :   0.9731 B(  6-C , 11-H ) :   0.9815 
B(  7-O ,  8-H ) :   0.9035 

-------
TIMINGS
-------

Total SCF time: 0 days 0 hours 0 min 14 sec 

Total time                  ....      14.613 sec
Sum of individual times     ....      14.338 sec  ( 98.1%)

Fock matrix formation       ....      13.816 sec  ( 94.6%)
  XC integration            ....       5.134 sec  ( 37.2% of F)
    Basis function eval.    ....       0.067 sec  (  1.3% of XC)
    Density eval.           ....       0.068 sec  (  1.3% of XC)
    XC-Functional eval.     ....       0.093 sec  (  1.8% of XC)
    XC-Potential eval.      ....       0.076 sec  (  1.5% of XC)
Diagonalization             ....       0.050 sec  (  0.3%)
Density matrix formation    ....       0.005 sec  (  0.0%)
Population analysis         ....       0.017 sec  (  0.1%)
Initial guess               ....       0.094 sec  (  0.6%)
Orbital Transformation      ....       0.000 sec  (  0.0%)
Orbital Orthonormalization  ....       0.000 sec  (  0.0%)
DIIS solution               ....       0.025 sec  (  0.2%)
SOSCF solution              ....       0.027 sec  (  0.2%)
Grid generation             ....       0.303 sec  (  2.1%)


-------------------------------------------------------------------------------
                          DFT DISPERSION CORRECTION                            
                                                                               
                              DFTD3 V3.1  Rev 1                                
                              USING zero damping                               
-------------------------------------------------------------------------------
The omegaB97X-D3 functional is recognized. Fit by Chai et al.
Active option DFTDOPT                   ...         3   

molecular C6(AA) [au] = 834.980320 


            DFT-D V3
 parameters
 s6 scaling factor         :     1.0000 
 rs6 scaling factor        :     1.2810 
 s8 scaling factor         :     1.0000 
 rs8 scaling factor        :     1.0940 
 Damping factor alpha6     :    14.0000 
 Damping factor alpha8     :    16.0000 
 ad hoc parameters k1-k3   :    16.0000     1.3333    -4.0000 

 Edisp/kcal,au: -1.330461176196  -0.002120224617 
 E6   /kcal   :  -0.619592094 
 E8   /kcal   :  -0.710869082 
 % E8         :  53.430276250 

-------------------------   ----------------
Dispersion correction           -0.002120225
-------------------------   ----------------


-------------------------   --------------------
FINAL SINGLE POINT ENERGY      -231.469767367021
-------------------------   --------------------


                            ***************************************
                            *     ORCA property calculations      *
                            ***************************************

                                    ---------------------
                                    Active property flags
                                    ---------------------
   (+) Dipole Moment


------------------------------------------------------------------------------
                       ORCA ELECTRIC PROPERTIES CALCULATION
------------------------------------------------------------------------------

Dipole Moment Calculation                       ... on
Quadrupole Moment Calculation                   ... off
Polarizability Calculation                      ... off
GBWName                                         ... 6-149_DFT_AB.gbw
Electron density file                           ... 6-149_DFT_AB.scfp.tmp
The origin for moment calculation is the CENTER OF MASS  = ( 0.088154, -6.024749  4.709956)

-------------
DIPOLE MOMENT
-------------
                                X             Y             Z
Electronic contribution:     -0.46036      -1.79049      -1.25102
Nuclear contribution   :      0.76415       2.27203       0.89642
                        -----------------------------------------
Total Dipole Moment    :      0.30379       0.48154      -0.35460
                        -----------------------------------------
Magnitude (a.u.)       :      0.67075
Magnitude (Debye)      :      1.70492



--------------------
Rotational spectrum 
--------------------
 
Rotational constants in cm-1:     0.400317     0.076877     0.074776 
Rotational constants in MHz : 12001.213193  2304.716574  2241.732838 

 Dipole components along the rotational axes: 
x,y,z [a.u.] :     0.454476     0.413700    -0.268723 
x,y,z [Debye]:     1.155185     1.051543    -0.683039 

 
------------------------------------------------------------------------------
                      ORCA CHELPG CHARGES GENERATION
------------------------------------------------------------------------------

GBW file                           ... 6-149_DFT_AB.gbw

Reading the GBW file               ... done

Grid spacing                       ...     0.300000
Point Cut-Off                      ...     2.800000
Van-der-Waals Radii                ...        COSMO
Total charge                       ...            0


Number of points X direction       ...           37
Number of points Y direction       ...           26
Number of points Z direction       ...           29
Maximum number of possible points  ...        27898
Final number of points             ...         9792


CHELPG Charges            
--------------------------------
  0   C   :       0.209113
  1   O   :      -0.620675
  2   H   :       0.413180
  3   H   :       0.042160
  4   H   :      -0.010336
  5   H   :      -0.022736
  6   C   :      -0.118221
  7   O   :      -0.559653
  8   H   :       0.384253
  9   H   :       0.082680
 10   H   :       0.095837
 11   H   :       0.104398
--------------------------------
Total charge:     0.000000
--------------------------------

CHELPG charges calculated...

Timings for individual parts in CHELPG calculation:
Grid generation                 ...        0.001 sec (=   0.000 min)
Potential calculation           ...        2.202 sec (=   0.037 min)
Fit to the potential            ...        0.021 sec (=   0.000 min)
------------------------------------------------------------------------------


Timings for individual modules:

Sum of individual times         ...       21.136 sec (=   0.352 min)
GTO integral calculation        ...        3.104 sec (=   0.052 min)  14.7 %
SCF iterations                  ...       15.502 sec (=   0.258 min)  73.3 %
CHELPG charge generation        ...        2.530 sec (=   0.042 min)  12.0 %


                 $$$$$$$$$$$$$$$$  JOB NUMBER  2 $$$$$$$$$$$$$$


                       ****************************
                       * Single Point Calculation *
                       ****************************

---------------------------------
CARTESIAN COORDINATES (ANGSTROEM)
---------------------------------
  C     -1.657348   -2.605589    3.107495
  O     -1.433084   -3.963794    3.336402
  H     -1.822367   -4.471035    2.634541
  H     -1.025186   -1.978984    3.793105
  H     -1.370348   -2.277809    2.137469
  H     -2.655147   -2.318401    3.325334
  C      1.922953   -3.077625    2.484926
  O      1.345528   -3.086113    1.131528
  H      1.970459   -2.601192    0.562478
  H      2.975251   -2.827903    2.476688
  H      1.326520   -2.461149    3.132407
  H      1.791371   -4.136435    2.840835

----------------------------
CARTESIAN COORDINATES (A.U.)
----------------------------
  NO LB      ZA    FRAG     MASS         X           Y           Z
   0 C     6.0000    0    12.011   -3.131934   -4.923850    5.872315
   1 O     8.0000    0    15.999   -2.708136   -7.490485    6.304886
   2 H     1.0000    0     1.008   -3.443775   -8.449032    4.978561
   3 H     1.0000    0     1.008   -1.937321   -3.739738    7.167930
   4 H     1.0000    0     1.008   -2.589582   -4.304435    4.039231
   5 H     1.0000    0     1.008   -5.017501   -4.381143    6.283971
   6 C     0.0000    0     0.000    3.633855   -5.815868    4.695830
   7 O     0.0000    0     0.000    2.542679   -5.831908    2.138278
   8 H     0.0000    0     0.000    3.723628   -4.915541    1.062929
   9 H     0.0000    0     0.000    5.622410   -5.343962    4.680262
  10 H     0.0000    0     0.000    2.506760   -4.650898    5.919391
  11 H     0.0000    0     0.000    3.385201   -7.816729    5.368400

--------------------------------
INTERNAL COORDINATES (ANGSTROEM)
--------------------------------
 C      0   0   0     0.000000000000     0.00000000     0.00000000
 O      1   0   0     1.395497609589     0.00000000     0.00000000
 H      2   1   0     0.949443810602   109.44027930     0.00000000
 H      1   2   3     1.123531794107   110.62726632   192.23092493
 H      1   2   3     1.063371604415   113.97061548   308.31506995
 H      1   2   3     1.060911693623   112.39125642    75.65679840
 C      5   1   2     3.406796659225    95.48016846   298.88519900
 O      7   5   1     1.471454322489    61.84898812   152.20274905
 H      8   7   5     0.974425488943   106.41486216   133.00792706
 H      7   5   1     1.081554447419   152.31963462   236.36325280
 H      7   5   1     1.074712346363    52.43182586   306.05007910
 H      7   5   1     1.124750485710    98.05880480    50.73499993

---------------------------
INTERNAL COORDINATES (A.U.)
---------------------------
 C      0   0   0     0.000000000000     0.00000000     0.00000000
 O      1   0   0     2.637108302666     0.00000000     0.00000000
 H      2   1   0     1.794188781585   109.44027930     0.00000000
 H      1   2   3     2.123167393615   110.62726632   192.23092493
 H      1   2   3     2.009481110933   113.97061548   308.31506995
 H      1   2   3     2.004832553222   112.39125642    75.65679840
 C      5   1   2     6.437912679893    95.48016846   298.88519900
 O      7   5   1     2.780645688080    61.84898812   152.20274905
 H      8   7   5     1.841397312015   106.41486216   133.00792706
 H      7   5   1     2.043841704547   152.31963462   236.36325280
 H      7   5   1     2.030912007371    52.43182586   306.05007910
 H      7   5   1     2.125470386987    98.05880480    50.73499993

---------------------
BASIS SET INFORMATION
---------------------
There are 3 groups of distinct atoms

 Group   1 Type C   : 11s6p2d1f contracted to 5s3p2d1f pattern {62111/411/11/1}
 Group   2 Type O   : 11s6p2d1f contracted to 5s3p2d1f pattern {62111/411/11/1}
 Group   3 Type H   : 5s1p contracted to 3s1p pattern {311/1}

Atom   0C    basis set group =>   1
Atom   1O    basis set group =>   2
Atom   2H    basis set group =>   3
Atom   3H    basis set group =>   3
Atom   4H    basis set group =>   3
Atom   5H    basis set group =>   3
Atom   6C    basis set group =>   1
Atom   7O    basis set group =>   2
Atom   8H    basis set group =>   3
Atom   9H    basis set group =>   3
Atom  10H    basis set group =>   3
Atom  11H    basis set group =>   3


           ************************************************************
           *        Program running with 8 parallel MPI-processes     *
           *              working on a common directory               *
           ************************************************************
------------------------------------------------------------------------------
                           ORCA GTO INTEGRAL CALCULATION
------------------------------------------------------------------------------

                         BASIS SET STATISTICS AND STARTUP INFO

 # of primitive gaussian shells          ...  128
 # of primitive gaussian functions       ...  248
 # of contracted shells                  ...   76
 # of contracted basis functions         ...  172
 Highest angular momentum                ...    3
 Maximum contraction depth               ...    6
 Integral package used                   ... LIBINT
 Integral threshhold            Thresh   ...  2.500e-11
 Primitive cut-off              TCut     ...  2.500e-12


------------------------------ INTEGRAL EVALUATION ----------------------------


 * One electron integrals 
 Pre-screening matrix                    ... done
 Shell pair data                         ... done (   0.001 sec)



           ************************************************************
           *        Program running with 8 parallel MPI-processes     *
           *              working on a common directory               *
           ************************************************************
-------------------------------------------------------------------------------
                                 ORCA SCF
-------------------------------------------------------------------------------

------------
SCF SETTINGS
------------
Hamiltonian:
 Density Functional     Method          .... DFT(GTOs)
 Exchange Functional    Exchange        .... WB97X-D3
 Correlation Functional Correlation     .... WB97X-D3
 Gradients option       PostSCFGGA      .... off
 Hybrid DFT is turned on
   Fraction HF Exchange ScalHFX         ....  0.195728
   Scaling of DF-GGA-X  ScalDFX         ....  0.000000
   Scaling of DF-GGA-C  ScalDFC         ....  1.000000
   Scaling of DF-LDA-C  ScalLDAC        ....  1.000000
   Perturbative correction              ....  0.000000
   Density functional embedding theory  .... OFF
 Long-range corrected/Screened/Range-Separated Hybrid DFT is turned on
   Amount of maximum screened exact exchange              ....  0.804272
   Range separation parameter mu (erf(mu*r12)/r12)        ....  0.250000


General Settings:
 Integral files         IntName         .... 6-149_DFT_A
 Hartree-Fock type      HFTyp           .... RHF
 Total Charge           Charge          ....    0
 Multiplicity           Mult            ....    1
 Number of Electrons    NEL             ....   18
 Basis Dimension        Dim             ....  172
 Nuclear Repulsion      ENuc            ....     40.8096712622 Eh

Convergence Acceleration:
 DIIS                   CNVDIIS         .... on
   Start iteration      DIISMaxIt       ....    12
   Startup error        DIISStart       ....  0.200000
   # of expansion vecs  DIISMaxEq       ....     5
   Bias factor          DIISBfac        ....   1.050
   Max. coefficient     DIISMaxC        ....  10.000
 Newton-Raphson         CNVNR           .... off
 SOSCF                  CNVSOSCF        .... on
   Start iteration      SOSCFMaxIt      ....   150
   Startup grad/error   SOSCFStart      ....  0.003300
 Level Shifting         CNVShift        .... on
   Level shift para.    LevelShift      ....    0.2500
   Turn off err/grad.   ShiftErr        ....    0.0010
 Zerner damping         CNVZerner       .... off
 Static damping         CNVDamp         .... on
   Fraction old density DampFac         ....    0.7000
   Max. Damping (<1)    DampMax         ....    0.9800
   Min. Damping (>=0)   DampMin         ....    0.0000
   Turn off err/grad.   DampErr         ....    0.1000
 Fernandez-Rico         CNVRico         .... off

SCF Procedure:
 Maximum # iterations   MaxIter         ....  1000
 SCF integral mode      SCFMode         .... Direct
   Integral package                     .... LIBINT
 Reset frequency        DirectResetFreq ....    20
 Integral Threshold     Thresh          ....  2.500e-11 Eh
 Primitive CutOff       TCut            ....  2.500e-12 Eh

Convergence Tolerance:
 Convergence Check Mode ConvCheckMode   .... Total+1el-Energy
 Convergence forced     ConvForced      .... 0
 Energy Change          TolE            ....  1.000e-08 Eh
 1-El. energy change                    ....  1.000e-05 Eh
 Orbital Gradient       TolG            ....  1.000e-05
 Orbital Rotation angle TolX            ....  1.000e-05
 DIIS Error             TolErr          ....  5.000e-07


Diagonalization of the overlap matrix:
Smallest eigenvalue                        ... 1.198e-03
Time for diagonalization                   ...    0.004 sec
Threshold for overlap eigenvalues          ... 1.000e-08
Number of eigenvalues below threshold      ... 0
Time for construction of square roots      ...    0.009 sec
Total time needed                          ...    0.013 sec

-------------------
DFT GRID GENERATION
-------------------

General Integration Accuracy     IntAcc      ...  4.340
Radial Grid Type                 RadialGrid  ... Gauss-Chebyshev
Angular Grid (max. acc.)         AngularGrid ... Lebedev-110
Angular grid pruning method      GridPruning ... 3 (G Style)
Weight generation scheme         WeightScheme... Becke
Basis function cutoff            BFCut       ...    1.0000e-11
Integration weight cutoff        WCut        ...    1.0000e-14
Grids for H and He will be reduced by one unit

# of grid points (after initial pruning)     ...  13096 (   0.0 sec)
# of grid points (after weights+screening)   ...  12419 (   0.0 sec)
nearest neighbour list constructed           ...    0.0 sec
Grid point re-assignment to atoms done       ...    0.0 sec
Grid point division into batches done        ...    0.0 sec
Reduced shell lists constructed in    0.0 sec

Total number of grid points                  ...    12419
Total number of batches                      ...      200
Average number of points per batch           ...       62
Average number of grid points per atom       ...     1035
Average number of shells per batch           ...    55.38 (72.87%)
Average number of basis functions per batch  ...   123.77 (71.96%)
Average number of large shells per batch     ...    45.65 (82.43%)
Average number of large basis fcns per batch ...   101.50 (82.01%)
Maximum spatial batch extension              ...  12.83, 12.80, 16.32 au
Average spatial batch extension              ...   0.30,  0.29,  0.34 au

Time for grid setup =    0.045 sec

------------------------------
INITIAL GUESS: MODEL POTENTIAL
------------------------------
Loading Hartree-Fock densities                     ... done
Calculating cut-offs                               ... done
Setting up the integral package                    ... done
Initializing the effective Hamiltonian             ... done
Starting the Coulomb interaction                   ... done (   0.0 sec)
Reading the grid                                   ... done
Mapping shells                                     ... done
Starting the XC term evaluation                    ... done (   0.0 sec)
  promolecular density results
     # of electrons  =     17.992945792
     EX              =    -14.442137580
     EC              =     -0.576600140
     EX+EC           =    -15.018737720
Transforming the Hamiltonian                       ... done (   0.0 sec)
Diagonalizing the Hamiltonian                      ... done (   0.0 sec)
Back transforming the eigenvectors                 ... done (   0.0 sec)
Now organizing SCF variables                       ... done
                      ------------------
                      INITIAL GUESS DONE (   0.1 sec)
                      ------------------
--------------
SCF ITERATIONS
--------------
ITER       Energy         Delta-E        Max-DP      RMS-DP      [F,P]     Damp
               ***  Starting incremental Fock matrix formation  ***
  0   -115.6459016709   0.000000000000 0.03722470  0.00075330  0.2507158 0.7000
  1   -115.6838030229  -0.037901351996 0.02187749  0.00053465  0.1260932 0.7000
                               ***Turning on DIIS***
  2   -115.7014226073  -0.017619584385 0.03133807  0.00097258  0.0495269 0.0000
  3   -115.7300702998  -0.028647692517 0.01809524  0.00035078  0.0611375 0.0000
  4   -115.7346858424  -0.004615542553 0.00403241  0.00006727  0.0063810 0.0000
                      *** Initiating the SOSCF procedure ***
                           *** Shutting down DIIS ***
                      *** Re-Reading the Fockian *** 
                      *** Removing any level shift *** 
ITER      Energy       Delta-E        Grad      Rot      Max-DP    RMS-DP
  5   -115.73477744  -0.0000915989  0.000416  0.000416  0.000720  0.000022
               *** Restarting incremental Fock matrix formation ***
  6   -115.73478564  -0.0000081943  0.000127  0.000145  0.000419  0.000013
  7   -115.73478634  -0.0000006996  0.000039  0.000080  0.000182  0.000006
  8   -115.73478639  -0.0000000529  0.000021  0.000014  0.000034  0.000001
  9   -115.73478640  -0.0000000108  0.000008  0.000006  0.000015  0.000000
                  ***Gradient check signals convergence***
              ***Rediagonalizing the Fockian in SOSCF/NRSCF***

               *****************************************************
               *                     SUCCESS                       *
               *           SCF CONVERGED AFTER  10 CYCLES          *
               *****************************************************

Setting up the final grid:

General Integration Accuracy     IntAcc      ...  4.670
Radial Grid Type                 RadialGrid  ... Gauss-Chebyshev
Angular Grid (max. acc.)         AngularGrid ... Lebedev-302
Angular grid pruning method      GridPruning ... 3 (G Style)
Weight generation scheme         WeightScheme... Becke
Basis function cutoff            BFCut       ...    1.0000e-11
Integration weight cutoff        WCut        ...    1.0000e-14
Grids for H and He will be reduced by one unit

# of grid points (after initial pruning)     ...  52000 (   0.0 sec)
# of grid points (after weights+screening)   ...  48897 (   0.0 sec)
nearest neighbour list constructed           ...    0.0 sec
Grid point re-assignment to atoms done       ...    0.0 sec
Grid point division into batches done        ...    0.2 sec
Reduced shell lists constructed in    0.2 sec

Total number of grid points                  ...    48897
Total number of batches                      ...      770
Average number of points per batch           ...       63
Average number of grid points per atom       ...     4075
Average number of shells per batch           ...    53.95 (70.99%)
Average number of basis functions per batch  ...   120.09 (69.82%)
Average number of large shells per batch     ...    44.07 (81.69%)
Average number of large basis fcns per batch ...    98.32 (81.87%)
Maximum spatial batch extension              ...  15.44, 14.16, 14.28 au
Average spatial batch extension              ...   0.20,  0.20,  0.21 au

Final grid set up in    0.3 sec
Final integration                            ... done (   0.1 sec)
Change in XC energy                          ...     0.000462596
Integrated number of electrons               ...    18.000008982
Previous integrated no of electrons          ...    17.998431744

----------------
TOTAL SCF ENERGY
----------------

Total Energy       :         -115.73432380 Eh           -3149.29106 eV

Components:
Nuclear Repulsion  :           40.80967126 Eh            1110.48761 eV
Electronic Energy  :         -156.54399507 Eh           -4259.77867 eV
One Electron Energy:         -237.98457233 Eh           -6475.88944 eV
Two Electron Energy:           81.44057726 Eh            2216.11077 eV

Virial components:
Potential Energy   :         -231.07313773 Eh           -6287.81974 eV
Kinetic Energy     :          115.33881393 Eh            3138.52869 eV
Virial Ratio       :            2.00342911


DFT components:
N(Alpha)           :        9.000004491008 electrons
N(Beta)            :        9.000004491008 electrons
N(Total)           :       18.000008982016 electrons
E(XC)              :      -10.673487761415 Eh       
DFET-embed. en.    :        0.000000000000 Eh       

---------------
SCF CONVERGENCE
---------------

  Last Energy change         ...   -1.2827e-09  Tolerance :   1.0000e-08
  Last MAX-Density change    ...    3.9932e-06  Tolerance :   1.0000e-07
  Last RMS-Density change    ...    1.0555e-07  Tolerance :   5.0000e-09
  Last Orbital Gradient      ...    2.3817e-06  Tolerance :   1.0000e-05
  Last Orbital Rotation      ...    2.0882e-06  Tolerance :   1.0000e-05

             **** THE GBW FILE WAS UPDATED (6-149_DFT_A.gbw) ****
             **** DENSITY FILE WAS UPDATED (6-149_DFT_A.scfp.tmp) ****
             **** ENERGY FILE WAS UPDATED (6-149_DFT_A.en.tmp) ****
----------------
ORBITAL ENERGIES
----------------

  NO   OCC          E(Eh)            E(eV) 
   0   2.0000     -19.229761      -523.2684 
   1   2.0000     -10.307790      -280.4892 
   2   2.0000      -1.143418       -31.1140 
   3   2.0000      -0.800336       -21.7783 
   4   2.0000      -0.617516       -16.8035 
   5   2.0000      -0.551911       -15.0183 
   6   2.0000      -0.526185       -14.3182 
   7   2.0000      -0.427395       -11.6300 
   8   2.0000      -0.376718       -10.2510 
   9   0.0000       0.089767         2.4427 
  10   0.0000       0.127684         3.4745 
  11   0.0000       0.153629         4.1804 
  12   0.0000       0.164147         4.4667 
  13   0.0000       0.203477         5.5369 
  14   0.0000       0.208865         5.6835 
  15   0.0000       0.217154         5.9091 
  16   0.0000       0.232542         6.3278 
  17   0.0000       0.248206         6.7540 
  18   0.0000       0.290332         7.9003 
  19   0.0000       0.308700         8.4001 
  20   0.0000       0.340350         9.2614 
  21   0.0000       0.353495         9.6191 
  22   0.0000       0.364351         9.9145 
  23   0.0000       0.409636        11.1468 
  24   0.0000       0.429093        11.6762 
  25   0.0000       0.455845        12.4042 
  26   0.0000       0.492561        13.4033 
  27   0.0000       0.498394        13.5620 
  28   0.0000       0.516535        14.0556 
  29   0.0000       0.556908        15.1542 
  30   0.0000       0.563489        15.3333 
  31   0.0000       0.577583        15.7168 
  32   0.0000       0.603630        16.4256 
  33   0.0000       0.632821        17.2199 
  34   0.0000       0.650793        17.7090 
  35   0.0000       0.661368        17.9967 
  36   0.0000       0.677662        18.4401 
  37   0.0000       0.729115        19.8402 
  38   0.0000       0.779162        21.2021 
  39   0.0000       0.807929        21.9849 
  40   0.0000       0.841519        22.8989 
  41   0.0000       0.855535        23.2803 
  42   0.0000       0.900676        24.5086 
  43   0.0000       0.934798        25.4371 
  44   0.0000       0.993647        27.0385 
  45   0.0000       1.034810        28.1586 
  46   0.0000       1.089952        29.6591 
  47   0.0000       1.127567        30.6827 
  48   0.0000       1.163706        31.6660 
  49   0.0000       1.188798        32.3488 
  50   0.0000       1.200881        32.6776 
  51   0.0000       1.232074        33.5264 
  52   0.0000       1.240780        33.7633 
  53   0.0000       1.385909        37.7125 
  54   0.0000       1.399802        38.0906 
  55   0.0000       1.432860        38.9901 
  56   0.0000       1.463215        39.8161 
  57   0.0000       1.512916        41.1685 
  58   0.0000       1.545497        42.0551 
  59   0.0000       1.563281        42.5390 
  60   0.0000       1.614652        43.9369 
  61   0.0000       1.643292        44.7162 
  62   0.0000       1.676634        45.6235 
  63   0.0000       1.685461        45.8637 
  64   0.0000       1.711261        46.5658 
  65   0.0000       1.813290        49.3421 
  66   0.0000       1.833866        49.9020 
  67   0.0000       1.929751        52.5112 
  68   0.0000       1.944187        52.9040 
  69   0.0000       1.973610        53.7047 
  70   0.0000       2.026452        55.1426 
  71   0.0000       2.075085        56.4659 
  72   0.0000       2.098491        57.1029 
  73   0.0000       2.106068        57.3090 
  74   0.0000       2.125927        57.8494 
  75   0.0000       2.187193        59.5165 
  76   0.0000       2.217585        60.3435 
  77   0.0000       2.230948        60.7072 
  78   0.0000       2.289648        62.3045 
  79   0.0000       2.318132        63.0796 
  80   0.0000       2.334457        63.5238 
  81   0.0000       2.395465        65.1839 
  82   0.0000       2.430455        66.1360 
  83   0.0000       2.454890        66.8010 
  84   0.0000       2.468560        67.1729 
  85   0.0000       2.567002        69.8517 
  86   0.0000       2.602569        70.8195 
  87   0.0000       2.609685        71.0131 
  88   0.0000       2.637808        71.7784 
  89   0.0000       2.683382        73.0185 
  90   0.0000       2.704143        73.5835 
  91   0.0000       2.726781        74.1995 
  92   0.0000       2.819714        76.7283 
  93   0.0000       2.857787        77.7643 
  94   0.0000       2.903281        79.0023 
  95   0.0000       2.909369        79.1680 
  96   0.0000       2.917558        79.3908 
  97   0.0000       3.011444        81.9456 
  98   0.0000       3.082306        83.8738 
  99   0.0000       3.095353        84.2288 
 100   0.0000       3.121888        84.9509 
 101   0.0000       3.132435        85.2379 
 102   0.0000       3.180865        86.5557 
 103   0.0000       3.240918        88.1899 
 104   0.0000       3.284549        89.3771 
 105   0.0000       3.317218        90.2661 
 106   0.0000       3.358528        91.3902 
 107   0.0000       3.382647        92.0465 
 108   0.0000       3.472779        94.4991 
 109   0.0000       3.498145        95.1894 
 110   0.0000       3.554897        96.7337 
 111   0.0000       3.607462        98.1640 
 112   0.0000       3.620358        98.5150 
 113   0.0000       3.654478        99.4434 
 114   0.0000       3.674632        99.9918 
 115   0.0000       3.697033       100.6014 
 116   0.0000       3.725976       101.3890 
 117   0.0000       4.028820       109.6298 
 118   0.0000       4.058994       110.4508 
 119   0.0000       4.167796       113.4115 
 120   0.0000       4.238146       115.3258 
 121   0.0000       4.263589       116.0182 
 122   0.0000       4.289090       116.7121 
 123   0.0000       4.323985       117.6616 
 124   0.0000       4.335519       117.9755 
 125   0.0000       4.498186       122.4019 
 126   0.0000       4.544070       123.6504 
 127   0.0000       4.571779       124.4044 
 128   0.0000       4.585181       124.7691 
 129   0.0000       4.597044       125.0919 
 130   0.0000       4.622750       125.7914 
 131   0.0000       4.941608       134.4680 
 132   0.0000       5.075374       138.1079 
 133   0.0000       5.165539       140.5615 
 134   0.0000       5.266208       143.3008 
 135   0.0000       5.355212       145.7227 
 136   0.0000       5.432676       147.8306 
 137   0.0000       5.522473       150.2741 
 138   0.0000       5.573762       151.6698 
 139   0.0000       5.788997       157.5266 
 140   0.0000       5.861799       159.5077 
 141   0.0000       5.868501       159.6900 
 142   0.0000       6.009979       163.5398 
 143   0.0000       6.026339       163.9850 
 144   0.0000       6.046398       164.5309 
 145   0.0000       6.406320       174.3248 
 146   0.0000       6.531444       177.7296 
 147   0.0000       6.578400       179.0074 
 148   0.0000       6.665323       181.3727 
 149   0.0000       6.754148       183.7897 
 150   0.0000       6.817932       185.5254 
 151   0.0000       6.822153       185.6402 
 152   0.0000       7.002813       190.5562 
 153   0.0000       7.046157       191.7357 
 154   0.0000       7.131663       194.0624 
 155   0.0000       7.231873       196.7893 
 156   0.0000       7.289519       198.3579 
 157   0.0000       7.976711       217.0574 
 158   0.0000       8.870300       241.3731 
 159   0.0000       9.341551       254.1965 
 160   0.0000       9.530352       259.3341 
 161   0.0000       9.555766       260.0256 
 162   0.0000       9.774312       265.9726 
 163   0.0000       9.878473       268.8069 
 164   0.0000       9.905356       269.5385 
 165   0.0000      10.063329       273.8371 
 166   0.0000      11.047209       300.6099 
[...]
  82   0.0000       2.406046        65.4718 
  83   0.0000       2.450755        66.6884 
  84   0.0000       2.502422        68.0944 
  85   0.0000       2.537078        69.0374 
  86   0.0000       2.561435        69.7002 
  87   0.0000       2.608294        70.9753 
  88   0.0000       2.619924        71.2918 
  89   0.0000       2.638876        71.8075 
  90   0.0000       2.670619        72.6712 
  91   0.0000       2.715045        73.8801 
  92   0.0000       2.830374        77.0184 
  93   0.0000       2.851470        77.5924 
  94   0.0000       2.872869        78.1747 
  95   0.0000       2.916370        79.3585 
  96   0.0000       2.933810        79.8330 
  97   0.0000       2.974422        80.9381 
  98   0.0000       3.054238        83.1100 
  99   0.0000       3.103995        84.4640 
 100   0.0000       3.161704        86.0343 
 101   0.0000       3.176851        86.4465 
 102   0.0000       3.218136        87.5699 
 103   0.0000       3.228544        87.8531 
 104   0.0000       3.277045        89.1729 
 105   0.0000       3.311407        90.1080 
 106   0.0000       3.342536        90.9550 
 107   0.0000       3.405423        92.6663 
 108   0.0000       3.446364        93.7803 
 109   0.0000       3.489121        94.9438 
 110   0.0000       3.539099        96.3038 
 111   0.0000       3.546519        96.5057 
 112   0.0000       3.627683        98.7143 
 113   0.0000       3.654425        99.4420 
 114   0.0000       3.688834       100.3783 
 115   0.0000       3.726434       101.4014 
 116   0.0000       3.738328       101.7251 
 117   0.0000       3.951322       107.5210 
 118   0.0000       4.097856       111.5083 
 119   0.0000       4.158674       113.1633 
 120   0.0000       4.231340       115.1406 
 121   0.0000       4.272467       116.2597 
 122   0.0000       4.295916       116.8978 
 123   0.0000       4.324728       117.6818 
 124   0.0000       4.385034       119.3228 
 125   0.0000       4.481941       121.9598 
 126   0.0000       4.537635       123.4753 
 127   0.0000       4.557578       124.0180 
 128   0.0000       4.588173       124.8505 
 129   0.0000       4.597314       125.0993 
 130   0.0000       4.616887       125.6319 
 131   0.0000       5.058018       137.6357 
 132   0.0000       5.115726       139.2060 
 133   0.0000       5.191222       141.2603 
 134   0.0000       5.336565       145.2153 
 135   0.0000       5.392896       146.7482 
 136   0.0000       5.411396       147.2516 
 137   0.0000       5.467225       148.7707 
 138   0.0000       5.542670       150.8237 
 139   0.0000       5.734622       156.0470 
 140   0.0000       5.741761       156.2413 
 141   0.0000       5.752966       156.5462 
 142   0.0000       5.905092       160.6857 
 143   0.0000       6.113648       166.3608 
 144   0.0000       6.128605       166.7678 
 145   0.0000       6.281630       170.9318 
 146   0.0000       6.523383       177.5103 
 147   0.0000       6.627699       180.3488 
 148   0.0000       6.716931       182.7770 
 149   0.0000       6.770945       184.2468 
 150   0.0000       6.785145       184.6332 
 151   0.0000       6.889968       187.4856 
 152   0.0000       7.041914       191.6202 
 153   0.0000       7.171298       195.1409 
 154   0.0000       7.177043       195.2973 
 155   0.0000       7.306518       198.8205 
 156   0.0000       7.497759       204.0244 
 157   0.0000       8.184362       222.7078 
 158   0.0000       8.941541       243.3117 
 159   0.0000       9.356590       254.6058 
 160   0.0000       9.564171       260.2543 
 161   0.0000       9.585573       260.8367 
 162   0.0000       9.813085       267.0276 
 163   0.0000       9.899599       269.3818 
 164   0.0000       9.969575       271.2859 
 165   0.0000      10.132801       275.7275 
 166   0.0000      11.232909       305.6630 
 167   0.0000      19.124224       520.3966 
 168   0.0000      22.289734       606.5345 
 169   0.0000      43.667333      1188.2485 
 170   0.0000      66.062943      1797.6641 
 171   0.0000     126.448725      3440.8447 

                    ********************************
                    * MULLIKEN POPULATION ANALYSIS *
                    ********************************

-----------------------
MULLIKEN ATOMIC CHARGES
-----------------------
   0 C :    0.009618
   1 O :   -0.000533
   2 H :   -0.000444
   3 H :   -0.000840
   4 H :   -0.007929
   5 H :    0.000144
   6 C :   -0.184992
   7 O :   -0.482944
   8 H :    0.311161
   9 H :    0.125115
  10 H :    0.115390
  11 H :    0.116256
Sum of atomic charges:    0.0000000

--------------------------------
MULLIKEN REDUCED ORBITAL CHARGES
--------------------------------
  0 C s       :    -0.004349  s :    -0.004349
      pz      :    -0.001219  p :    -0.005291
      px      :    -0.004163
      py      :     0.000091
      dz2     :     0.000036  d :     0.000021
      dxz     :     0.000015
      dyz     :    -0.000004
      dx2y2   :    -0.000014
      dxy     :    -0.000013
      f0      :    -0.000000  f :     0.000001
      f+1     :     0.000001
      f-1     :    -0.000000
      f+2     :     0.000000
      f-2     :    -0.000000
      f+3     :     0.000000
      f-3     :     0.000000
  1 O s       :     0.000203  s :     0.000203
      pz      :     0.000140  p :     0.000330
      px      :     0.000036
      py      :     0.000154
      dz2     :     0.000000  d :     0.000000
      dxz     :    -0.000000
      dyz     :    -0.000000
      dx2y2   :     0.000000
      dxy     :     0.000000
      f0      :    -0.000000  f :    -0.000000
      f+1     :    -0.000000
      f-1     :    -0.000000
      f+2     :     0.000000
      f-2     :     0.000000
      f+3     :    -0.000000
      f-3     :     0.000000
  2 H s       :     0.000442  s :     0.000442
      pz      :     0.000001  p :     0.000002
      px      :     0.000001
      py      :    -0.000000
  3 H s       :     0.000836  s :     0.000836
      pz      :     0.000000  p :     0.000004
      px      :     0.000004
      py      :     0.000001
  4 H s       :     0.007902  s :     0.007902
      pz      :     0.000017  p :     0.000027
      px      :     0.000011
      py      :    -0.000001
  5 H s       :    -0.000144  s :    -0.000144
      pz      :     0.000000  p :     0.000001
      px      :     0.000000
      py      :     0.000000
  6 C s       :     3.235575  s :     3.235575
      pz      :     0.756472  p :     2.849055
      px      :     1.009062
      py      :     1.083521
      dz2     :     0.020089  d :     0.093399
      dxz     :     0.023561
      dyz     :     0.036764
      dx2y2   :     0.009570
      dxy     :     0.003415
      f0      :     0.001701  f :     0.006963
      f+1     :     0.001474
      f-1     :     0.001550
      f+2     :     0.000601
      f-2     :     0.000985
      f+3     :     0.000256
      f-3     :     0.000396
  7 O s       :     3.811759  s :     3.811759
      pz      :     1.262723  p :     4.641223
      px      :     1.601454
      py      :     1.777046
      dz2     :     0.004485  d :     0.028482
      dxz     :     0.010978
      dyz     :     0.005191
      dx2y2   :     0.002810
      dxy     :     0.005018
      f0      :     0.000318  f :     0.001481
      f+1     :     0.000228
      f-1     :     0.000194
      f+2     :     0.000116
      f-2     :     0.000390
      f+3     :     0.000072
      f-3     :     0.000162
  8 H s       :     0.642351  s :     0.642351
      pz      :     0.013921  p :     0.046488
      px      :     0.015065
      py      :     0.017502
  9 H s       :     0.855752  s :     0.855752
      pz      :     0.002645  p :     0.019133
      px      :     0.011971
      py      :     0.004517
 10 H s       :     0.863387  s :     0.863387
      pz      :     0.007094  p :     0.021224
      px      :     0.006763
      py      :     0.007367
 11 H s       :     0.864648  s :     0.864648
      pz      :     0.003846  p :     0.019096
      px      :     0.003608
      py      :     0.011642


                     *******************************
                     * LOEWDIN POPULATION ANALYSIS *
                     *******************************

----------------------
LOEWDIN ATOMIC CHARGES
----------------------
   0 C :   -0.005750
   1 O :   -0.000464
   2 H :   -0.000192
   3 H :   -0.002291
   4 H :   -0.003784
   5 H :   -0.000014
   6 C :   -0.342382
   7 O :   -0.122069
   8 H :    0.170678
   9 H :    0.096348
  10 H :    0.096690
  11 H :    0.113229

-------------------------------
LOEWDIN REDUCED ORBITAL CHARGES
-------------------------------
  0 C s       :     0.000482  s :     0.000482
      pz      :     0.001084  p :     0.005036
      px      :     0.003811
      py      :     0.000141
      dz2     :     0.000054  d :     0.000229
      dxz     :     0.000089
      dyz     :     0.000003
      dx2y2   :     0.000078
      dxy     :     0.000005
      f0      :     0.000000  f :     0.000003
      f+1     :     0.000001
      f-1     :     0.000000
      f+2     :     0.000000
      f-2     :     0.000000
      f+3     :     0.000001
      f-3     :     0.000000
  1 O s       :     0.000024  s :     0.000024
      pz      :     0.000066  p :     0.000436
      px      :     0.000312
      py      :     0.000058
      dz2     :     0.000001  d :     0.000005
      dxz     :     0.000001
      dyz     :     0.000000
      dx2y2   :     0.000002
      dxy     :     0.000000
      f0      :     0.000000  f :     0.000000
      f+1     :     0.000000
      f-1     :     0.000000
      f+2     :     0.000000
      f-2     :     0.000000
      f+3     :     0.000000
      f-3     :     0.000000
  2 H s       :     0.000190  s :     0.000190
      pz      :     0.000000  p :     0.000001
      px      :     0.000001
      py      :     0.000000
  3 H s       :     0.002263  s :     0.002263
      pz      :     0.000003  p :     0.000027
      px      :     0.000024
      py      :     0.000001
  4 H s       :     0.003743  s :     0.003743
      pz      :     0.000007  p :     0.000041
      px      :     0.000032
      py      :     0.000001
  5 H s       :     0.000012  s :     0.000012
      pz      :     0.000000  p :     0.000002
      px      :     0.000001
      py      :     0.000000
  6 C s       :     2.879502  s :     2.879502
      pz      :     0.859865  p :     3.047964
      px      :     1.065933
      py      :     1.122166
      dz2     :     0.089290  d :     0.367024
      dxz     :     0.095877
      dyz     :     0.110511
      dx2y2   :     0.052374
      dxy     :     0.018973
      f0      :     0.011108  f :     0.047891
      f+1     :     0.012841
      f-1     :     0.008892
      f+2     :     0.004124
      f-2     :     0.007333
      f+3     :     0.001468
      f-3     :     0.002125
  7 O s       :     3.411903  s :     3.411903
      pz      :     1.314564  p :     4.644354
      px      :     1.609281
      py      :     1.720510
      dz2     :     0.014143  d :     0.061934
      dxz     :     0.023431
      dyz     :     0.014925
      dx2y2   :     0.002726
      dxy     :     0.006709
      f0      :     0.000974  f :     0.003878
      f+1     :     0.000690
      f-1     :     0.000555
      f+2     :     0.000350
      f-2     :     0.001014
      f+3     :     0.000070
      f-3     :     0.000225
  8 H s       :     0.675800  s :     0.675800
      pz      :     0.039951  p :     0.153523
      px      :     0.058542
      py      :     0.055030
  9 H s       :     0.840844  s :     0.840844
      pz      :     0.009891  p :     0.062808
      px      :     0.037427
      py      :     0.015490
 10 H s       :     0.839107  s :     0.839107
      pz      :     0.019871  p :     0.064202
      px      :     0.021105
      py      :     0.023226
 11 H s       :     0.831633  s :     0.831633
      pz      :     0.010308  p :     0.055137
      px      :     0.011141
      py      :     0.033688


                      *****************************
                      * MAYER POPULATION ANALYSIS *
                      *****************************

  NA   - Mulliken gross atomic population
  ZA   - Total nuclear charge
  QA   - Mulliken gross atomic charge
  VA   - Mayer's total valence
  BVA  - Mayer's bonded valence
  FA   - Mayer's free valence

  ATOM       NA         ZA         QA         VA         BVA        FA
  0 C     -0.0096     0.0000     0.0096    -0.0193    -0.0193     0.0000
  1 O      0.0005     0.0000    -0.0005     0.0011     0.0011     0.0000
  2 H      0.0004     0.0000    -0.0004     0.0009     0.0009    -0.0000
  3 H      0.0008     0.0000    -0.0008     0.0017     0.0017    -0.0000
  4 H      0.0079     0.0000    -0.0079     0.0158     0.0158     0.0000
  5 H     -0.0001     0.0000     0.0001    -0.0003    -0.0003     0.0000
  6 C      6.1850     6.0000    -0.1850     3.9358     3.9358     0.0000
  7 O      8.4829     8.0000    -0.4829     1.8834     1.8834     0.0000
  8 H      0.6888     1.0000     0.3112     0.9158     0.9158     0.0000
  9 H      0.8749     1.0000     0.1251     0.9621     0.9621     0.0000
 10 H      0.8846     1.0000     0.1154     0.9464     0.9464     0.0000
 11 H      0.8837     1.0000     0.1163     0.9591     0.9591    -0.0000

  Mayer bond orders larger than 0.1
B(  6-C ,  7-O ) :   0.9985 B(  6-C ,  9-H ) :   0.9741 B(  6-C , 10-H ) :   0.9744 
B(  6-C , 11-H ) :   0.9812 B(  7-O ,  8-H ) :   0.9031 

-------
TIMINGS
-------

Total SCF time: 0 days 0 hours 0 min 14 sec 

Total time                  ....      14.028 sec
Sum of individual times     ....      13.650 sec  ( 97.3%)

Fock matrix formation       ....      13.009 sec  ( 92.7%)
  XC integration            ....       5.035 sec  ( 38.7% of F)
    Basis function eval.    ....       0.062 sec  (  1.2% of XC)
    Density eval.           ....       0.077 sec  (  1.5% of XC)
    XC-Functional eval.     ....       0.097 sec  (  1.9% of XC)
    XC-Potential eval.      ....       0.066 sec  (  1.3% of XC)
Diagonalization             ....       0.073 sec  (  0.5%)
Density matrix formation    ....       0.007 sec  (  0.1%)
Population analysis         ....       0.059 sec  (  0.4%)
Initial guess               ....       0.099 sec  (  0.7%)
Orbital Transformation      ....       0.000 sec  (  0.0%)
Orbital Orthonormalization  ....       0.000 sec  (  0.0%)
DIIS solution               ....       0.033 sec  (  0.2%)
SOSCF solution              ....       0.048 sec  (  0.3%)
Grid generation             ....       0.320 sec  (  2.3%)


-------------------------------------------------------------------------------
                          DFT DISPERSION CORRECTION                            
                                                                               
                              DFTD3 V3.1  Rev 1                                
                              USING zero damping                               
-------------------------------------------------------------------------------
The omegaB97X-D3 functional is recognized. Fit by Chai et al.
Active option DFTDOPT                   ...         3   

molecular C6(AA) [au] = 208.822488 


            DFT-D V3
 parameters
 s6 scaling factor         :     1.0000 
 rs6 scaling factor        :     1.2810 
 s8 scaling factor         :     1.0000 
 rs8 scaling factor        :     1.0940 
 Damping factor alpha6     :    14.0000 
 Damping factor alpha8     :    16.0000 
 ad hoc parameters k1-k3   :    16.0000     1.3333    -4.0000 

 Edisp/kcal,au: -0.163722794013  -0.000260908852 
 E6   /kcal   :  -0.032498507 
 E8   /kcal   :  -0.131224287 
 % E8         :  80.150285311 

-------------------------   ----------------
Dispersion correction           -0.000260909
-------------------------   ----------------


-------------------------   --------------------
FINAL SINGLE POINT ENERGY      -115.732509963935
-------------------------   --------------------


                            ***************************************
                            *     ORCA property calculations      *
                            ***************************************

                                    ---------------------
                                    Active property flags
                                    ---------------------
   (+) Dipole Moment


------------------------------------------------------------------------------
                       ORCA ELECTRIC PROPERTIES CALCULATION
------------------------------------------------------------------------------

Dipole Moment Calculation                       ... on
Quadrupole Moment Calculation                   ... off
Polarizability Calculation                      ... off
GBWName                                         ... 6-149_DFT_B.gbw
Electron density file                           ... 6-149_DFT_B.scfp.tmp
The origin for moment calculation is the CENTER OF MASS  = ( 3.111118, -5.807005  3.363684)

-------------
DIPOLE MOMENT
-------------
                                X             Y             Z
Electronic contribution:     -0.72871       0.05750      -1.55398
Nuclear contribution   :      1.38243       0.24848       1.76588
                        -----------------------------------------
Total Dipole Moment    :      0.65372       0.30597       0.21190
                        -----------------------------------------
Magnitude (a.u.)       :      0.75224
Magnitude (Debye)      :      1.91205



--------------------
Rotational spectrum 
--------------------
 
Rotational constants in cm-1:     4.167138     0.788753     0.757226 
Rotational constants in MHz : 124927.642270 23646.208890 22701.063274 

 Dipole components along the rotational axes: 
x,y,z [a.u.] :     0.416914    -0.625992    -0.013582 
x,y,z [Debye]:     1.059712    -1.591146    -0.034523 

 
------------------------------------------------------------------------------
                      ORCA CHELPG CHARGES GENERATION
------------------------------------------------------------------------------

GBW file                           ... 6-149_DFT_B.gbw

Reading the GBW file               ... done

Grid spacing                       ...     0.300000
Point Cut-Off                      ...     2.800000
Van-der-Waals Radii                ...        COSMO
Total charge                       ...            0


Number of points X direction       ...           37
Number of points Y direction       ...           26
Number of points Z direction       ...           29
Maximum number of possible points  ...        27898
Final number of points             ...         6035


CHELPG Charges            
--------------------------------
  0   C   :       0.015620
  1   O   :      -0.002118
  2   H   :       0.034190
  3   H   :       0.004896
  4   H   :       0.002245
  5   H   :      -0.048741
  6   C   :      -0.074573
  7   O   :      -0.589484
  8   H   :       0.401448
  9   H   :       0.075085
 10   H   :       0.091132
 11   H   :       0.090301
--------------------------------
Total charge:    -0.000000
--------------------------------

CHELPG charges calculated...

Timings for individual parts in CHELPG calculation:
Grid generation                 ...        0.001 sec (=   0.000 min)
Potential calculation           ...        1.305 sec (=   0.022 min)
Fit to the potential            ...        0.002 sec (=   0.000 min)
------------------------------------------------------------------------------


Timings for individual modules:

Sum of individual times         ...       16.449 sec (=   0.274 min)
GTO integral calculation        ...        0.728 sec (=   0.012 min)   4.4 %
SCF iterations                  ...       14.308 sec (=   0.238 min)  87.0 %
CHELPG charge generation        ...        1.413 sec (=   0.024 min)   8.6 %



                             ****ORCA TERMINATED NORMALLY****
TOTAL RUN TIME: 0 days 0 hours 0 minutes 58 seconds 95 msec
