LAMMPS data file via vdw_self_gen.py, on 2021-08-05 13:23:06.501163

9000 atoms
8 atom types
8500 bonds
7 bond types
14500 angles
11 angle types
18000 dihedrals
10 dihedral types

-51.5883302154961214  51.5883302154961143 xlo xhi
-51.5883302154961214  51.5883302154961143 ylo yhi
-51.5883302154961214  51.5883302154961143 zlo zhi

Masses

1  1.007940
2  1.007940
3  1.007940
4  1.007940
5  12.011000
6  12.011000
7  14.006740
8  15.999400

Atoms

1         0    8   -0.6441380000000000  -38.6561544893507119  19.1836438302497854 -38.4629226748443429 0 0 0
2         0    5    0.2468840000000000  -39.9568367743460229  19.1336770240249336 -39.0672912305908113 0 0 0
3         0    6    0.3045890000000000  -40.3480223934869997  17.6849126222556166 -39.3626847627530481 0 0 0
4         0    7   -0.6563480000000000  -39.4582896324475385  17.0991368171857907 -40.3784456025317269 0 0 0
5         0    6    0.3045890000000000  -39.7583862397839809  15.6777500283964688 -40.6271047572402111 0 0 0
6         0    5    0.2468840000000000  -41.1138226484694442  15.4756955056637580 -41.3207216279643106 0 0 0
7         0    8   -0.6441380000000000  -41.1476785281326443  16.2038429561058237 -42.5463028058660271 0 0 0
8         0    4    0.4025730000000000  -38.4373298542960029  20.1272510266062064 -38.3560145489719417 0 0 0
9         0    2   -0.0094320000000000  -39.9370414136002694  19.7328991620871896 -39.9837999457425255 0 0 0
10        0    2   -0.0094320000000000  -40.6705909150794866  19.5804843086810187 -38.3697661727870880 0 0 0
11        0    1   -0.0517540000000000  -41.3836358370235970  17.6886689614246428 -39.7186871687594021 0 0 0
12        0    1   -0.0517540000000000  -40.2902928489683276  17.1001301791694935 -38.4394487619125798 0 0 0
13        0    3    0.2812760000000000  -38.5049881140382126  17.1747551868927566 -40.0070178351780683 0 0 0
14        0    1   -0.0517540000000000  -39.7054766003717532  15.0941598350368071 -39.7017465982165234 0 0 0
15        0    1   -0.0517540000000000  -38.9757270672546454  15.3017286934596726 -41.2971607102978950 0 0 0
16        0    2   -0.0094320000000000  -41.9451347359723243  15.8188098315834278 -40.6978144980321730 0 0 0
17        0    2   -0.0094320000000000  -41.2794884344735351  14.4176983504042546 -41.5413123231680075 0 0 0
18        0    4    0.4025730000000000  -40.6677264898502031  17.0347369737490411 -42.3583809920889962 0 0 0
19        1    8   -0.6441380000000000   28.8048056485951918  26.8929758586159124  19.5881192407173081 0 0 0
20        1    5    0.2468840000000000   28.9152119185364462  26.6897951180505650  18.1717645952908953 0 0 0
21        1    6    0.3045890000000000   29.2629210286981447  28.0054899479734516  17.4737335726817697 0 0 0
22        1    7   -0.6563480000000000   28.1659772399271660  28.9771783150474995  17.6118053115341908 0 0 0
23        1    6    0.3045890000000000   28.5028274068168308  30.2837391919930639  17.0187957060456796 0 0 0
24        1    5    0.2468840000000000   28.6072378484174408  30.2249637321858984  15.4875275530074177 0 0 0
25        1    8   -0.6441380000000000   27.3869423736315447  29.7372290677990634  14.9340042877578600 0 0 0
26        1    4    0.4025730000000000   28.5233119566356734  26.0409434828303290  19.9682642673849990 0 0 0
27        1    2   -0.0094320000000000   27.9661061280785574  26.2855685790717857  17.8040060390280246 0 0 0
28        1    2   -0.0094320000000000   29.7033961293657711  25.9523521377490169  17.9969320185115080 0 0 0
29        1    1   -0.0517540000000000   29.4433852429410834  27.7809637886083323  16.4171978663573555 0 0 0
30        1    1   -0.0517540000000000   30.1776011486156683  28.4160152842998706  17.9124785393329660 0 0 0
31        1    3    0.2812760000000000   28.0139221925862145  29.1014808344021709  18.6187256934215632 0 0 0
32        1    1   -0.0517540000000000   29.4211810565613092  30.6914574563776199  17.4547510444557581 0 0 0
33        1    1   -0.0517540000000000   27.6855041021961803  30.9682238757551147  17.2764500060663480 0 0 0
34        1    2   -0.0094320000000000   29.4169796446916187  29.5664824591672932  15.1595928697998303 0 0 0
35        1    2   -0.0094320000000000   28.8014399253743818  31.2193231474296695  15.0764335313752831 0 0 0
36        1    4    0.4025730000000000   27.0845511632918523  29.0491198776043866  15.5593991502079216 0 0 0
37        2    8   -0.6441380000000000  -26.0841372754022878  7.2219928848487420   40.2225561484776506 0 0 0
38        2    5    0.2468840000000000  -26.6521062767468990  6.1328733464158063   40.9646897509477483 0 0 0
39        2    6    0.3045890000000000  -27.7671767726384751  5.4666300193522419   40.1572620838249392 0 0 0
40        2    7   -0.6563480000000000  -28.8947251854953571  6.3918376337957987   39.9593903821099659 0 0 0
41        2    6    0.3045890000000000  -29.9522732815532606  5.8069121586378598   39.1157767470046807 0 0 0
42        2    5    0.2468840000000000  -30.6846069407705180  4.6488032912577530   39.8097576648785179 0 0 0
43        2    8   -0.6441380000000000  -31.2365358532560187  5.0928124269209096   41.0473458503466233 0 0 0
44        2    4    0.4025730000000000  -25.4279604319343839  7.6424483180724376   40.8076692042789873 0 0 0
45        2    2   -0.0094320000000000  -27.0304586192325900  6.5211535291111629   41.9162859135407118 0 0 0
46        2    2   -0.0094320000000000  -25.8555044264028950  5.4125394192438661   41.1700369074743264 0 0 0
47        2    1   -0.0517540000000000  -28.0929936348296039  4.5809327782331630   40.7128075787990014 0 0 0
48        2    1   -0.0517540000000000  -27.3716675192496126  5.1531212866647937   39.1862046064774248 0 0 0
49        2    3    0.2812760000000000  -28.5126611379189647  7.2169533450669636   39.4843412943695427 0 0 0
50        2    1   -0.0517540000000000  -29.5545480128565501  5.4886863356551210   38.1461316560424777 0 0 0
51        2    1   -0.0517540000000000  -30.6818958522748062  6.6033941788283652   38.9255408389669739 0 0 0
52        2    2   -0.0094320000000000  -30.0143965194546070  3.8094766711950792   40.0175299826056730 0 0 0
53        2    2   -0.0094320000000000  -31.4979261271689523  4.2759257627823937   39.1813170250450469 0 0 0
54        2    4    0.4025730000000000  -30.5717282877753824  5.7101670449097099   41.4119793817553870 0 0 0
55        3    8   -0.6441380000000000   41.2000339811366203 -41.0719653579593640 -37.5146211873429252 0 0 0
56        3    5    0.2468840000000000   40.8800120271003777 -39.7884375084206425 -38.0711053720178754 0 0 0
57        3    6    0.3045890000000000   39.9022824981970601 -39.9456495055971388 -39.2366658275731695 0 0 0
58        3    7   -0.6563480000000000   40.5297278120513198 -40.6732120688704057 -40.3517859368643386 0 0 0
59        3    6    0.3045890000000000   39.5876504424489823 -40.9119670819502375 -41.4598094139226419 0 0 0
60        3    5    0.2468840000000000   39.1916538912763741 -39.6167388142410459 -42.1841772193132627 0 0 0
61        3    8   -0.6441380000000000   40.3571807277787826 -38.9529892525655512 -42.6683030981591287 0 0 0
62        3    4    0.4025730000000000   41.8682671432582794 -40.9143247797409160 -36.8230129178436059 0 0 0
63        3    2   -0.0094320000000000   41.8096741566761239 -39.3094985915195707 -38.3963638703085550 0 0 0
64        3    2   -0.0094320000000000   40.4285511015190338 -39.1812846926978864 -37.2816932994390768 0 0 0
65        3    1   -0.0517540000000000   39.6045798589468205 -38.9411921347452434 -39.5555475553732023 0 0 0
66        3    1   -0.0517540000000000   39.0160244386223027 -40.4883147791097286 -38.8935492700270373 0 0 0
67        3    3    0.2812760000000000   40.8309538698672512 -41.5783299732279872 -39.9743141491715406 0 0 0
68        3    1   -0.0517540000000000   38.6986199172697027 -41.4505415251036240 -41.1145168413389115 0 0 0
69        3    1   -0.0517540000000000   40.1036501693064551 -41.5585208289364800 -42.1799725475535325 0 0 0
70        3    2   -0.0094320000000000   38.6572368198909260 -38.9277682584188227 -41.5234666268283092 0 0 0
71        3    2   -0.0094320000000000   38.5388214295412439 -39.8348902392109423 -43.0336965661726794 0 0 0
72        3    4    0.4025730000000000   41.0317027320580223 -39.0909976246301056 -41.9740213176958790 0 0 0
73        4    8   -0.6441380000000000   19.9043646429211663  39.4525178927106026 -16.1569902048902421 0 0 0
74        4    5    0.2468840000000000   18.7029133866590804  38.7082626559858483 -16.4062520367740028 0 0 0
75        4    6    0.3045890000000000   17.8134423240216790  39.4563245127436417 -17.4004585075308462 0 0 0
76        4    7   -0.6563480000000000   17.3364621015488929  40.7243269702932267 -16.8249696731317719 0 0 0
77        4    6    0.3045890000000000   16.5418789019363395  41.5077060433685787 -17.7878738838718959 0 0 0
78        4    5    0.2468840000000000   15.1943297755594742  40.8465317039951543 -18.1136009113888647 0 0 0
79        4    8   -0.6441380000000000   14.4484628483262849  40.6437435291606022 -16.9152880821130545 0 0 0
80        4    4    0.4025730000000000   20.3975505391564802  38.9606809254648141 -15.4753948860205846 0 0 0
81        4    2   -0.0094320000000000   18.1868096110777948  38.5526957407430828 -15.4528984404034944 0 0 0
82        4    2   -0.0094320000000000   18.9874505768030062  37.7350625841588112 -16.8155723721115322 0 0 0
83        4    1   -0.0517540000000000   16.9673142273350344  38.8043523090434945 -17.6418016599089533 0 0 0
84        4    1   -0.0517540000000000   18.3819504330277894  39.6558933380700438 -18.3140441539002268 0 0 0
85        4    3    0.2812760000000000   18.1735192931270113  41.2616849778401757 -16.5738877364009198 0 0 0
86        4    1   -0.0517540000000000   17.1097408316794386  41.7025396730767994 -18.7039728696169831 0 0 0
87        4    1   -0.0517540000000000   16.3383729175693873  42.4765850097395514 -17.3158767782125977 0 0 0
88        4    2   -0.0094320000000000   15.3243329540962687  39.8762719156320813 -18.6019815382118168 0 0 0
89        4    2   -0.0094320000000000   14.6071756118552010  41.4794057303848192 -18.7845583189536569 0 0 0
90        4    4    0.4025730000000000   15.1139103162763710  40.3920375045343576 -16.2445592395353096 0 0 0
91        5    8   -0.6441380000000000   6.8757451695483685   6.3772630621183950  -31.3324970517968282 0 0 0
92        5    5    0.2468840000000000   7.3881331003362893   5.7896543920180124  -30.1276289683097822 0 0 0
93        5    6    0.3045890000000000   6.2409172739510241   5.2481683132431041  -29.2732926800226991 0 0 0
94        5    7   -0.6563480000000000   5.3790530270656847   6.3432231439487268  -28.7994016575407059 0 0 0
95        5    6    0.3045890000000000   4.2175331508148357   5.8474114823698038  -28.0396173949920886 0 0 0
96        5    5    0.2468840000000000   4.6172900862322326   5.2289183232600713  -26.6917305836388010 0 0 0
97        5    8   -0.6441380000000000   5.3398565194716179   6.1807406582063784  -25.9137034979579255 0 0 0
98        5    4    0.4025730000000000   7.6409311342136412   6.7565180585874467  -31.8019267019389247 0 0 0
99        5    2   -0.0094320000000000   7.9597204656168579   6.5508104346577944  -29.5859864528029632 0 0 0
100       5    2   -0.0094320000000000   8.0628522308764570   4.9765164886194100  -30.4090250845580776 0 0 0
101       5    1   -0.0517540000000000   6.6838749103845947   4.7163257343316225  -28.4246590540203101 0 0 0
102       5    1   -0.0517540000000000   5.6503163090973949   4.5435725867851477  -29.8669283274287238 0 0 0
103       5    3    0.2812760000000000   5.0416818860492407   6.8298210644893738  -29.6371747092287912 0 0 0
104       5    1   -0.0517540000000000   3.6299229433663798   5.1383668981556916  -28.6326053273305412 0 0 0
105       5    1   -0.0517540000000000   3.5778854406052996   6.7151471793014679  -27.8376075635624822 0 0 0
106       5    2   -0.0094320000000000   5.2487540513431750   4.3449203541520669  -26.8206544812656382 0 0 0
107       5    2   -0.0094320000000000   3.7302883514689422   4.9236839768714624  -26.1300159725491241 0 0 0
108       5    4    0.4025730000000000   5.8919043805501472   6.6655982798762077  -26.5588466460167929 0 0 0
109       6    8   -0.6441380000000000  -29.4752419305271154 -25.7991071624507384 -39.9994839888251619 0 0 0
110       6    5    0.2468840000000000  -30.0990608813856397 -27.0102072657427925 -40.4507254937377283 0 0 0
111       6    6    0.3045890000000000  -29.4225204020933724 -28.2240195631212387 -39.8118557840849334 0 0 0
112       6    7   -0.6563480000000000  -28.0287344932936229 -28.3472353846413334 -40.2686998113616141 0 0 0
113       6    6    0.3045890000000000  -27.3239813731649868 -29.4610173155065382 -39.6091222174068776 0 0 0
114       6    5    0.2468840000000000  -27.8613361533584367 -30.8339573846437851 -40.0397306918481490 0 0 0
115       6    8   -0.6441380000000000  -27.7721623626411365 -30.9699701241091319 -41.4563967511409714 0 0 0
116       6    4    0.4025730000000000  -29.9043454908283728 -25.0703617169508490 -40.4837445793133313 0 0 0
117       6    2   -0.0094320000000000  -30.0318462495464900 -27.0491791445162058 -41.5431588500261526 0 0 0
118       6    2   -0.0094320000000000  -31.1535814342023656 -26.9739576412007125 -40.1638539236795538 0 0 0
119       6    1   -0.0517540000000000  -29.9978033437959084 -29.1109580215681767 -40.0975772140019657 0 0 0
120       6    1   -0.0517540000000000  -29.4464746540999371 -28.1188587024896002 -38.7228033030253442 0 0 0
121       6    3    0.2812760000000000  -27.5629419301750929 -27.4680769548107513 -40.0185433551161722 0 0 0
122       6    1   -0.0517540000000000  -27.3529060409033633 -29.3577276598969235 -38.5190950265348846 0 0 0
123       6    1   -0.0517540000000000  -26.2732052058775238 -29.3969435623247470 -39.9168337792856533 0 0 0
124       6    2   -0.0094320000000000  -28.9072442263494018 -30.9710744809091274 -39.7497380630382153 0 0 0
125       6    2   -0.0094320000000000  -27.2810253282292194 -31.6368821597610612 -39.5771136366710721 0 0 0
126       6    4    0.4025730000000000  -27.9888906544892002 -30.0837679103174551 -41.8081465478478904 0 0 0
127       7    8   -0.6441380000000000   15.1585472331221212  39.1647949626587675 -38.1765872728410045 0 0 0
128       7    5    0.2468840000000000   15.1121685873235023  39.8824476226758335 -39.4185035824948926 0 0 0
129       7    6    0.3045890000000000   16.3984622832248661  39.6499758462892302 -40.2126113965655421 0 0 0
130       7    7   -0.6563480000000000   17.5580234855653146  40.2235599173014435 -39.5105096268712686 0 0 0
131       7    6    0.3045890000000000   18.8248785311768749  39.9460010811527440 -40.2107018420410043 0 0 0
132       7    5    0.2468840000000000   18.9338459148482556  40.6943077665798896 -41.5476017879385395 0 0 0
133       7    8   -0.6441380000000000   18.7906522701319787  42.0969464978451029 -41.3343078042737631 0 0 0
134       7    4    0.4025730000000000   14.3464579120902389  39.3992940841534960 -37.6915829367942266 0 0 0
135       7    2   -0.0094320000000000   14.9689693242837123  40.9459753815735326 -39.1997573159692649 0 0 0
136       7    2   -0.0094320000000000   14.2502487283152046  39.5203993479511908 -39.9856350775787064 0 0 0
137       7    1   -0.0517540000000000   16.2721504746338468  40.1239776561438504 -41.1917000742985664 0 0 0
138       7    1   -0.0517540000000000   16.5464102152509014  38.5747973914528188 -40.3532194296391395 0 0 0
139       7    3    0.2812760000000000   17.5872321816712223  39.7778073507652437 -38.5869772718895021 0 0 0
140       7    1   -0.0517540000000000   18.9696625404558965  38.8700351394830861 -40.3556140541696919 0 0 0
141       7    1   -0.0517540000000000   19.6315380049221417  40.3004078507392762 -39.5575412645500961 0 0 0
142       7    2   -0.0094320000000000   18.1626498998913242  40.3771749966867404 -42.2557712823213905 0 0 0
143       7    2   -0.0094320000000000   19.9063555466188120  40.5118374412512452 -42.0127823813514141 0 0 0
144       7    4    0.4025730000000000   18.1117281594504718  42.1768826822421659 -40.6352186153576653 0 0 0
145       8    8   -0.6441380000000000   38.2770987203634760 -18.1077553989166304 -26.5101704705045549 0 0 0
146       8    5    0.2468840000000000   38.1696234412653865 -17.2062405870063486 -27.6215896298180752 0 0 0
147       8    6    0.3045890000000000   39.2485560664664490 -17.5157020655157858 -28.6605024283221184 0 0 0
148       8    7   -0.6563480000000000   40.5905460328196313 -17.2539938949864542 -28.1154340590457785 0 0 0
149       8    6    0.3045890000000000   41.6570606617625216 -17.6189803245506091 -29.0649398277406377 0 0 0
150       8    5    0.2468840000000000   41.6909548647985986 -16.6977597642040188 -30.2934926811805028 0 0 0
151       8    8   -0.6441380000000000   41.8465685000041319 -15.3414368106131143 -29.8817080337000860 0 0 0
152       8    4    0.4025730000000000   37.6096594911207234 -17.8243348548872689 -25.8590899994489867 0 0 0
153       8    2   -0.0094320000000000   38.2630318677523249 -16.1811883902813101 -27.2474371049697091 0 0 0
154       8    2   -0.0094320000000000   37.1769202534962986 -17.3310186982678722 -28.0627174267693391 0 0 0
155       8    1   -0.0517540000000000   39.0597214067764327 -16.8799183747761674 -29.5319194338305344 0 0 0
156       8    1   -0.0517540000000000   39.1699150457632967 -18.5651273674169701 -28.9608190027771215 0 0 0
157       8    3    0.2812760000000000   40.6816968894799800 -17.8378751793006423 -27.2768431716890873 0 0 0
158       8    1   -0.0517540000000000   41.5745256953145983 -18.6679874771929342 -29.3689737719289319 0 0 0
159       8    1   -0.0517540000000000   42.6083246103912074 -17.5062262251785512 -28.5307995671216048 0 0 0
160       8    2   -0.0094320000000000   40.7723356823915850 -16.7712887471495939 -30.8830287753943118 0 0 0
161       8    2   -0.0094320000000000   42.5267737291385970 -16.9594726004243377 -30.9479975362968851 0 0 0
162       8    4    0.4025730000000000   41.3133100578404253 -15.2636745323081655 -29.0658392344229206 0 0 0
163       9    8   -0.6441380000000000  -6.9312433651361918  -28.1263454343919364 -3.0594786562703415  0 0 0
164       9    5    0.2468840000000000  -6.3644257521110061  -29.2772820806277494 -3.7025922304669239  0 0 0
165       9    6    0.3045890000000000  -5.4616817884412567  -28.8463166321006028 -4.8595381831948945  0 0 0
166       9    7   -0.6563480000000000  -6.2458876660624778  -28.1931870722127726 -5.9201845347207254  0 0 0
167       9    6    0.3045890000000000  -5.3937340108713592  -27.6937045393065695 -7.0140680292328312  0 0 0
168       9    5    0.2468840000000000  -4.7532805228553752  -28.8294867365691836 -7.8258293128436236  0 0 0
169       9    8   -0.6441380000000000  -5.7661258346750817  -29.6867273657620139 -8.3480141764560507  0 0 0
170       9    4    0.4025730000000000  -7.5398471753025804  -28.4630821987904525 -2.3768968933632353  0 0 0
171       9    2   -0.0094320000000000  -7.1815615149494505  -29.9157031370865099 -4.0549485157244973  0 0 0
172       9    2   -0.0094320000000000  -5.7832055250665650  -29.8280566121860744 -2.9579759585784466  0 0 0
173       9    1   -0.0517540000000000  -4.9697032002519617  -29.7448195252885199 -5.2467030670573083  0 0 0
174       9    1   -0.0517540000000000  -4.6997911062655051  -28.1557990260488715 -4.4848704057621838  0 0 0
175       9    3    0.2812760000000000  -6.7197971710276523  -27.3961982653911313 -5.4812322228408803  0 0 0
176       9    1   -0.0517540000000000  -4.6282489488790572  -27.0067496073758093 -6.6375176241571570  0 0 0
177       9    1   -0.0517540000000000  -6.0449239914050628  -27.1222800321287352 -7.6866362761409750  0 0 0
178       9    2   -0.0094320000000000  -4.0764464358414525  -29.4346632653681617 -7.2155199587887591  0 0 0
179       9    2   -0.0094320000000000  -4.1751142300410207  -28.4266074786335814 -8.6618170097498464  0 0 0
180       9    4    0.4025730000000000  -6.4416421918092421  -29.7362931456924997 -7.6428373756436034  0 0 0
181       10   8   -0.6441380000000000   27.9336167718586843  14.5561755087791749  16.0262842361245852 0 0 0
182       10   5    0.2468840000000000   27.4069514876900797  15.3752866028241062  17.0804251818543946 0 0 0
183       10   6    0.3045890000000000   27.8578797937500298  16.8255091521785687  16.8995383679685816 0 0 0
184       10   7   -0.6563480000000000   29.3173873848475743  16.9425591140344949  17.0500862389537211 0 0 0
185       10   6    0.3045890000000000   29.7935265724417242  18.3150818916740619  16.8016864579599599 0 0 0
186       10   5    0.2468840000000000   29.3398755813676253  19.3005117973537992  17.8890074458883106 0 0 0
187       10   8   -0.6441380000000000   29.7838623967412701  18.8533675308475956  19.1681993261412309 0 0 0
188       10   4    0.4025730000000000   27.6664885375585641  13.6409327429988370  16.2279802832510924 0 0 0
189       10   2   -0.0094320000000000   27.7499645379052424  14.9708767967132612  18.0386746316864759 0 0 0
190       10   2   -0.0094320000000000   26.3158852978638649  15.3139149080686643  17.0425964388019615 0 0 0
191       10   1   -0.0517540000000000   27.3463079006974041  17.4272987707903830  17.6580833440705831 0 0 0
192       10   1   -0.0517540000000000   27.5596780744887724  17.1749050881377201  15.9062276744467255 0 0 0
193       10   3    0.2812760000000000   29.7320098532918244  16.3179467696733020  16.3497947731105384 0 0 0
194       10   1   -0.0517540000000000   29.4902124178983200  18.6658734256373435  15.8094110478276146 0 0 0
195       10   1   -0.0517540000000000   30.8895596672141188  18.2769761547024245  16.8151702583704115 0 0 0
196       10   2   -0.0094320000000000   28.2507061841658569  19.3978277304056199  17.9215674424086515 0 0 0
197       10   2   -0.0094320000000000   29.7562287459484658  20.2947173714577360  17.7055171007357863 0 0 0
198       10   4    0.4025730000000000   29.6931609492316149  17.8802199366995893  19.1397310433760310 0 0 0
199       11   8   -0.6441380000000000  -19.7922517246037408 -28.3508359220340473  7.1568169365111132  0 0 0
200       11   5    0.2468840000000000  -19.0968639982790691 -29.4484693142698362  6.5475802946994293  0 0 0
201       11   6    0.3045890000000000  -17.6061935507235674 -29.1286540105923102  6.4258362697194009  0 0 0
202       11   7   -0.6563480000000000  -17.3855375687792026 -28.0063093926297206  5.4994555382366253  0 0 0
203       11   6    0.3045890000000000  -15.9651690612838237 -27.6206143429130009  5.4218515187571743  0 0 0
204       11   5    0.2468840000000000  -15.1010964922816608 -28.6930604573767418  4.7418690347404198  0 0 0
205       11   8   -0.6441380000000000  -15.6043890373313534 -28.9691950853980309  3.4365566448869593  0 0 0
206       11   4    0.4025730000000000  -20.7380636673775065 -28.5855956059322658  7.1508362156077849  0 0 0
207       11   2   -0.0094320000000000  -19.5421064651610799 -29.6392585791728038  5.5653349821208380  0 0 0
208       11   2   -0.0094320000000000  -19.2413204506098054 -30.3307799420988289  7.1770905954094388  0 0 0
209       11   1   -0.0517540000000000  -17.1039831620258980 -30.0303174347976913  6.0597286044973337  0 0 0
210       11   1   -0.0517540000000000  -17.2095311327777871 -28.8756578097565182  7.4139252170576837  0 0 0
211       11   3    0.2812760000000000  -17.9223720992548898 -27.2146131070596695  5.8702468373571870  0 0 0
212       11   1   -0.0517540000000000  -15.5675991203071860 -27.3725888044604844  6.4118445189885795  0 0 0
213       11   1   -0.0517540000000000  -15.9174316954131072 -26.7103915655469777  4.8118203356494407  0 0 0
214       11   2   -0.0094320000000000  -15.0928041763385234 -29.6288233566673860  5.3085255036944829  0 0 0
215       11   2   -0.0094320000000000  -14.0663256634687315 -28.3521930413392163  4.6495536810785634  0 0 0
216       11   4    0.4025730000000000  -16.5769422269598223 -28.9259443829156631  3.5277877019797685  0 0 0
217       12   8   -0.6441380000000000  -27.1447097931135843  27.9749937583031461  3.2623199470247393  0 0 0
218       12   5    0.2468840000000000  -27.0818527984474642  27.5622240047242428  4.6353467377873860  0 0 0
219       12   6    0.3045890000000000  -28.4091017821501950  27.8539578768069518  5.3371325330552173  0 0 0
220       12   7   -0.6563480000000000  -28.6554032248184996  29.3033018644997085  5.4096953897957745  0 0 0
221       12   6    0.3045890000000000  -29.9653253419320009  29.6152160183904520  6.0088976594839876  0 0 0
222       12   5    0.2468840000000000  -30.0263940262913813  29.2657140756069190  7.5033063249035639  0 0 0
223       12   8   -0.6441380000000000  -28.9919363183939325  29.9501533877969806  8.2067508730382084  0 0 0
224       12   4    0.4025730000000000  -26.2583055381677148  27.8224443385912004  2.8871875961678573  0 0 0
225       12   2   -0.0094320000000000  -26.2538103756481256  28.0910078469785702  5.1192688867073954  0 0 0
226       12   2   -0.0094320000000000  -26.8742633303361771  26.4888637242795433  4.6560167739007206  0 0 0
227       12   1   -0.0517540000000000  -28.3515905932447119  27.4255889179669872  6.3433330726361872  0 0 0
228       12   1   -0.0517540000000000  -29.2218394294761019  27.3680566827282021  4.7884746564945990  0 0 0
229       12   3    0.2812760000000000  -28.6443776952842590  29.6478951370678061  4.4434684892184402  0 0 0
230       12   1   -0.0517540000000000  -30.7777039975536866  29.1243437765726476  5.4623173558660572  0 0 0
231       12   1   -0.0517540000000000  -30.1095377904429036  30.6977945465851754  5.9081558861908379  0 0 0
232       12   2   -0.0094320000000000  -29.9029114357216024  28.1924942212047966  7.6758511421056124  0 0 0
233       12   2   -0.0094320000000000  -30.9892376077207885  29.5612924908687553  7.9287813842566361  0 0 0
234       12   4    0.4025730000000000  -28.2250010762180565  29.9379594859889409  7.6003557223589446  0 0 0
235       13   8   -0.6441380000000000  -14.2754180074630650  39.8351511469679096 -6.2336559605863870  0 0 0
236       13   5    0.2468840000000000  -15.1299859183909025  40.9129297843226070 -5.8242181339578512  0 0 0
237       13   6    0.3045890000000000  -16.4360026742917071  40.3635119432669143 -5.2483170239258889  0 0 0
238       13   7   -0.6563480000000000  -17.2124470098837321  39.6648520071468766 -6.2853976624915626  0 0 0
239       13   6    0.3045890000000000  -18.4394911814074725  39.0537450467265828 -5.7439730265952162  0 0 0
240       13   5    0.2468840000000000  -19.4739090163318380  40.1011732108245766 -5.3057810192004355  0 0 0
241       13   8   -0.6441380000000000  -19.7959689119571394  40.9560988963336143 -6.4006662413523827  0 0 0
242       13   4    0.4025730000000000  -13.4926966353183708  40.2444194608430266 -6.6454262972374760  0 0 0
243       13   2   -0.0094320000000000  -15.3189754974601442  41.5547383450418337 -6.6912890436248471  0 0 0
244       13   2   -0.0094320000000000  -14.5999645440994943  41.4941663600905315 -5.0647022914082660  0 0 0
245       13   1   -0.0517540000000000  -17.0045059754384091  41.2114472688368068 -4.8520132164297038  0 0 0
246       13   1   -0.0517540000000000  -16.2075517350350893  39.6735593637739683 -4.4301217381268252  0 0 0
247       13   3    0.2812760000000000  -16.6066456028905769  38.9211931494826686 -6.6493161532318101  0 0 0
248       13   1   -0.0517540000000000  -18.2104030103704453  38.3673426977706740 -4.9217594950605399  0 0 0
249       13   1   -0.0517540000000000  -18.8809278490073922  38.4599296190201301 -6.5535650912895838  0 0 0
250       13   2   -0.0094320000000000  -19.1016667819843597  40.7230542044021533 -4.4863176162378702  0 0 0
251       13   2   -0.0094320000000000  -20.3918157336100059  39.6158783327282507 -4.9631448744796902  0 0 0
252       13   4    0.4025730000000000  -18.9516052080365753  41.0834321793665751 -6.8769955457559551  0 0 0
253       14   8   -0.6441380000000000   26.8818350161495481  4.1056142122407397   38.3755793671223131 0 0 0
254       14   5    0.2468840000000000   26.9199432015464879  5.4821937572911779   38.7794468723198733 0 0 0
255       14   6    0.3045890000000000   28.3224135388907570  5.8531349137030455   39.2638861674325739 0 0 0
256       14   7   -0.6563480000000000   28.6668792131795520  5.1111399780911064   40.4875342697328122 0 0 0
257       14   6    0.3045890000000000   30.0439352389846412  5.3859961287242459   40.9351954703667644 0 0 0
258       14   5    0.2468840000000000   30.2204735429379703  6.8242312049682265   41.4445601179412932 0 0 0
259       14   8   -0.6441380000000000   29.3016171452473166  7.0824795575648984   42.5039962238976941 0 0 0
260       14   4    0.4025730000000000   25.9565653140866885  3.9130108185071402   38.1379072811155453 0 0 0
261       14   2   -0.0094320000000000   26.1758853505691533  5.6331409040448372   39.5687757804981572 0 0 0
262       14   2   -0.0094320000000000   26.6467007084599317  6.0950048964513153   37.9160674788936234 0 0 0
263       14   1   -0.0517540000000000   28.3308872990007572  6.9312293819053394   39.4559474613499148 0 0 0
264       14   1   -0.0517540000000000   29.0480256343350973  5.6252606708039696   38.4769755399353528 0 0 0
265       14   3    0.2812760000000000   28.5886271930317690  4.1151853897648216   40.2542713525458069 0 0 0
266       14   1   -0.0517540000000000   30.7690638465245705  5.1625917960351879   40.1452944177893087 0 0 0
267       14   1   -0.0517540000000000   30.2473858588285083  4.7038796596422783   41.7696098594998233 0 0 0
268       14   2   -0.0094320000000000   30.0448659933708377  7.5603998633012068   40.6545992233248086 0 0 0
269       14   2   -0.0094320000000000   31.2355342391450073  6.9775043976506854   41.8208877669662016 0 0 0
270       14   4    0.4025730000000000   28.4826638206724461  6.6146629003019743   42.2460883662137689 0 0 0
271       15   8   -0.6441380000000000   3.9444956883238445   3.4534133352704597  -17.8876437983801608 0 0 0