
                                 *****************
                                 * O   R   C   A *
                                 *****************

           --- An Ab Initio, DFT and Semiempirical electronic structure package ---

                  #######################################################
                  #                        -***-                        #
                  #          Department of theory and spectroscopy      #
                  #               Directorship: Frank Neese             #
                  #        Max Planck Institute fuer Kohlenforschung    #
                  #                Kaiser Wilhelm Platz 1               #
                  #                 D-45470 Muelheim/Ruhr               #
                  #                      Germany                        #
                  #                                                     #
                  #                  All rights reserved                #
                  #                        -***-                        #
                  #######################################################


                         Program Version 4.1.2  - RELEASE  -


 With contributions from (in alphabetic order):
   Daniel Aravena         : Magnetic Properties
   Michael Atanasov       : Ab Initio Ligand Field Theory
   Alexander A. Auer      : GIAO ZORA
   Ute Becker             : Parallelization
   Giovanni Bistoni       : ED, Open-shell LED
   Martin Brehm           : Molecular dynamics
   Dmytro Bykov           : SCF Hessian
   Vijay G. Chilkuri      : MRCI spin determinant printing
   Dipayan Datta          : RHF DLPNO-CCSD density
   Achintya Kumar Dutta   : EOM-CC, STEOM-CC
   Dmitry Ganyushin       : Spin-Orbit,Spin-Spin,Magnetic field MRCI
   Miquel Garcia          : C-PCM Hessian
   Yang Guo               : DLPNO-NEVPT2, CIM, IAO-localization
   Andreas Hansen         : Spin unrestricted coupled pair/coupled cluster methods
   Benjamin Helmich-Paris : CASSCF linear response (MC-RPA)
   Lee Huntington         : MR-EOM, pCC
   Robert Izsak           : Overlap fitted RIJCOSX, COSX-SCS-MP3, EOM
   Christian Kollmar      : KDIIS, OOCD, Brueckner-CCSD(T), CCSD density
   Simone Kossmann        : Meta GGA functionals, TD-DFT gradient, OOMP2, MP2 Hessian
   Martin Krupicka        : AUTO-CI
   Lucas Lang             : DCDCAS
   Dagmar Lenk            : GEPOL surface, SMD
   Dimitrios Liakos       : Extrapolation schemes; parallel MDCI
   Dimitrios Manganas     : ROCIS; embedding schemes
   Dimitrios Pantazis     : SARC Basis sets
   Taras Petrenko         : DFT Hessian,TD-DFT gradient, ASA, ECA, R-Raman, ABS, FL, XAS/XES, NRVS
   Peter Pinski           : DLPNO-MP2, DLPNO-MP2 Gradient
   Christoph Reimann      : Effective Core Potentials
   Marius Retegan         : Local ZFS, SOC
   Christoph Riplinger    : Optimizer, TS searches, QM/MM, DLPNO-CCSD(T), (RO)-DLPNO pert. Triples
   Tobias Risthaus        : Range-separated hybrids, TD-DFT gradient, RPA, STAB
   Michael Roemelt        : Restricted open shell CIS
   Masaaki Saitow         : Open-shell DLPNO
   Barbara Sandhoefer     : DKH picture change effects
   Avijit Sen             : IP-ROCIS
   Kantharuban Sivalingam : CASSCF convergence, NEVPT2, FIC-MRCI
   Bernardo de Souza      : ESD, SOC TD-DFT
   Georgi Stoychev        : AutoAux, RI-MP2 NMR
   Willem Van den Heuvel  : Paramagnetic NMR
   Boris Wezisla          : Elementary symmetry handling
   Frank Wennmohs         : Technical directorship


 We gratefully acknowledge several colleagues who have allowed us to
 interface, adapt or use parts of their codes:
   Stefan Grimme, W. Hujo, H. Kruse,             : VdW corrections, initial TS optimization,
                  C. Bannwarth                     DFT functionals, gCP, sTDA/sTD-DF
   Ed Valeev                                     : LibInt (2-el integral package), F12 methods
   Garnet Chan, S. Sharma, J. Yang, R. Olivares  : DMRG
   Ulf Ekstrom                                   : XCFun DFT Library
   Mihaly Kallay                                 : mrcc  (arbitrary order and MRCC methods)
   Andreas Klamt, Michael Diedenhofen            : otool_cosmo (COSMO solvation model)
   Jiri Pittner, Ondrej Demel                    : Mk-CCSD
   Frank Weinhold                                : gennbo (NPA and NBO analysis)
   Christopher J. Cramer and Donald G. Truhlar   : smd solvation model
   Lars Goerigk                                  : TD-DFT with DH, B97 family of functionals
   V. Asgeirsson, H. Jonsson                     : NEB implementation
   FAccTs GmbH                                   : IRC, NEB, NEB-TS, Multilevel


 Your calculation uses the libint2 library for the computation of 2-el integrals
 For citations please refer to: http://libint.valeyev.net

 This ORCA versions uses:
   CBLAS   interface :  Fast vector & matrix operations
   LAPACKE interface :  Fast linear algebra routines
   SCALAPACK package :  Parallel linear algebra routines


Your calculation utilizes the atom-pairwise dispersion correction
with the zero-damping scheme (D30)
Cite in your paper:
S.Grimme, J.Antony, S.Ehrlich and H.Krieg, J.Chem.Phys., 132, (2010), 154104 
   

XCFun DFT library Copyright 2009-2010 Ulf Ekstrom and contributors.
See http://admol.org/xcfun for more information. This is free soft-
ware; see the source code for copying conditions. There is ABSOLUTELY
NO WARRANTY; not even for MERCHANTABILITY or FITNESS FOR A PARTICULAR
PURPOSE. For details see the documentation. Scientific users of this 
library should cite U. Ekstrom, L. Visscher, R. Bast, A. J. Thorvald-
sen and K. Ruud; J.Chem.Theor.Comp. 2010, DOI: 10.1021/ct100117s
XCFun Version 0.99 
----- Orbital basis set information -----
Your calculation utilizes the basis: def2-TZVP
   F. Weigend and R. Ahlrichs, Phys. Chem. Chem. Phys. 7, 3297 (2005).

================================================================================
                                        WARNINGS
                       Please study these warnings very carefully!
================================================================================


INFO   : the flag for use of LIBINT has been found!

Your calculation utilizes the atom-pairwise dispersion correction
with the zero-damping scheme (D30)
Cite in your paper:
S.Grimme, J.Antony, S.Ehrlich and H.Krieg, J.Chem.Phys., 132, (2010), 154104 
   

XCFun DFT library Copyright 2009-2010 Ulf Ekstrom and contributors.
See http://admol.org/xcfun for more information. This is free soft-
ware; see the source code for copying conditions. There is ABSOLUTELY
NO WARRANTY; not even for MERCHANTABILITY or FITNESS FOR A PARTICULAR
PURPOSE. For details see the documentation. Scientific users of this 
library should cite U. Ekstrom, L. Visscher, R. Bast, A. J. Thorvald-
sen and K. Ruud; J.Chem.Theor.Comp. 2010, DOI: 10.1021/ct100117s
XCFun Version 0.99 
----- Orbital basis set information -----
Your calculation utilizes the basis: def2-TZVP
   F. Weigend and R. Ahlrichs, Phys. Chem. Chem. Phys. 7, 3297 (2005).

================================================================================
                                        WARNINGS
                       Please study these warnings very carefully!
================================================================================


WARNING: MOInp is set but Guess=PModel. MOInp will be ignored!
         To read the initial guess from a file you must also specify
         'MORead' in the simple input or 'Guess MORead' in the %scf block


INFO   : the flag for use of LIBINT has been found!

Your calculation utilizes the atom-pairwise dispersion correction
with the zero-damping scheme (D30)
Cite in your paper:
S.Grimme, J.Antony, S.Ehrlich and H.Krieg, J.Chem.Phys., 132, (2010), 154104 
   

XCFun DFT library Copyright 2009-2010 Ulf Ekstrom and contributors.
See http://admol.org/xcfun for more information. This is free soft-
ware; see the source code for copying conditions. There is ABSOLUTELY
NO WARRANTY; not even for MERCHANTABILITY or FITNESS FOR A PARTICULAR
PURPOSE. For details see the documentation. Scientific users of this 
library should cite U. Ekstrom, L. Visscher, R. Bast, A. J. Thorvald-
sen and K. Ruud; J.Chem.Theor.Comp. 2010, DOI: 10.1021/ct100117s
XCFun Version 0.99 
----- Orbital basis set information -----
Your calculation utilizes the basis: def2-TZVP
   F. Weigend and R. Ahlrichs, Phys. Chem. Chem. Phys. 7, 3297 (2005).

================================================================================
                                        WARNINGS
                       Please study these warnings very carefully!
================================================================================


WARNING: MOInp is set but Guess=PModel. MOInp will be ignored!
         To read the initial guess from a file you must also specify
         'MORead' in the simple input or 'Guess MORead' in the %scf block


INFO   : the flag for use of LIBINT has been found!

================================================================================
                                       INPUT FILE
================================================================================
NAME = 13-71.in
|  1> #Run DFT-D3 single point of the dimer
|  2> ! wB97X-D3 def2-TZVP TIGHTSCF CHELPG PMODEL PAL8
|  3> 
|  4> %base "13-71_DFT_AB"
|  5> 
|  6> %scf
|  7> MaxIter 1000
|  8> end
|  9> 
| 10> * xyz 0 1
| 11>   C                      9.028161             -7.584521            4.100614            
| 12>   O                      8.192791             -6.828802            5.014434            
| 13>   H                      7.594326             -6.269406            4.519792            
| 14>   H                      8.513725             -7.939866            3.227101            
| 15>   H                      9.834166             -6.927564            3.751375            
| 16>   H                      9.510038             -8.408056            4.560258            
| 17>   C                      5.169243             -9.493771            5.503406            
| 18>   O                      3.942726             -9.233860            4.939729            
| 19>   H                      3.428846             -8.678624            5.570812            
| 20>   H                      5.209470             -9.584556            6.578923            
| 21>   H                      5.409796             -10.512706           5.172332            
| 22>   H                      5.951064             -8.839104            5.193346            
| 23> *
| 24> 
| 25> #Run DFT-D3 single point of the molecule with dimer basis set
| 26> $new_job
| 27> %base "13-71_DFT_A"
| 28> ! wB97X-D3 def2-TZVP TIGHTSCF CHELPG PMODEL
| 29> 
| 30> %scf
| 31> MaxIter 1000
| 32> end
| 33> 
| 34> * xyz 0 1
| 35>   C                      9.028161             -7.584521            4.100614            
| 36>   O                      8.192791             -6.828802            5.014434            
| 37>   H                      7.594326             -6.269406            4.519792            
| 38>   H                      8.513725             -7.939866            3.227101            
| 39>   H                      9.834166             -6.927564            3.751375            
| 40>   H                      9.510038             -8.408056            4.560258            
| 41>   C                    : 5.169243             -9.493771            5.503406            
| 42>   O                    : 3.942726             -9.233860            4.939729            
| 43>   H                    : 3.428846             -8.678624            5.570812            
| 44>   H                    : 5.209470             -9.584556            6.578923            
| 45>   H                    : 5.409796             -10.512706           5.172332            
| 46>   H                    : 5.951064             -8.839104            5.193346            
| 47> *
| 48> 
| 49> #Run DFT-D3 single point of the particle with dimer basis set
| 50> $new_job
| 51> %base "13-71_DFT_B"
| 52> ! wB97X-D3 def2-TZVP TIGHTSCF CHELPG PMODEL
| 53> 
| 54> %scf
| 55> MaxIter 1000
| 56> end
| 57> 
| 58> * xyz 0 1
| 59>   C                    : 9.028161             -7.584521            4.100614            
| 60>   O                    : 8.192791             -6.828802            5.014434            
| 61>   H                    : 7.594326             -6.269406            4.519792            
| 62>   H                    : 8.513725             -7.939866            3.227101            
| 63>   H                    : 9.834166             -6.927564            3.751375            
| 64>   H                    : 9.510038             -8.408056            4.560258            
| 65>   C                      5.169243             -9.493771            5.503406            
| 66>   O                      3.942726             -9.233860            4.939729            
| 67>   H                      3.428846             -8.678624            5.570812            
| 68>   H                      5.209470             -9.584556            6.578923            
| 69>   H                      5.409796             -10.512706           5.172332            
| 70>   H                      5.951064             -8.839104            5.193346            
| 71> *
| 72> 
| 73>                          ****END OF INPUT****
================================================================================


                 $$$$$$$$$$$$$$$$$$$$$$$$$$$$$$$$$$$$$$$$$$$$$$ 
                 $ THERE ARE  3 JOBS TO BE PROCESSED THIS RUN $
                 $$$$$$$$$$$$$$$$$$$$$$$$$$$$$$$$$$$$$$$$$$$$$$ 




                 $$$$$$$$$$$$$$$$  JOB NUMBER  1 $$$$$$$$$$$$$$


                       ****************************
                       * Single Point Calculation *
                       ****************************

---------------------------------
CARTESIAN COORDINATES (ANGSTROEM)
---------------------------------
  C      9.028161   -7.584521    4.100614
  O      8.192791   -6.828802    5.014434
  H      7.594326   -6.269406    4.519792
  H      8.513725   -7.939866    3.227101
  H      9.834166   -6.927564    3.751375
  H      9.510038   -8.408056    4.560258
  C      5.169243   -9.493771    5.503406
  O      3.942726   -9.233860    4.939729
  H      3.428846   -8.678624    5.570812
  H      5.209470   -9.584556    6.578923
  H      5.409796  -10.512706    5.172332
  H      5.951064   -8.839104    5.193346

----------------------------
CARTESIAN COORDINATES (A.U.)
----------------------------
  NO LB      ZA    FRAG     MASS         X           Y           Z
   0 C     6.0000    0    12.011   17.060752  -14.332668    7.749037
   1 O     8.0000    0    15.999   15.482131  -12.904566    9.475907
   2 H     1.0000    0     1.008   14.351196  -11.847460    8.541169
   3 H     1.0000    0     1.008   16.088609  -15.004172    6.098337
   4 H     1.0000    0     1.008   18.583880  -13.091199    7.089071
   5 H     1.0000    0     1.008   17.971367  -15.888923    8.617639
   6 C     6.0000    0    12.011    9.768454  -17.940627   10.399930
   7 O     8.0000    0    15.999    7.450672  -17.449467    9.334735
   8 H     1.0000    0     1.008    6.479580  -16.400223   10.527309
   9 H     1.0000    0     1.008    9.844472  -18.112186   12.432363
  10 H     1.0000    0     1.008   10.223033  -19.866135    9.774291
  11 H     1.0000    0     1.008   11.245881  -16.703486    9.814002

--------------------------------
INTERNAL COORDINATES (ANGSTROEM)
--------------------------------
 C      0   0   0     0.000000000000     0.00000000     0.00000000
 O      1   0   0     1.450524469377     0.00000000     0.00000000
 H      2   1   0     0.956950860392   109.82090972     0.00000000
 H      1   2   3     1.074215727073   114.13140036   320.77324157
 H      1   2   3     1.096906759481   108.16308639    79.63399083
 H      1   2   3     1.059097703751   113.18712248   196.32314133
 C      2   1   3     4.059925602280    99.36860073    92.18674694
 O      7   2   1     1.374637930343   119.40539278   251.40396334
 H      8   7   2     0.985203239431   108.01630452   273.88931037
 H      7   2   1     1.080091174412    98.47425365   123.46240618
 H      7   2   1     1.098045660940   114.18295888    15.75418849
 H      7   2   1     1.065819009274    10.09529064   316.49604604

---------------------------
INTERNAL COORDINATES (A.U.)
---------------------------
 C      0   0   0     0.000000000000     0.00000000     0.00000000
 O      1   0   0     2.741093997674     0.00000000     0.00000000
 H      2   1   0     1.808375049761   109.82090972     0.00000000
 H      1   2   3     2.029973532918   114.13140036   320.77324157
 H      1   2   3     2.072853369866   108.16308639    79.63399083
 H      1   2   3     2.001404609154   113.18712248   196.32314133
 C      2   1   3     7.672147512405    99.36860073    92.18674694
 O      7   2   1     2.597689221649   119.40539278   251.40396334
 H      8   7   2     1.861764308776   108.01630452   273.88931037
 H      7   2   1     2.041076519304    98.47425365   123.46240618
 H      7   2   1     2.075005581718   114.18295888    15.75418849
 H      7   2   1     2.014106035855    10.09529064   316.49604604

---------------------
BASIS SET INFORMATION
---------------------
There are 3 groups of distinct atoms

 Group   1 Type C   : 11s6p2d1f contracted to 5s3p2d1f pattern {62111/411/11/1}
 Group   2 Type O   : 11s6p2d1f contracted to 5s3p2d1f pattern {62111/411/11/1}
 Group   3 Type H   : 5s1p contracted to 3s1p pattern {311/1}

Atom   0C    basis set group =>   1
Atom   1O    basis set group =>   2
Atom   2H    basis set group =>   3
Atom   3H    basis set group =>   3
Atom   4H    basis set group =>   3
Atom   5H    basis set group =>   3
Atom   6C    basis set group =>   1
Atom   7O    basis set group =>   2
Atom   8H    basis set group =>   3
Atom   9H    basis set group =>   3
Atom  10H    basis set group =>   3
Atom  11H    basis set group =>   3


           ************************************************************
           *        Program running with 8 parallel MPI-processes     *
           *              working on a common directory               *
           ************************************************************
------------------------------------------------------------------------------
                           ORCA GTO INTEGRAL CALCULATION
------------------------------------------------------------------------------

                         BASIS SET STATISTICS AND STARTUP INFO

 # of primitive gaussian shells          ...  128
 # of primitive gaussian functions       ...  248
 # of contracted shells                  ...   76
 # of contracted basis functions         ...  172
 Highest angular momentum                ...    3
 Maximum contraction depth               ...    6
 Integral package used                   ... LIBINT
 Integral threshhold            Thresh   ...  2.500e-11
 Primitive cut-off              TCut     ...  2.500e-12


------------------------------ INTEGRAL EVALUATION ----------------------------


 * One electron integrals 
 Pre-screening matrix                    ... done
 Shell pair data                         ... done (   0.001 sec)



           ************************************************************
           *        Program running with 8 parallel MPI-processes     *
           *              working on a common directory               *
           ************************************************************
-------------------------------------------------------------------------------
                                 ORCA SCF
-------------------------------------------------------------------------------

------------
SCF SETTINGS
------------
Hamiltonian:
 Density Functional     Method          .... DFT(GTOs)
 Exchange Functional    Exchange        .... WB97X-D3
 Correlation Functional Correlation     .... WB97X-D3
 Gradients option       PostSCFGGA      .... off
 Hybrid DFT is turned on
   Fraction HF Exchange ScalHFX         ....  0.195728
   Scaling of DF-GGA-X  ScalDFX         ....  0.000000
   Scaling of DF-GGA-C  ScalDFC         ....  1.000000
   Scaling of DF-LDA-C  ScalLDAC        ....  1.000000
   Perturbative correction              ....  0.000000
   Density functional embedding theory  .... OFF
 Long-range corrected/Screened/Range-Separated Hybrid DFT is turned on
   Amount of maximum screened exact exchange              ....  0.804272
   Range separation parameter mu (erf(mu*r12)/r12)        ....  0.250000


General Settings:
 Integral files         IntName         .... 13-71_DFT_AB
 Hartree-Fock type      HFTyp           .... RHF
 Total Charge           Charge          ....    0
 Multiplicity           Mult            ....    1
 Number of Electrons    NEL             ....   36
 Basis Dimension        Dim             ....  172
 Nuclear Repulsion      ENuc            ....    117.6441133096 Eh

Convergence Acceleration:
 DIIS                   CNVDIIS         .... on
   Start iteration      DIISMaxIt       ....    12
   Startup error        DIISStart       ....  0.200000
   # of expansion vecs  DIISMaxEq       ....     5
   Bias factor          DIISBfac        ....   1.050
   Max. coefficient     DIISMaxC        ....  10.000
 Newton-Raphson         CNVNR           .... off
 SOSCF                  CNVSOSCF        .... on
   Start iteration      SOSCFMaxIt      ....   150
   Startup grad/error   SOSCFStart      ....  0.003300
 Level Shifting         CNVShift        .... on
   Level shift para.    LevelShift      ....    0.2500
   Turn off err/grad.   ShiftErr        ....    0.0010
 Zerner damping         CNVZerner       .... off
 Static damping         CNVDamp         .... on
   Fraction old density DampFac         ....    0.7000
   Max. Damping (<1)    DampMax         ....    0.9800
   Min. Damping (>=0)   DampMin         ....    0.0000
   Turn off err/grad.   DampErr         ....    0.1000
 Fernandez-Rico         CNVRico         .... off

SCF Procedure:
 Maximum # iterations   MaxIter         ....  1000
 SCF integral mode      SCFMode         .... Direct
   Integral package                     .... LIBINT
 Reset frequency        DirectResetFreq ....    20
 Integral Threshold     Thresh          ....  2.500e-11 Eh
 Primitive CutOff       TCut            ....  2.500e-12 Eh

Convergence Tolerance:
 Convergence Check Mode ConvCheckMode   .... Total+1el-Energy
 Convergence forced     ConvForced      .... 0
 Energy Change          TolE            ....  1.000e-08 Eh
 1-El. energy change                    ....  1.000e-05 Eh
 Orbital Gradient       TolG            ....  1.000e-05
 Orbital Rotation angle TolX            ....  1.000e-05
 DIIS Error             TolErr          ....  5.000e-07


Diagonalization of the overlap matrix:
Smallest eigenvalue                        ... 1.009e-03
Time for diagonalization                   ...    0.004 sec
Threshold for overlap eigenvalues          ... 1.000e-08
Number of eigenvalues below threshold      ... 0
Time for construction of square roots      ...    0.005 sec
Total time needed                          ...    0.010 sec

-------------------
DFT GRID GENERATION
-------------------

General Integration Accuracy     IntAcc      ...  4.340
Radial Grid Type                 RadialGrid  ... Gauss-Chebyshev
Angular Grid (max. acc.)         AngularGrid ... Lebedev-110
Angular grid pruning method      GridPruning ... 3 (G Style)
Weight generation scheme         WeightScheme... Becke
Basis function cutoff            BFCut       ...    1.0000e-11
Integration weight cutoff        WCut        ...    1.0000e-14
Grids for H and He will be reduced by one unit

# of grid points (after initial pruning)     ...  13096 (   0.0 sec)
# of grid points (after weights+screening)   ...  12522 (   0.0 sec)
nearest neighbour list constructed           ...    0.0 sec
Grid point re-assignment to atoms done       ...    0.0 sec
Grid point division into batches done        ...    0.0 sec
Reduced shell lists constructed in    0.0 sec

Total number of grid points                  ...    12522
Total number of batches                      ...      201
Average number of points per batch           ...       62
Average number of grid points per atom       ...     1044
Average number of shells per batch           ...    49.44 (65.06%)
Average number of basis functions per batch  ...   107.52 (62.51%)
Average number of large shells per batch     ...    40.59 (82.10%)
Average number of large basis fcns per batch ...    89.41 (83.16%)
Maximum spatial batch extension              ...  14.71, 14.44, 15.52 au
Average spatial batch extension              ...   0.36,  0.33,  0.34 au

Time for grid setup =    0.044 sec

------------------------------
INITIAL GUESS: MODEL POTENTIAL
------------------------------
Loading Hartree-Fock densities                     ... done
Calculating cut-offs                               ... done
Setting up the integral package                    ... done
Initializing the effective Hamiltonian             ... done
Starting the Coulomb interaction                   ... done (   0.0 sec)
Reading the grid                                   ... done
Mapping shells                                     ... done
Starting the XC term evaluation                    ... done (   0.0 sec)
  promolecular density results
     # of electrons  =     35.997671210
     EX              =    -28.870400516
     EC              =     -1.152029142
     EX+EC           =    -30.022429658
Transforming the Hamiltonian                       ... done (   0.0 sec)
Diagonalizing the Hamiltonian                      ... done (   0.0 sec)
Back transforming the eigenvectors                 ... done (   0.0 sec)
Now organizing SCF variables                       ... done
                      ------------------
                      INITIAL GUESS DONE (   0.2 sec)
                      ------------------
--------------
SCF ITERATIONS
--------------
ITER       Energy         Delta-E        Max-DP      RMS-DP      [F,P]     Damp
               ***  Starting incremental Fock matrix formation  ***
  0   -231.2925747890   0.000000000000 0.03652591  0.00106381  0.2393396 0.7000
  1   -231.3665972325  -0.074022443434 0.02151061  0.00076504  0.1191596 0.7000
                               ***Turning on DIIS***
  2   -231.4009887540  -0.034391521573 0.03002120  0.00139728  0.0458577 0.0000
  3   -231.4570530817  -0.056064327696 0.01757483  0.00049983  0.0593568 0.0000
  4   -231.4660272574  -0.008974175648 0.00413480  0.00009673  0.0060583 0.0000
                      *** Initiating the SOSCF procedure ***
                           *** Shutting down DIIS ***
                      *** Re-Reading the Fockian *** 
                      *** Removing any level shift *** 
ITER      Energy       Delta-E        Grad      Rot      Max-DP    RMS-DP
  5   -231.46621447  -0.0001872102  0.000424  0.000424  0.000712  0.000033
               *** Restarting incremental Fock matrix formation ***
  6   -231.46623132  -0.0000168506  0.000158  0.000167  0.000543  0.000020
  7   -231.46623284  -0.0000015180  0.000041  0.000100  0.000262  0.000009
  8   -231.46623295  -0.0000001126  0.000037  0.000027  0.000057  0.000001
  9   -231.46623298  -0.0000000350  0.000012  0.000008  0.000021  0.000001
 10   -231.46623299  -0.0000000030  0.000003  0.000003  0.000006  0.000000
                  ***Gradient check signals convergence***
              ***Rediagonalizing the Fockian in SOSCF/NRSCF***

               *****************************************************
               *                     SUCCESS                       *
               *           SCF CONVERGED AFTER  11 CYCLES          *
               *****************************************************

Setting up the final grid:

General Integration Accuracy     IntAcc      ...  4.670
Radial Grid Type                 RadialGrid  ... Gauss-Chebyshev
Angular Grid (max. acc.)         AngularGrid ... Lebedev-302
Angular grid pruning method      GridPruning ... 3 (G Style)
Weight generation scheme         WeightScheme... Becke
Basis function cutoff            BFCut       ...    1.0000e-11
Integration weight cutoff        WCut        ...    1.0000e-14
Grids for H and He will be reduced by one unit

# of grid points (after initial pruning)     ...  52000 (   0.0 sec)
# of grid points (after weights+screening)   ...  49419 (   0.0 sec)
nearest neighbour list constructed           ...    0.0 sec
Grid point re-assignment to atoms done       ...    0.0 sec
Grid point division into batches done        ...    0.2 sec
Reduced shell lists constructed in    0.2 sec

Total number of grid points                  ...    49419
Total number of batches                      ...      780
Average number of points per batch           ...       63
Average number of grid points per atom       ...     4118
Average number of shells per batch           ...    48.53 (63.85%)
Average number of basis functions per batch  ...   105.80 (61.51%)
Average number of large shells per batch     ...    39.18 (80.75%)
Average number of large basis fcns per batch ...    86.82 (82.06%)
Maximum spatial batch extension              ...  14.24, 10.94, 14.15 au
Average spatial batch extension              ...   0.21,  0.20,  0.20 au

Final grid set up in    0.2 sec
Final integration                            ... done (   0.1 sec)
Change in XC energy                          ...    -0.000104706
Integrated number of electrons               ...    35.999986747
Previous integrated no of electrons          ...    35.999826729

----------------
TOTAL SCF ENERGY
----------------

Total Energy       :         -231.46633769 Eh           -6298.51926 eV

Components:
Nuclear Repulsion  :          117.64411331 Eh            3201.25907 eV
Electronic Energy  :         -349.11045100 Eh           -9499.77833 eV
One Electron Energy:         -548.14257085 Eh          -14915.71765 eV
Two Electron Energy:          199.03211985 Eh            5415.93932 eV

Virial components:
Potential Energy   :         -462.05320398 Eh          -12573.10688 eV
Kinetic Energy     :          230.58686628 Eh            6274.58763 eV
Virial Ratio       :            2.00381406


DFT components:
N(Alpha)           :       17.999993373535 electrons
N(Beta)            :       17.999993373535 electrons
N(Total)           :       35.999986747071 electrons
E(XC)              :      -21.325568905345 Eh       
DFET-embed. en.    :        0.000000000000 Eh       

---------------
SCF CONVERGENCE
---------------

  Last Energy change         ...   -5.1750e-10  Tolerance :   1.0000e-08
  Last MAX-Density change    ...    2.1254e-06  Tolerance :   1.0000e-07
  Last RMS-Density change    ...    7.7022e-08  Tolerance :   5.0000e-09
  Last Orbital Gradient      ...    1.0200e-06  Tolerance :   1.0000e-05
  Last Orbital Rotation      ...    1.3083e-06  Tolerance :   1.0000e-05

             **** THE GBW FILE WAS UPDATED (13-71_DFT_AB.gbw) ****
             **** DENSITY FILE WAS UPDATED (13-71_DFT_AB.scfp.tmp) ****
             **** ENERGY FILE WAS UPDATED (13-71_DFT_AB.en.tmp) ****
----------------
ORBITAL ENERGIES
----------------

  NO   OCC          E(Eh)            E(eV) 
   0   2.0000     -19.232589      -523.3453 
   1   2.0000     -19.229689      -523.2664 
   2   2.0000     -10.312486      -280.6170 
   3   2.0000     -10.297215      -280.2015 
   4   2.0000      -1.140965       -31.0472 
   5   2.0000      -1.127484       -30.6804 
   6   2.0000      -0.805375       -21.9154 
   7   2.0000      -0.789499       -21.4834 
   8   2.0000      -0.614541       -16.7225 
   9   2.0000      -0.608823       -16.5669 
  10   2.0000      -0.546134       -14.8611 
  11   2.0000      -0.536358       -14.5950 
  12   2.0000      -0.533448       -14.5158 
  13   2.0000      -0.520168       -14.1545 
  14   2.0000      -0.439485       -11.9590 
  15   2.0000      -0.424023       -11.5383 
  16   2.0000      -0.377895       -10.2830 
  17   2.0000      -0.367603       -10.0030 
  18   0.0000       0.105741         2.8774 
  19   0.0000       0.121967         3.3189 
  20   0.0000       0.148573         4.0429 
  21   0.0000       0.168237         4.5780 
  22   0.0000       0.192872         5.2483 
  23   0.0000       0.203610         5.5405 
  24   0.0000       0.207473         5.6456 
  25   0.0000       0.219435         5.9711 
  26   0.0000       0.246185         6.6990 
  27   0.0000       0.247362         6.7311 
  28   0.0000       0.297248         8.0885 
  29   0.0000       0.310026         8.4362 
  30   0.0000       0.318756         8.6738 
  31   0.0000       0.363650         9.8954 
  32   0.0000       0.401435        10.9236 
  33   0.0000       0.429008        11.6739 
  34   0.0000       0.447164        12.1680 
  35   0.0000       0.466149        12.6846 
  36   0.0000       0.492713        13.4074 
  37   0.0000       0.496836        13.5196 
  38   0.0000       0.543995        14.8029 
  39   0.0000       0.551502        15.0071 
  40   0.0000       0.557238        15.1632 
  41   0.0000       0.559596        15.2274 
  42   0.0000       0.569034        15.4842 
  43   0.0000       0.577747        15.7213 
  44   0.0000       0.616696        16.7812 
  45   0.0000       0.620790        16.8925 
  46   0.0000       0.631482        17.1835 
  47   0.0000       0.662604        18.0304 
  48   0.0000       0.692243        18.8369 
  49   0.0000       0.738932        20.1074 
  50   0.0000       0.764937        20.8150 
  51   0.0000       0.799031        21.7427 
  52   0.0000       0.818296        22.2670 
  53   0.0000       0.833271        22.6745 
  54   0.0000       0.865543        23.5526 
  55   0.0000       0.930904        25.3312 
  56   0.0000       0.983752        26.7692 
  57   0.0000       0.999496        27.1977 
  58   0.0000       1.036852        28.2142 
  59   0.0000       1.069854        29.1122 
  60   0.0000       1.101574        29.9754 
  61   0.0000       1.132362        30.8131 
  62   0.0000       1.378426        37.5089 
  63   0.0000       1.384115        37.6637 
  64   0.0000       1.490422        40.5564 
  65   0.0000       1.506392        40.9910 
  66   0.0000       1.543261        41.9943 
  67   0.0000       1.573445        42.8156 
  68   0.0000       1.593724        43.3674 
  69   0.0000       1.618273        44.0354 
  70   0.0000       1.621087        44.1120 
  71   0.0000       1.640816        44.6489 
  72   0.0000       1.644546        44.7504 
  73   0.0000       1.663906        45.2772 
  74   0.0000       1.687713        45.9250 
  75   0.0000       1.692964        46.0679 
  76   0.0000       1.694395        46.1068 
  77   0.0000       1.719686        46.7950 
  78   0.0000       1.785447        48.5845 
  79   0.0000       1.843615        50.1673 
  80   0.0000       1.947410        52.9917 
  81   0.0000       1.974397        53.7261 
  82   0.0000       2.008026        54.6412 
  83   0.0000       2.020588        54.9830 
  84   0.0000       2.067745        56.2662 
  85   0.0000       2.076578        56.5066 
  86   0.0000       2.095847        57.0309 
  87   0.0000       2.100824        57.1663 
  88   0.0000       2.136891        58.1477 
  89   0.0000       2.163960        58.8844 
  90   0.0000       2.270466        61.7825 
  91   0.0000       2.276189        61.9382 
  92   0.0000       2.311329        62.8945 
  93   0.0000       2.329682        63.3939 
  94   0.0000       2.364793        64.3493 
  95   0.0000       2.396062        65.2002 
  96   0.0000       2.418904        65.8217 
  97   0.0000       2.450177        66.6727 
  98   0.0000       2.455213        66.8097 
  99   0.0000       2.472334        67.2756 
 100   0.0000       2.530010        68.8451 
 101   0.0000       2.546168        69.2848 
 102   0.0000       2.580612        70.2220 
 103   0.0000       2.614027        71.1313 
 104   0.0000       2.655821        72.2686 
 105   0.0000       2.663731        72.4838 
 106   0.0000       2.682868        73.0045 
 107   0.0000       2.710010        73.7431 
 108   0.0000       2.818531        76.6961 
 109   0.0000       2.831078        77.0375 
 110   0.0000       2.881924        78.4211 
 111   0.0000       2.901099        78.9429 
 112   0.0000       2.911916        79.2373 
 113   0.0000       2.925188        79.5984 
 114   0.0000       2.966621        80.7259 
 115   0.0000       3.017332        82.1058 
 116   0.0000       3.102836        84.4324 
 117   0.0000       3.124794        85.0300 
 118   0.0000       3.149681        85.7072 
 119   0.0000       3.183842        86.6368 
 120   0.0000       3.257641        88.6449 
 121   0.0000       3.315210        90.2114 
 122   0.0000       3.385405        92.1216 
 123   0.0000       3.394449        92.3676 
 124   0.0000       3.425998        93.2261 
 125   0.0000       3.476072        94.5887 
 126   0.0000       3.516269        95.6825 
 127   0.0000       3.587624        97.6242 
 128   0.0000       3.605500        98.1106 
 129   0.0000       3.641432        99.0884 
 130   0.0000       3.651169        99.3534 
 131   0.0000       3.668284        99.8191 
 132   0.0000       3.694781       100.5401 
 133   0.0000       3.719972       101.2256 
 134   0.0000       3.984856       108.4334 
 135   0.0000       4.004452       108.9667 
 136   0.0000       4.249966       115.6475 
 137   0.0000       4.282361       116.5290 
 138   0.0000       4.332515       117.8937 
 139   0.0000       4.349153       118.3465 
 140   0.0000       4.439555       120.8064 
 141   0.0000       4.462835       121.4399 
 142   0.0000       4.544695       123.6674 
 143   0.0000       4.612156       125.5032 
 144   0.0000       5.328124       144.9856 
 145   0.0000       5.370799       146.1469 
 146   0.0000       5.400454       146.9538 
 147   0.0000       5.444408       148.1499 
 148   0.0000       5.551335       151.0595 
 149   0.0000       5.574851       151.6994 
 150   0.0000       5.766167       156.9054 
 151   0.0000       5.797611       157.7610 
 152   0.0000       5.867327       159.6581 
 153   0.0000       5.910755       160.8398 
 154   0.0000       5.927287       161.2897 
 155   0.0000       6.026241       163.9824 
 156   0.0000       6.289841       171.1553 
 157   0.0000       6.364431       173.1850 
 158   0.0000       6.516207       177.3150 
 159   0.0000       6.533105       177.7748 
 160   0.0000       6.733445       183.2263 
 161   0.0000       6.761748       183.9965 
 162   0.0000       6.791104       184.7953 
 163   0.0000       6.832291       185.9161 
 164   0.0000       7.040392       191.5788 
 165   0.0000       7.045689       191.7229 
 166   0.0000       7.197990       195.8673 
 167   0.0000       7.200714       195.9414 
 168   0.0000      22.415649       609.9608 
 169   0.0000      22.575142       614.3009 
 170   0.0000      43.638554      1187.4654 
 171   0.0000      43.697795      1189.0774 

                    ********************************
                    * MULLIKEN POPULATION ANALYSIS *
                    ********************************

-----------------------
MULLIKEN ATOMIC CHARGES
-----------------------
   0 C :   -0.177777
   1 O :   -0.487123
   2 H :    0.318077
   3 H :    0.117534
   4 H :    0.112311
   5 H :    0.126291
   6 C :   -0.161583
   7 O :   -0.471581
   8 H :    0.317493
   9 H :    0.103760
  10 H :    0.097656
  11 H :    0.104942
Sum of atomic charges:    0.0000000

--------------------------------
MULLIKEN REDUCED ORBITAL CHARGES
--------------------------------
  0 C s       :     3.221086  s :     3.221086
      pz      :     0.917499  p :     2.857679
      px      :     0.949291
      py      :     0.990889
      dz2     :     0.019565  d :     0.092113
      dxz     :     0.017096
      dyz     :     0.016649
      dx2y2   :     0.021763
      dxy     :     0.017040
      f0      :     0.000421  f :     0.006899
      f+1     :     0.001201
      f-1     :     0.000697
      f+2     :     0.001481
      f-2     :     0.001728
      f+3     :     0.000753
      f-3     :     0.000618
  1 O s       :     3.796392  s :     3.796392
      pz      :     1.539224  p :     4.660983
      px      :     1.534932
      py      :     1.586827
      dz2     :     0.004403  d :     0.028166
      dxz     :     0.009150
      dyz     :     0.008310
      dx2y2   :     0.002068
      dxy     :     0.004235
      f0      :     0.000105  f :     0.001582
      f+1     :     0.000075
      f-1     :     0.000080
      f+2     :     0.000108
      f-2     :     0.000597
      f+3     :     0.000284
      f-3     :     0.000333
  2 H s       :     0.633599  s :     0.633599
      pz      :     0.013181  p :     0.048324
      px      :     0.017322
      py      :     0.017821
  3 H s       :     0.862723  s :     0.862723
      pz      :     0.009482  p :     0.019743
      px      :     0.005192
      py      :     0.005069
  4 H s       :     0.868064  s :     0.868064
      pz      :     0.004586  p :     0.019626
      px      :     0.008548
      py      :     0.006491
  5 H s       :     0.852600  s :     0.852600
      pz      :     0.005027  p :     0.021108
      px      :     0.006475
      py      :     0.009606
  6 C s       :     3.204435  s :     3.204435
      pz      :     1.007795  p :     2.844799
      px      :     0.779061
      py      :     1.057943
      dz2     :     0.019564  d :     0.103877
      dxz     :     0.022467
      dyz     :     0.004178
      dx2y2   :     0.023438
      dxy     :     0.034230
      f0      :     0.001174  f :     0.008472
      f+1     :     0.001578
      f-1     :     0.000062
      f+2     :     0.001165
      f-2     :     0.001144
      f+3     :     0.001456
      f-3     :     0.001893
  7 O s       :     3.796732  s :     3.796732
      pz      :     1.592345  p :     4.641020
      px      :     1.339421
      py      :     1.709254
      dz2     :     0.004253  d :     0.032123
      dxz     :     0.011083
      dyz     :     0.006320
      dx2y2   :     0.004879
      dxy     :     0.005587
      f0      :     0.000098  f :     0.001706
      f+1     :     0.000213
      f-1     :     0.000132
      f+2     :     0.000220
      f-2     :     0.000413
      f+3     :     0.000291
      f-3     :     0.000340
  8 H s       :     0.637994  s :     0.637994
      pz      :     0.014234  p :     0.044513
      px      :     0.013267
      py      :     0.017012
  9 H s       :     0.876219  s :     0.876219
      pz      :     0.012346  p :     0.020021
      px      :     0.002794
      py      :     0.004881
 10 H s       :     0.881668  s :     0.881668
      pz      :     0.005015  p :     0.020676
      px      :     0.003762
      py      :     0.011899
 11 H s       :     0.874077  s :     0.874077
      pz      :     0.004838  p :     0.020981
      px      :     0.008823
      py      :     0.007320


                     *******************************
                     * LOEWDIN POPULATION ANALYSIS *
                     *******************************

----------------------
LOEWDIN ATOMIC CHARGES
----------------------
   0 C :   -0.354380
   1 O :   -0.101074
   2 H :    0.163948
   3 H :    0.094276
   4 H :    0.100350
   5 H :    0.100887
   6 C :   -0.420779
   7 O :   -0.058037
   8 H :    0.186234
   9 H :    0.093073
  10 H :    0.107004
  11 H :    0.088497

-------------------------------
LOEWDIN REDUCED ORBITAL CHARGES
-------------------------------
  0 C s       :     2.858200  s :     2.858200
      pz      :     1.003673  p :     3.062645
      px      :     1.009879
      py      :     1.049094
      dz2     :     0.064083  d :     0.383150
      dxz     :     0.092541
      dyz     :     0.084963
      dx2y2   :     0.061116
      dxy     :     0.080447
      f0      :     0.005545  f :     0.050385
      f+1     :     0.008331
      f-1     :     0.006092
      f+2     :     0.009048
      f-2     :     0.008293
      f+3     :     0.006492
      f-3     :     0.006585
  1 O s       :     3.384246  s :     3.384246
      pz      :     1.578263  p :     4.648830
      px      :     1.517750
      py      :     1.552817
      dz2     :     0.009515  d :     0.063970
      dxz     :     0.018165
      dyz     :     0.015904
      dx2y2   :     0.007238
      dxy     :     0.013148
      f0      :     0.000519  f :     0.004028
      f+1     :     0.000479
      f-1     :     0.000432
      f+2     :     0.000494
      f-2     :     0.001152
      f+3     :     0.000457
      f-3     :     0.000495
  2 H s       :     0.675165  s :     0.675165
      pz      :     0.051778  p :     0.160887
      px      :     0.054988
      py      :     0.054121
  3 H s       :     0.841666  s :     0.841666
      pz      :     0.029799  p :     0.064058
      px      :     0.017206
      py      :     0.017053
  4 H s       :     0.839937  s :     0.839937
      pz      :     0.014035  p :     0.059714
      px      :     0.025345
      py      :     0.020334
  5 H s       :     0.833211  s :     0.833211
      pz      :     0.016799  p :     0.065902
      px      :     0.019294
      py      :     0.029808
  6 C s       :     2.842598  s :     2.842598
      pz      :     1.073211  p :     3.069278
      px      :     0.904639
      py      :     1.091429
      dz2     :     0.099431  d :     0.444882
      dxz     :     0.099745
      dyz     :     0.021239
      dx2y2   :     0.099889
      dxy     :     0.124579
      f0      :     0.006211  f :     0.064021
      f+1     :     0.010263
      f-1     :     0.001178
      f+2     :     0.013128
      f-2     :     0.010866
      f+3     :     0.011003
      f-3     :     0.011373
  7 O s       :     3.359969  s :     3.359969
      pz      :     1.587611  p :     4.614715
      px      :     1.389239
      py      :     1.637865
      dz2     :     0.008855  d :     0.078168
      dxz     :     0.026092
      dyz     :     0.009841
      dx2y2   :     0.013759
      dxy     :     0.019621
      f0      :     0.000291  f :     0.005185
      f+1     :     0.001212
      f-1     :     0.000276
      f+2     :     0.000707
      f-2     :     0.001093
      f+3     :     0.000725
      f-3     :     0.000881
  8 H s       :     0.667825  s :     0.667825
      pz      :     0.055752  p :     0.145940
      px      :     0.036664
      py      :     0.053524
  9 H s       :     0.844226  s :     0.844226
      pz      :     0.037346  p :     0.062701
      px      :     0.009921
      py      :     0.015434
 10 H s       :     0.835037  s :     0.835037
      pz      :     0.014908  p :     0.057959
      px      :     0.010252
      py      :     0.032799
 11 H s       :     0.846148  s :     0.846148
      pz      :     0.015980  p :     0.065355
      px      :     0.025671
      py      :     0.023704


                      *****************************
                      * MAYER POPULATION ANALYSIS *
                      *****************************

  NA   - Mulliken gross atomic population
  ZA   - Total nuclear charge
  QA   - Mulliken gross atomic charge
  VA   - Mayer's total valence
  BVA  - Mayer's bonded valence
  FA   - Mayer's free valence

  ATOM       NA         ZA         QA         VA         BVA        FA
  0 C      6.1778     6.0000    -0.1778     3.9182     3.9182    -0.0000
  1 O      8.4871     8.0000    -0.4871     1.8876     1.8876    -0.0000
  2 H      0.6819     1.0000     0.3181     0.9110     0.9110     0.0000
  3 H      0.8825     1.0000     0.1175     0.9591     0.9591    -0.0000
  4 H      0.8877     1.0000     0.1123     0.9616     0.9616     0.0000
  5 H      0.8737     1.0000     0.1263     0.9604     0.9604    -0.0000
  6 C      6.1616     6.0000    -0.1616     3.9312     3.9312     0.0000
  7 O      8.4716     8.0000    -0.4716     1.8843     1.8843    -0.0000
  8 H      0.6825     1.0000     0.3175     0.9082     0.9082    -0.0000
  9 H      0.8962     1.0000     0.1038     0.9592     0.9592     0.0000
 10 H      0.9023     1.0000     0.0977     0.9568     0.9568     0.0000
 11 H      0.8951     1.0000     0.1049     0.9720     0.9720     0.0000

  Mayer bond orders larger than 0.1
B(  0-C ,  1-O ) :   0.9780 B(  0-C ,  3-H ) :   0.9759 B(  0-C ,  4-H ) :   0.9783 
B(  0-C ,  5-H ) :   0.9747 B(  1-O ,  2-H ) :   0.8976 B(  6-C ,  7-O ) :   1.0049 
B(  6-C ,  9-H ) :   0.9817 B(  6-C , 10-H ) :   0.9790 B(  6-C , 11-H ) :   0.9657 
B(  7-O ,  8-H ) :   0.8955 

-------
TIMINGS
-------

Total SCF time: 0 days 0 hours 0 min 17 sec 

Total time                  ....      17.036 sec
Sum of individual times     ....      16.628 sec  ( 97.6%)

Fock matrix formation       ....      16.027 sec  ( 94.1%)
  XC integration            ....       7.698 sec  ( 48.0% of F)
    Basis function eval.    ....       0.057 sec  (  0.7% of XC)
    Density eval.           ....       0.106 sec  (  1.4% of XC)
    XC-Functional eval.     ....       0.120 sec  (  1.6% of XC)
    XC-Potential eval.      ....       0.058 sec  (  0.7% of XC)
Diagonalization             ....       0.071 sec  (  0.4%)
Density matrix formation    ....       0.005 sec  (  0.0%)
Population analysis         ....       0.017 sec  (  0.1%)
Initial guess               ....       0.113 sec  (  0.7%)
Orbital Transformation      ....       0.000 sec  (  0.0%)
Orbital Orthonormalization  ....       0.000 sec  (  0.0%)
DIIS solution               ....       0.050 sec  (  0.3%)
SOSCF solution              ....       0.058 sec  (  0.3%)
Grid generation             ....       0.288 sec  (  1.7%)


-------------------------------------------------------------------------------
                          DFT DISPERSION CORRECTION                            
                                                                               
                              DFTD3 V3.1  Rev 1                                
                              USING zero damping                               
-------------------------------------------------------------------------------
The omegaB97X-D3 functional is recognized. Fit by Chai et al.
Active option DFTDOPT                   ...         3   

molecular C6(AA) [au] = 834.794109 


            DFT-D V3
 parameters
 s6 scaling factor         :     1.0000 
 rs6 scaling factor        :     1.2810 
 s8 scaling factor         :     1.0000 
 rs8 scaling factor        :     1.0940 
 Damping factor alpha6     :    14.0000 
 Damping factor alpha8     :    16.0000 
 ad hoc parameters k1-k3   :    16.0000     1.3333    -4.0000 

 Edisp/kcal,au: -0.787160301137  -0.001254419654 
 E6   /kcal   :  -0.383203936 
 E8   /kcal   :  -0.403956365 
 % E8         :  51.318183193 

-------------------------   ----------------
Dispersion correction           -0.001254420
-------------------------   ----------------


-------------------------   --------------------
FINAL SINGLE POINT ENERGY      -231.467592112945
-------------------------   --------------------


                            ***************************************
                            *     ORCA property calculations      *
                            ***************************************

                                    ---------------------
                                    Active property flags
                                    ---------------------
   (+) Dipole Moment


------------------------------------------------------------------------------
                       ORCA ELECTRIC PROPERTIES CALCULATION
------------------------------------------------------------------------------

Dipole Moment Calculation                       ... on
Quadrupole Moment Calculation                   ... off
Polarizability Calculation                      ... off
GBWName                                         ... 13-71_DFT_AB.gbw
Electron density file                           ... 13-71_DFT_AB.scfp.tmp
The origin for moment calculation is the CENTER OF MASS  = (12.402063, -15.623210  9.244367)

-------------
DIPOLE MOMENT
-------------
                                X             Y             Z
Electronic contribution:     -2.60240       1.24692       0.43793
Nuclear contribution   :      2.75140      -0.95025      -0.52411
                        -----------------------------------------
Total Dipole Moment    :      0.14900       0.29668      -0.08618
                        -----------------------------------------
Magnitude (a.u.)       :      0.34299
Magnitude (Debye)      :      0.87182



--------------------
Rotational spectrum 
--------------------
 
Rotational constants in cm-1:     0.512224     0.045469     0.044383 
Rotational constants in MHz : 15356.076045  1363.131635  1330.563054 

 Dipole components along the rotational axes: 
x,y,z [a.u.] :    -0.274404    -0.175061     0.108172 
x,y,z [Debye]:    -0.697480    -0.444970     0.274951 

 
------------------------------------------------------------------------------
                      ORCA CHELPG CHARGES GENERATION
------------------------------------------------------------------------------

GBW file                           ... 13-71_DFT_AB.gbw

Reading the GBW file               ... done

Grid spacing                       ...     0.300000
Point Cut-Off                      ...     2.800000
Van-der-Waals Radii                ...        COSMO
Total charge                       ...            0


Number of points X direction       ...           40
Number of points Y direction       ...           32
Number of points Z direction       ...           29
Maximum number of possible points  ...        37120
Final number of points             ...        10610


CHELPG Charges            
--------------------------------
  0   C   :       0.181949
  1   O   :      -0.630363
  2   H   :       0.406102
  3   H   :       0.002711
  4   H   :      -0.001827
  5   H   :       0.052115
  6   C   :       0.183647
  7   O   :      -0.597637
  8   H   :       0.382199
  9   H   :      -0.009568
 10   H   :       0.034564
 11   H   :      -0.003892
--------------------------------
Total charge:     0.000000
--------------------------------

CHELPG charges calculated...

Timings for individual parts in CHELPG calculation:
Grid generation                 ...        0.002 sec (=   0.000 min)
Potential calculation           ...        2.103 sec (=   0.035 min)
Fit to the potential            ...        0.004 sec (=   0.000 min)
------------------------------------------------------------------------------


Timings for individual modules:

Sum of individual times         ...       25.806 sec (=   0.430 min)
GTO integral calculation        ...        4.593 sec (=   0.077 min)  17.8 %
SCF iterations                  ...       19.072 sec (=   0.318 min)  73.9 %
CHELPG charge generation        ...        2.141 sec (=   0.036 min)   8.3 %


                 $$$$$$$$$$$$$$$$  JOB NUMBER  2 $$$$$$$$$$$$$$


                       ****************************
                       * Single Point Calculation *
                       ****************************

---------------------------------
CARTESIAN COORDINATES (ANGSTROEM)
---------------------------------
  C      9.028161   -7.584521    4.100614
  O      8.192791   -6.828802    5.014434
  H      7.594326   -6.269406    4.519792
  H      8.513725   -7.939866    3.227101
  H      9.834166   -6.927564    3.751375
  H      9.510038   -8.408056    4.560258
  C      5.169243   -9.493771    5.503406
  O      3.942726   -9.233860    4.939729
  H      3.428846   -8.678624    5.570812
  H      5.209470   -9.584556    6.578923
  H      5.409796  -10.512706    5.172332
  H      5.951064   -8.839104    5.193346

----------------------------
CARTESIAN COORDINATES (A.U.)
----------------------------
  NO LB      ZA    FRAG     MASS         X           Y           Z
   0 C     6.0000    0    12.011   17.060752  -14.332668    7.749037
   1 O     8.0000    0    15.999   15.482131  -12.904566    9.475907
   2 H     1.0000    0     1.008   14.351196  -11.847460    8.541169
   3 H     1.0000    0     1.008   16.088609  -15.004172    6.098337
   4 H     1.0000    0     1.008   18.583880  -13.091199    7.089071
   5 H     1.0000    0     1.008   17.971367  -15.888923    8.617639
   6 C     0.0000    0     0.000    9.768454  -17.940627   10.399930
   7 O     0.0000    0     0.000    7.450672  -17.449467    9.334735
   8 H     0.0000    0     0.000    6.479580  -16.400223   10.527309
   9 H     0.0000    0     0.000    9.844472  -18.112186   12.432363
  10 H     0.0000    0     0.000   10.223033  -19.866135    9.774291
  11 H     0.0000    0     0.000   11.245881  -16.703486    9.814002

--------------------------------
INTERNAL COORDINATES (ANGSTROEM)
--------------------------------
 C      0   0   0     0.000000000000     0.00000000     0.00000000
 O      1   0   0     1.450524469377     0.00000000     0.00000000
 H      2   1   0     0.956950860392   109.82090972     0.00000000
 H      1   2   3     1.074215727073   114.13140036   320.77324157
 H      1   2   3     1.096906759481   108.16308639    79.63399083
 H      1   2   3     1.059097703751   113.18712248   196.32314133
 C      2   1   3     4.059925602280    99.36860073    92.18674694
 O      7   2   1     1.374637930343   119.40539278   251.40396334
 H      8   7   2     0.985203239431   108.01630452   273.88931037
 H      7   2   1     1.080091174412    98.47425365   123.46240618
 H      7   2   1     1.098045660940   114.18295888    15.75418849
 H      7   2   1     1.065819009274    10.09529064   316.49604604

---------------------------
INTERNAL COORDINATES (A.U.)
---------------------------
 C      0   0   0     0.000000000000     0.00000000     0.00000000
 O      1   0   0     2.741093997674     0.00000000     0.00000000
 H      2   1   0     1.808375049761   109.82090972     0.00000000
 H      1   2   3     2.029973532918   114.13140036   320.77324157
 H      1   2   3     2.072853369866   108.16308639    79.63399083
 H      1   2   3     2.001404609154   113.18712248   196.32314133
 C      2   1   3     7.672147512405    99.36860073    92.18674694
 O      7   2   1     2.597689221649   119.40539278   251.40396334
 H      8   7   2     1.861764308776   108.01630452   273.88931037
 H      7   2   1     2.041076519304    98.47425365   123.46240618
 H      7   2   1     2.075005581718   114.18295888    15.75418849
 H      7   2   1     2.014106035855    10.09529064   316.49604604

---------------------
BASIS SET INFORMATION
---------------------
There are 3 groups of distinct atoms

 Group   1 Type C   : 11s6p2d1f contracted to 5s3p2d1f pattern {62111/411/11/1}
 Group   2 Type O   : 11s6p2d1f contracted to 5s3p2d1f pattern {62111/411/11/1}
 Group   3 Type H   : 5s1p contracted to 3s1p pattern {311/1}

Atom   0C    basis set group =>   1
Atom   1O    basis set group =>   2
Atom   2H    basis set group =>   3
Atom   3H    basis set group =>   3
Atom   4H    basis set group =>   3
Atom   5H    basis set group =>   3
Atom   6C    basis set group =>   1
Atom   7O    basis set group =>   2
Atom   8H    basis set group =>   3
Atom   9H    basis set group =>   3
Atom  10H    basis set group =>   3
Atom  11H    basis set group =>   3


           ************************************************************
           *        Program running with 8 parallel MPI-processes     *
           *              working on a common directory               *
           ************************************************************
------------------------------------------------------------------------------
                           ORCA GTO INTEGRAL CALCULATION
------------------------------------------------------------------------------

                         BASIS SET STATISTICS AND STARTUP INFO

 # of primitive gaussian shells          ...  128
 # of primitive gaussian functions       ...  248
 # of contracted shells                  ...   76
 # of contracted basis functions         ...  172
 Highest angular momentum                ...    3
 Maximum contraction depth               ...    6
 Integral package used                   ... LIBINT
 Integral threshhold            Thresh   ...  2.500e-11
 Primitive cut-off              TCut     ...  2.500e-12


------------------------------ INTEGRAL EVALUATION ----------------------------


 * One electron integrals 
 Pre-screening matrix                    ... done
 Shell pair data                         ... done (   0.001 sec)



           ************************************************************
           *        Program running with 8 parallel MPI-processes     *
           *              working on a common directory               *
           ************************************************************
-------------------------------------------------------------------------------
                                 ORCA SCF
-------------------------------------------------------------------------------

------------
SCF SETTINGS
------------
Hamiltonian:
 Density Functional     Method          .... DFT(GTOs)
 Exchange Functional    Exchange        .... WB97X-D3
 Correlation Functional Correlation     .... WB97X-D3
 Gradients option       PostSCFGGA      .... off
 Hybrid DFT is turned on
   Fraction HF Exchange ScalHFX         ....  0.195728
   Scaling of DF-GGA-X  ScalDFX         ....  0.000000
   Scaling of DF-GGA-C  ScalDFC         ....  1.000000
   Scaling of DF-LDA-C  ScalLDAC        ....  1.000000
   Perturbative correction              ....  0.000000
   Density functional embedding theory  .... OFF
 Long-range corrected/Screened/Range-Separated Hybrid DFT is turned on
   Amount of maximum screened exact exchange              ....  0.804272
   Range separation parameter mu (erf(mu*r12)/r12)        ....  0.250000


General Settings:
 Integral files         IntName         .... 13-71_DFT_A
 Hartree-Fock type      HFTyp           .... RHF
 Total Charge           Charge          ....    0
 Multiplicity           Mult            ....    1
 Number of Electrons    NEL             ....   18
 Basis Dimension        Dim             ....  172
 Nuclear Repulsion      ENuc            ....     39.9657836808 Eh

Convergence Acceleration:
 DIIS                   CNVDIIS         .... on
   Start iteration      DIISMaxIt       ....    12
   Startup error        DIISStart       ....  0.200000
   # of expansion vecs  DIISMaxEq       ....     5
   Bias factor          DIISBfac        ....   1.050
   Max. coefficient     DIISMaxC        ....  10.000
 Newton-Raphson         CNVNR           .... off
 SOSCF                  CNVSOSCF        .... on
   Start iteration      SOSCFMaxIt      ....   150
   Startup grad/error   SOSCFStart      ....  0.003300
 Level Shifting         CNVShift        .... on
   Level shift para.    LevelShift      ....    0.2500
   Turn off err/grad.   ShiftErr        ....    0.0010
 Zerner damping         CNVZerner       .... off
 Static damping         CNVDamp         .... on
   Fraction old density DampFac         ....    0.7000
   Max. Damping (<1)    DampMax         ....    0.9800
   Min. Damping (>=0)   DampMin         ....    0.0000
   Turn off err/grad.   DampErr         ....    0.1000
 Fernandez-Rico         CNVRico         .... off

SCF Procedure:
 Maximum # iterations   MaxIter         ....  1000
 SCF integral mode      SCFMode         .... Direct
   Integral package                     .... LIBINT
 Reset frequency        DirectResetFreq ....    20
 Integral Threshold     Thresh          ....  2.500e-11 Eh
 Primitive CutOff       TCut            ....  2.500e-12 Eh

Convergence Tolerance:
 Convergence Check Mode ConvCheckMode   .... Total+1el-Energy
 Convergence forced     ConvForced      .... 0
 Energy Change          TolE            ....  1.000e-08 Eh
 1-El. energy change                    ....  1.000e-05 Eh
 Orbital Gradient       TolG            ....  1.000e-05
 Orbital Rotation angle TolX            ....  1.000e-05
 DIIS Error             TolErr          ....  5.000e-07


Diagonalization of the overlap matrix:
Smallest eigenvalue                        ... 1.009e-03
Time for diagonalization                   ...    0.004 sec
Threshold for overlap eigenvalues          ... 1.000e-08
Number of eigenvalues below threshold      ... 0
Time for construction of square roots      ...    0.012 sec
Total time needed                          ...    0.017 sec

-------------------
DFT GRID GENERATION
-------------------

General Integration Accuracy     IntAcc      ...  4.340
Radial Grid Type                 RadialGrid  ... Gauss-Chebyshev
Angular Grid (max. acc.)         AngularGrid ... Lebedev-110
Angular grid pruning method      GridPruning ... 3 (G Style)
Weight generation scheme         WeightScheme... Becke
Basis function cutoff            BFCut       ...    1.0000e-11
Integration weight cutoff        WCut        ...    1.0000e-14
Grids for H and He will be reduced by one unit

# of grid points (after initial pruning)     ...  13096 (   0.0 sec)
# of grid points (after weights+screening)   ...  12522 (   0.0 sec)
nearest neighbour list constructed           ...    0.0 sec
Grid point re-assignment to atoms done       ...    0.0 sec
Grid point division into batches done        ...    0.0 sec
Reduced shell lists constructed in    0.0 sec

Total number of grid points                  ...    12522
Total number of batches                      ...      201
Average number of points per batch           ...       62
Average number of grid points per atom       ...     1044
Average number of shells per batch           ...    49.44 (65.06%)
Average number of basis functions per batch  ...   107.52 (62.51%)
Average number of large shells per batch     ...    40.59 (82.10%)
Average number of large basis fcns per batch ...    89.41 (83.16%)
Maximum spatial batch extension              ...  14.71, 14.44, 15.52 au
Average spatial batch extension              ...   0.36,  0.33,  0.34 au

Time for grid setup =    0.038 sec

------------------------------
INITIAL GUESS: MODEL POTENTIAL
------------------------------
Loading Hartree-Fock densities                     ... done
Calculating cut-offs                               ... done
Setting up the integral package                    ... done
Initializing the effective Hamiltonian             ... done
Starting the Coulomb interaction                   ... done (   0.0 sec)
Reading the grid                                   ... done
Mapping shells                                     ... done
Starting the XC term evaluation                    ... done (   0.0 sec)
  promolecular density results
     # of electrons  =     17.994262570
     EX              =    -14.425776996
     EC              =     -0.574027851
     EX+EC           =    -14.999804847
Transforming the Hamiltonian                       ... done (   0.0 sec)
Diagonalizing the Hamiltonian                      ... done (   0.0 sec)
Back transforming the eigenvectors                 ... done (   0.0 sec)
Now organizing SCF variables                       ... done
                      ------------------
                      INITIAL GUESS DONE (   0.1 sec)
                      ------------------
--------------
SCF ITERATIONS
--------------
ITER       Energy         Delta-E        Max-DP      RMS-DP      [F,P]     Damp
               ***  Starting incremental Fock matrix formation  ***
  0   -115.6479573082   0.000000000000 0.03378082  0.00074618  0.2295282 0.7000
  1   -115.6844339455  -0.036476637283 0.01974284  0.00053672  0.1130730 0.7000
                               ***Turning on DIIS***
  2   -115.7013388990  -0.016904953528 0.02851750  0.00097863  0.0424385 0.0000
  3   -115.7289802917  -0.027641392692 0.01620978  0.00035312  0.0562344 0.0000
  4   -115.7333731229  -0.004392831189 0.00412031  0.00006857  0.0060291 0.0000
                      *** Initiating the SOSCF procedure ***
                           *** Shutting down DIIS ***
                      *** Re-Reading the Fockian *** 
                      *** Removing any level shift *** 
ITER      Energy       Delta-E        Grad      Rot      Max-DP    RMS-DP
  5   -115.73346726  -0.0000941387  0.000433  0.000433  0.000632  0.000022
               *** Restarting incremental Fock matrix formation ***
  6   -115.73347541  -0.0000081466  0.000115  0.000161  0.000398  0.000014
  7   -115.73347616  -0.0000007513  0.000037  0.000085  0.000190  0.000006
  8   -115.73347622  -0.0000000645  0.000014  0.000012  0.000022  0.000001
  9   -115.73347623  -0.0000000037  0.000009  0.000006  0.000011  0.000000
                  ***Gradient check signals convergence***
              ***Rediagonalizing the Fockian in SOSCF/NRSCF***

               *****************************************************
               *                     SUCCESS                       *
               *           SCF CONVERGED AFTER  10 CYCLES          *
               *****************************************************

Setting up the final grid:

General Integration Accuracy     IntAcc      ...  4.670
Radial Grid Type                 RadialGrid  ... Gauss-Chebyshev
Angular Grid (max. acc.)         AngularGrid ... Lebedev-302
Angular grid pruning method      GridPruning ... 3 (G Style)
Weight generation scheme         WeightScheme... Becke
Basis function cutoff            BFCut       ...    1.0000e-11
Integration weight cutoff        WCut        ...    1.0000e-14
Grids for H and He will be reduced by one unit

# of grid points (after initial pruning)     ...  52000 (   0.0 sec)
# of grid points (after weights+screening)   ...  49419 (   0.0 sec)
nearest neighbour list constructed           ...    0.0 sec
Grid point re-assignment to atoms done       ...    0.0 sec
Grid point division into batches done        ...    0.2 sec
Reduced shell lists constructed in    0.2 sec

Total number of grid points                  ...    49419
Total number of batches                      ...      780
Average number of points per batch           ...       63
Average number of grid points per atom       ...     4118
Average number of shells per batch           ...    48.53 (63.85%)
Average number of basis functions per batch  ...   105.80 (61.51%)
Average number of large shells per batch     ...    39.18 (80.75%)
Average number of large basis fcns per batch ...    86.82 (82.06%)
Maximum spatial batch extension              ...  14.24, 10.94, 14.15 au
Average spatial batch extension              ...   0.21,  0.20,  0.20 au

Final grid set up in    0.3 sec
Final integration                            ... done (   0.1 sec)
Change in XC energy                          ...    -0.000186042
Integrated number of electrons               ...    17.999995002
Previous integrated no of electrons          ...    17.997991652

----------------
TOTAL SCF ENERGY
----------------

Total Energy       :         -115.73366227 Eh           -3149.27306 eV

Components:
Nuclear Repulsion  :           39.96578368 Eh            1087.52426 eV
Electronic Energy  :         -155.69944595 Eh           -4236.79732 eV
One Electron Energy:         -236.36425558 Eh           -6431.79838 eV
Two Electron Energy:           80.66480963 Eh            2195.00106 eV

Virial components:
Potential Energy   :         -230.98035265 Eh           -6285.29493 eV
Kinetic Energy     :          115.24669038 Eh            3136.02188 eV
Virial Ratio       :            2.00422547


DFT components:
N(Alpha)           :        8.999997501041 electrons
N(Beta)            :        8.999997501041 electrons
N(Total)           :       17.999995002083 electrons
E(XC)              :      -10.653622320666 Eh       
DFET-embed. en.    :        0.000000000000 Eh       

---------------
SCF CONVERGENCE
---------------

  Last Energy change         ...   -1.8135e-09  Tolerance :   1.0000e-08
  Last MAX-Density change    ...    2.5376e-06  Tolerance :   1.0000e-07
  Last RMS-Density change    ...    7.8139e-08  Tolerance :   5.0000e-09
  Last Orbital Gradient      ...    1.6798e-06  Tolerance :   1.0000e-05
  Last Orbital Rotation      ...    1.6373e-06  Tolerance :   1.0000e-05

             **** THE GBW FILE WAS UPDATED (13-71_DFT_A.gbw) ****
             **** DENSITY FILE WAS UPDATED (13-71_DFT_A.scfp.tmp) ****
             **** ENERGY FILE WAS UPDATED (13-71_DFT_A.en.tmp) ****
----------------
ORBITAL ENERGIES
----------------

  NO   OCC          E(Eh)            E(eV) 
   0   2.0000     -19.229658      -523.2656 
   1   2.0000     -10.310808      -280.5713 
   2   2.0000      -1.124667       -30.6037 
   3   2.0000      -0.803482       -21.8639 
   4   2.0000      -0.606467       -16.5028 
   5   2.0000      -0.535271       -14.5655 
   6   2.0000      -0.531340       -14.4585 
   7   2.0000      -0.436971       -11.8906 
   8   2.0000      -0.373580       -10.1656 
   9   0.0000       0.090197         2.4544 
  10   0.0000       0.120814         3.2875 
  11   0.0000       0.149564         4.0698 
  12   0.0000       0.171725         4.6729 
  13   0.0000       0.195640         5.3236 
  14   0.0000       0.205542         5.5931 
  15   0.0000       0.212585         5.7847 
  16   0.0000       0.219186         5.9643 
  17   0.0000       0.235285         6.4024 
  18   0.0000       0.279039         7.5930 
  19   0.0000       0.311266         8.4700 
  20   0.0000       0.322564         8.7774 
  21   0.0000       0.339328         9.2336 
  22   0.0000       0.353329         9.6146 
  23   0.0000       0.385729        10.4962 
  24   0.0000       0.428632        11.6637 
  25   0.0000       0.440363        11.9829 
  26   0.0000       0.458572        12.4784 
  27   0.0000       0.501976        13.6595 
  28   0.0000       0.515849        14.0370 
  29   0.0000       0.553695        15.0668 
  30   0.0000       0.558573        15.1995 
  31   0.0000       0.562211        15.2985 
  32   0.0000       0.576151        15.6779 
  33   0.0000       0.613628        16.6977 
  34   0.0000       0.637702        17.3527 
  35   0.0000       0.660780        17.9807 
  36   0.0000       0.694566        18.9001 
  37   0.0000       0.715235        19.4625 
  38   0.0000       0.778675        21.1888 
  39   0.0000       0.810756        22.0618 
  40   0.0000       0.827240        22.5104 
  41   0.0000       0.856389        23.3035 
  42   0.0000       0.883066        24.0294 
  43   0.0000       0.943918        25.6853 
  44   0.0000       0.994951        27.0740 
  45   0.0000       1.033467        28.1221 
  46   0.0000       1.068378        29.0720 
  47   0.0000       1.100847        29.9556 
  48   0.0000       1.161141        31.5962 
  49   0.0000       1.171494        31.8780 
  50   0.0000       1.197681        32.5906 
  51   0.0000       1.219142        33.1745 
  52   0.0000       1.247910        33.9573 
  53   0.0000       1.369723        37.2721 
  54   0.0000       1.382303        37.6144 
  55   0.0000       1.396656        38.0049 
  56   0.0000       1.469223        39.9796 
  57   0.0000       1.512054        41.1451 
  58   0.0000       1.522686        41.4344 
  59   0.0000       1.559952        42.4484 
  60   0.0000       1.602302        43.6008 
  61   0.0000       1.622528        44.1512 
  62   0.0000       1.645598        44.7790 
  63   0.0000       1.692453        46.0540 
  64   0.0000       1.695011        46.1236 
  65   0.0000       1.821802        49.5738 
  66   0.0000       1.849738        50.3339 
  67   0.0000       1.933924        52.6247 
  68   0.0000       1.944297        52.9070 
  69   0.0000       1.972410        53.6720 
  70   0.0000       2.023254        55.0555 
  71   0.0000       2.073100        56.4119 
  72   0.0000       2.094863        57.0041 
  73   0.0000       2.099438        57.1286 
  74   0.0000       2.102790        57.2198 
  75   0.0000       2.211914        60.1892 
  76   0.0000       2.220318        60.4179 
  77   0.0000       2.238905        60.9237 
  78   0.0000       2.278429        61.9992 
  79   0.0000       2.325100        63.2692 
  80   0.0000       2.338667        63.6384 
  81   0.0000       2.370578        64.5067 
  82   0.0000       2.420119        65.8548 
  83   0.0000       2.451921        66.7202 
  84   0.0000       2.498607        67.9906 
  85   0.0000       2.536559        69.0233 
  86   0.0000       2.582648        70.2774 
  87   0.0000       2.597679        70.6864 
  88   0.0000       2.652093        72.1671 
  89   0.0000       2.662129        72.4402 
  90   0.0000       2.711383        73.7805 
  91   0.0000       2.733304        74.3770 
  92   0.0000       2.819344        76.7183 
  93   0.0000       2.827290        76.9345 
  94   0.0000       2.884357        78.4874 
  95   0.0000       2.903498        79.0082 
  96   0.0000       2.950768        80.2945 
  97   0.0000       2.988551        81.3226 
  98   0.0000       3.095343        84.2286 
  99   0.0000       3.098555        84.3160 
 100   0.0000       3.110165        84.6319 
 101   0.0000       3.151073        85.7451 
 102   0.0000       3.183123        86.6172 
 103   0.0000       3.247756        88.3759 
 104   0.0000       3.268628        88.9439 
 105   0.0000       3.303981        89.9059 
 106   0.0000       3.363213        91.5177 
 107   0.0000       3.395220        92.3886 
 108   0.0000       3.408271        92.7438 
 109   0.0000       3.429969        93.3342 
 110   0.0000       3.517946        95.7282 
 111   0.0000       3.589643        97.6792 
 112   0.0000       3.631130        98.8081 
 113   0.0000       3.653384        99.4136 
 114   0.0000       3.673256        99.9544 
 115   0.0000       3.734353       101.6169 
 116   0.0000       3.801024       103.4311 
 117   0.0000       4.007270       109.0434 
 118   0.0000       4.061548       110.5203 
 119   0.0000       4.169240       113.4508 
 120   0.0000       4.273032       116.2751 
 121   0.0000       4.284792       116.5951 
 122   0.0000       4.294224       116.8518 
 123   0.0000       4.332149       117.8838 
 124   0.0000       4.431069       120.5755 
 125   0.0000       4.445789       120.9761 
 126   0.0000       4.521658       123.0406 
 127   0.0000       4.551147       123.8430 
 128   0.0000       4.588547       124.8607 
 129   0.0000       4.612321       125.5076 
 130   0.0000       4.635776       126.1459 
 131   0.0000       4.962601       135.0392 
 132   0.0000       5.097913       138.7213 
 133   0.0000       5.105403       138.9251 
 134   0.0000       5.316631       144.6729 
 135   0.0000       5.331233       145.0702 
 136   0.0000       5.403329       147.0321 
 137   0.0000       5.421831       147.5355 
 138   0.0000       5.554140       151.1358 
 139   0.0000       5.768626       156.9723 
 140   0.0000       5.778824       157.2498 
 141   0.0000       5.800797       157.8477 
 142   0.0000       5.929809       161.3583 
 143   0.0000       6.060717       164.9205 
 144   0.0000       6.100486       166.0027 
 145   0.0000       6.367475       173.2678 
 146   0.0000       6.519401       177.4019 
 147   0.0000       6.630888       180.4356 
 148   0.0000       6.736105       183.2987 
 149   0.0000       6.740346       183.4142 
 150   0.0000       6.794464       184.8868 
 151   0.0000       6.862429       186.7362 
 152   0.0000       7.044126       191.6804 
 153   0.0000       7.168017       195.0517 
 154   0.0000       7.202249       195.9832 
 155   0.0000       7.348961       199.9754 
 156   0.0000       7.509841       204.3532 
 157   0.0000       8.022698       218.3087 
 158   0.0000       8.907374       242.3820 
 159   0.0000       9.310614       253.3547 
 160   0.0000       9.533156       259.4104 
 161   0.0000       9.570976       260.4395 
 162   0.0000       9.818095       267.1639 
 163   0.0000       9.901583       269.4358 
 164   0.0000       9.966526       271.2030 
[...]
  82   0.0000       2.447408        66.5974 
  83   0.0000       2.471981        67.2660 
  84   0.0000       2.508737        68.2662 
  85   0.0000       2.525274        68.7162 
  86   0.0000       2.596695        70.6597 
  87   0.0000       2.605135        70.8893 
  88   0.0000       2.617480        71.2252 
  89   0.0000       2.651314        72.1459 
  90   0.0000       2.666231        72.5518 
  91   0.0000       2.683999        73.0353 
  92   0.0000       2.813850        76.5688 
  93   0.0000       2.827249        76.9334 
  94   0.0000       2.905631        79.0662 
  95   0.0000       2.914764        79.3148 
  96   0.0000       2.925696        79.6122 
  97   0.0000       2.976809        81.0031 
  98   0.0000       3.054772        83.1246 
  99   0.0000       3.118554        84.8602 
 100   0.0000       3.141124        85.4743 
 101   0.0000       3.163703        86.0887 
 102   0.0000       3.176041        86.4245 
 103   0.0000       3.246651        88.3459 
 104   0.0000       3.294118        89.6375 
 105   0.0000       3.309346        90.0519 
 106   0.0000       3.332316        90.6769 
 107   0.0000       3.360568        91.4457 
 108   0.0000       3.381380        92.0120 
 109   0.0000       3.470875        94.4473 
 110   0.0000       3.598935        97.9320 
 111   0.0000       3.636144        98.9445 
 112   0.0000       3.647675        99.2583 
 113   0.0000       3.677415       100.0675 
 114   0.0000       3.686555       100.3163 
 115   0.0000       3.711617       100.9982 
 116   0.0000       3.722835       101.3035 
 117   0.0000       3.980478       108.3143 
 118   0.0000       4.050570       110.2216 
 119   0.0000       4.157822       113.1401 
 120   0.0000       4.222470       114.8992 
 121   0.0000       4.244100       115.4878 
 122   0.0000       4.269948       116.1912 
 123   0.0000       4.343381       118.1894 
 124   0.0000       4.384688       119.3134 
 125   0.0000       4.452498       121.1586 
 126   0.0000       4.517371       122.9239 
 127   0.0000       4.531560       123.3100 
 128   0.0000       4.540520       123.5538 
 129   0.0000       4.585086       124.7665 
 130   0.0000       4.595758       125.0569 
 131   0.0000       5.001956       136.1101 
 132   0.0000       5.087043       138.4255 
 133   0.0000       5.133444       139.6881 
 134   0.0000       5.358138       145.8023 
 135   0.0000       5.367154       146.0477 
 136   0.0000       5.440698       148.0489 
 137   0.0000       5.510922       149.9598 
 138   0.0000       5.571217       151.6005 
 139   0.0000       5.821942       158.4231 
 140   0.0000       5.863391       159.5510 
 141   0.0000       5.906916       160.7354 
 142   0.0000       6.022067       163.8688 
 143   0.0000       6.049672       164.6199 
 144   0.0000       6.144216       167.1926 
 145   0.0000       6.286309       171.0592 
 146   0.0000       6.529589       177.6791 
 147   0.0000       6.575820       178.9372 
 148   0.0000       6.657918       181.1711 
 149   0.0000       6.758240       183.9011 
 150   0.0000       6.828593       185.8155 
 151   0.0000       6.853954       186.5056 
 152   0.0000       7.041410       191.6065 
 153   0.0000       7.064263       192.2284 
 154   0.0000       7.164255       194.9493 
 155   0.0000       7.196011       195.8134 
 156   0.0000       7.341322       199.7675 
 157   0.0000       8.085880       220.0280 
 158   0.0000       8.897011       242.1000 
 159   0.0000       9.340138       254.1581 
 160   0.0000       9.543003       259.6783 
 161   0.0000       9.564679       260.2681 
 162   0.0000       9.771647       265.9000 
 163   0.0000       9.878901       268.8186 
 164   0.0000       9.920487       269.9502 
 165   0.0000      10.072556       274.0882 
 166   0.0000      11.092419       301.8401 
 167   0.0000      19.085162       519.3337 
 168   0.0000      22.568601       614.1229 
 169   0.0000      43.691617      1188.9093 
 170   0.0000      65.926405      1793.9487 
 171   0.0000     126.393458      3439.3409 

                    ********************************
                    * MULLIKEN POPULATION ANALYSIS *
                    ********************************

-----------------------
MULLIKEN ATOMIC CHARGES
-----------------------
   0 C :   -0.000187
   1 O :    0.000082
   2 H :    0.000105
   3 H :    0.000035
   4 H :    0.000019
   5 H :   -0.000117
   6 C :   -0.163223
   7 O :   -0.466780
   8 H :    0.318001
   9 H :    0.103951
  10 H :    0.104168
  11 H :    0.103947
Sum of atomic charges:    0.0000000

--------------------------------
MULLIKEN REDUCED ORBITAL CHARGES
--------------------------------
  0 C s       :     0.000196  s :     0.000196
      pz      :    -0.000019  p :    -0.000009
      px      :     0.000099
      py      :    -0.000089
      dz2     :     0.000003  d :     0.000000
      dxz     :     0.000004
      dyz     :     0.000000
      dx2y2   :    -0.000001
      dxy     :    -0.000006
      f0      :     0.000000  f :    -0.000000
      f+1     :     0.000000
      f-1     :     0.000000
      f+2     :     0.000000
      f-2     :    -0.000000
      f+3     :     0.000000
      f-3     :    -0.000000
  1 O s       :    -0.000119  s :    -0.000119
      pz      :     0.000023  p :     0.000032
      px      :     0.000046
      py      :    -0.000036
      dz2     :     0.000001  d :     0.000004
      dxz     :     0.000000
      dyz     :    -0.000000
      dx2y2   :    -0.000000
      dxy     :     0.000004
      f0      :     0.000000  f :    -0.000000
      f+1     :    -0.000000
      f-1     :     0.000000
      f+2     :    -0.000000
      f-2     :    -0.000000
      f+3     :    -0.000000
      f-3     :     0.000000
  2 H s       :    -0.000106  s :    -0.000106
      pz      :     0.000000  p :     0.000001
      px      :    -0.000001
      py      :     0.000002
  3 H s       :    -0.000035  s :    -0.000035
      pz      :     0.000001  p :     0.000000
      px      :    -0.000000
      py      :    -0.000000
  4 H s       :    -0.000019  s :    -0.000019
      pz      :     0.000000  p :     0.000000
      px      :     0.000000
      py      :     0.000000
  5 H s       :     0.000117  s :     0.000117
      pz      :     0.000000  p :     0.000000
      px      :    -0.000000
      py      :     0.000000
  6 C s       :     3.207995  s :     3.207995
      pz      :     1.003892  p :     2.842202
      px      :     0.779411
      py      :     1.058900
      dz2     :     0.019686  d :     0.104538
      dxz     :     0.022513
      dyz     :     0.004106
      dx2y2   :     0.023436
      dxy     :     0.034798
      f0      :     0.001178  f :     0.008488
      f+1     :     0.001583
      f-1     :     0.000062
      f+2     :     0.001163
      f-2     :     0.001155
      f+3     :     0.001453
      f-3     :     0.001894
  7 O s       :     3.797689  s :     3.797689
      pz      :     1.590848  p :     4.635121
      px      :     1.336355
      py      :     1.707919
      dz2     :     0.004290  d :     0.032260
      dxz     :     0.011131
      dyz     :     0.006336
      dx2y2   :     0.004889
      dxy     :     0.005613
      f0      :     0.000098  f :     0.001710
      f+1     :     0.000213
      f-1     :     0.000132
      f+2     :     0.000221
      f-2     :     0.000414
      f+3     :     0.000292
      f-3     :     0.000341
  8 H s       :     0.637438  s :     0.637438
      pz      :     0.014243  p :     0.044561
      px      :     0.013300
      py      :     0.017018
  9 H s       :     0.876153  s :     0.876153
      pz      :     0.012292  p :     0.019896
      px      :     0.002769
      py      :     0.004835
 10 H s       :     0.875114  s :     0.875114
      pz      :     0.005022  p :     0.020718
      px      :     0.003750
      py      :     0.011946
 11 H s       :     0.875353  s :     0.875353
      pz      :     0.004947  p :     0.020701
      px      :     0.008546
      py      :     0.007208


                     *******************************
                     * LOEWDIN POPULATION ANALYSIS *
                     *******************************

----------------------
LOEWDIN ATOMIC CHARGES
----------------------
   0 C :   -0.001768
   1 O :   -0.001210
   2 H :   -0.000489
   3 H :   -0.000222
   4 H :   -0.000028
   5 H :   -0.000095
   6 C :   -0.419665
   7 O :   -0.054612
   8 H :    0.186901
   9 H :    0.092545
  10 H :    0.109076
  11 H :    0.089566

-------------------------------
LOEWDIN REDUCED ORBITAL CHARGES
-------------------------------
  0 C s       :     0.000256  s :     0.000256
      pz      :     0.000198  p :     0.001492
      px      :     0.001116
      py      :     0.000178
      dz2     :     0.000004  d :     0.000019
      dxz     :     0.000003
      dyz     :     0.000000
      dx2y2   :     0.000002
      dxy     :     0.000010
      f0      :     0.000000  f :     0.000000
      f+1     :     0.000000
      f-1     :     0.000000
      f+2     :     0.000000
      f-2     :     0.000000
      f+3     :     0.000000
      f-3     :     0.000000
  1 O s       :     0.000098  s :     0.000098
      pz      :     0.000020  p :     0.001099
      px      :     0.000626
      py      :     0.000453
      dz2     :     0.000003  d :     0.000012
      dxz     :     0.000000
      dyz     :     0.000000
      dx2y2   :     0.000001
      dxy     :     0.000008
      f0      :     0.000000  f :     0.000000
      f+1     :     0.000000
      f-1     :     0.000000
      f+2     :     0.000000
      f-2     :     0.000000
      f+3     :     0.000000
      f-3     :     0.000000
  2 H s       :     0.000489  s :     0.000489
      pz      :     0.000000  p :     0.000000
      px      :     0.000000
      py      :     0.000000
  3 H s       :     0.000222  s :     0.000222
      pz      :     0.000000  p :     0.000000
      px      :     0.000000
      py      :     0.000000
  4 H s       :     0.000028  s :     0.000028
      pz      :     0.000000  p :     0.000000
      px      :     0.000000
      py      :     0.000000
  5 H s       :     0.000095  s :     0.000095
      pz      :     0.000000  p :     0.000000
      px      :     0.000000
      py      :     0.000000
  6 C s       :     2.842153  s :     2.842153
      pz      :     1.071968  p :     3.067056
      px      :     0.904375
      py      :     1.090714
      dz2     :     0.100127  d :     0.446442
      dxz     :     0.099856
      dyz     :     0.021024
      dx2y2   :     0.099706
      dxy     :     0.125728
      f0      :     0.006206  f :     0.064014
      f+1     :     0.010259
      f-1     :     0.001181
      f+2     :     0.013123
      f-2     :     0.010871
      f+3     :     0.011023
      f-3     :     0.011352
  7 O s       :     3.360236  s :     3.360236
      pz      :     1.586701  p :     4.611132
      px      :     1.387281
      py      :     1.637150
      dz2     :     0.008830  d :     0.078066
      dxz     :     0.026136
      dyz     :     0.009838
      dx2y2   :     0.013726
      dxy     :     0.019535
      f0      :     0.000293  f :     0.005179
      f+1     :     0.001208
      f-1     :     0.000276
      f+2     :     0.000711
      f-2     :     0.001089
      f+3     :     0.000723
      f-3     :     0.000879
  8 H s       :     0.667211  s :     0.667211
      pz      :     0.055754  p :     0.145888
      px      :     0.036634
      py      :     0.053499
  9 H s       :     0.844773  s :     0.844773
      pz      :     0.037320  p :     0.062682
      px      :     0.009913
      py      :     0.015450
 10 H s       :     0.832878  s :     0.832878
      pz      :     0.014873  p :     0.058046
      px      :     0.010213
      py      :     0.032960
 11 H s       :     0.846011  s :     0.846011
      pz      :     0.016108  p :     0.064424
      px      :     0.024964
      py      :     0.023352


                      *****************************
                      * MAYER POPULATION ANALYSIS *
                      *****************************

  NA   - Mulliken gross atomic population
  ZA   - Total nuclear charge
  QA   - Mulliken gross atomic charge
  VA   - Mayer's total valence
  BVA  - Mayer's bonded valence
  FA   - Mayer's free valence

  ATOM       NA         ZA         QA         VA         BVA        FA
  0 C      0.0002     0.0000    -0.0002     0.0004     0.0004     0.0000
  1 O     -0.0001     0.0000     0.0001    -0.0002    -0.0002    -0.0000
  2 H     -0.0001     0.0000     0.0001    -0.0002    -0.0002    -0.0000
  3 H     -0.0000     0.0000     0.0000    -0.0001    -0.0001     0.0000
  4 H     -0.0000     0.0000     0.0000    -0.0000    -0.0000    -0.0000
  5 H      0.0001     0.0000    -0.0001     0.0002     0.0002     0.0000
  6 C      6.1632     6.0000    -0.1632     3.9490     3.9490     0.0000
  7 O      8.4668     8.0000    -0.4668     1.8915     1.8915     0.0000
  8 H      0.6820     1.0000     0.3180     0.9078     0.9078     0.0000
  9 H      0.8960     1.0000     0.1040     0.9558     0.9558     0.0000
 10 H      0.8958     1.0000     0.1042     0.9568     0.9568     0.0000
 11 H      0.8961     1.0000     0.1039     0.9484     0.9484     0.0000

  Mayer bond orders larger than 0.1
B(  6-C ,  7-O ) :   1.0115 B(  6-C ,  9-H ) :   0.9792 B(  6-C , 10-H ) :   0.9792 
B(  6-C , 11-H ) :   0.9694 B(  7-O ,  8-H ) :   0.8949 

-------
TIMINGS
-------

Total SCF time: 0 days 0 hours 0 min 14 sec 

Total time                  ....      14.591 sec
Sum of individual times     ....      14.226 sec  ( 97.5%)

Fock matrix formation       ....      13.625 sec  ( 93.4%)
  XC integration            ....       6.711 sec  ( 49.3% of F)
    Basis function eval.    ....       0.058 sec  (  0.9% of XC)
    Density eval.           ....       0.072 sec  (  1.1% of XC)
    XC-Functional eval.     ....       0.104 sec  (  1.5% of XC)
    XC-Potential eval.      ....       0.055 sec  (  0.8% of XC)
Diagonalization             ....       0.089 sec  (  0.6%)
Density matrix formation    ....       0.005 sec  (  0.0%)
Population analysis         ....       0.018 sec  (  0.1%)
Initial guess               ....       0.109 sec  (  0.7%)
Orbital Transformation      ....       0.000 sec  (  0.0%)
Orbital Orthonormalization  ....       0.000 sec  (  0.0%)
DIIS solution               ....       0.057 sec  (  0.4%)
SOSCF solution              ....       0.025 sec  (  0.2%)
Grid generation             ....       0.299 sec  (  2.0%)


-------------------------------------------------------------------------------
                          DFT DISPERSION CORRECTION                            
                                                                               
                              DFTD3 V3.1  Rev 1                                
                              USING zero damping                               
-------------------------------------------------------------------------------
The omegaB97X-D3 functional is recognized. Fit by Chai et al.
Active option DFTDOPT                   ...         3   

molecular C6(AA) [au] = 208.670637 


            DFT-D V3
 parameters
 s6 scaling factor         :     1.0000 
 rs6 scaling factor        :     1.2810 
 s8 scaling factor         :     1.0000 
 rs8 scaling factor        :     1.0940 
 Damping factor alpha6     :    14.0000 
 Damping factor alpha8     :    16.0000 
 ad hoc parameters k1-k3   :    16.0000     1.3333    -4.0000 

 Edisp/kcal,au: -0.149283787531  -0.000237898833 
 E6   /kcal   :  -0.028437840 
 E8   /kcal   :  -0.120845947 
 % E8         :  80.950483164 

-------------------------   ----------------
Dispersion correction           -0.000237899
-------------------------   ----------------


-------------------------   --------------------
FINAL SINGLE POINT ENERGY      -115.732030388342
-------------------------   --------------------


                            ***************************************
                            *     ORCA property calculations      *
                            ***************************************

                                    ---------------------
                                    Active property flags
                                    ---------------------
   (+) Dipole Moment


------------------------------------------------------------------------------
                       ORCA ELECTRIC PROPERTIES CALCULATION
------------------------------------------------------------------------------

Dipole Moment Calculation                       ... on
Quadrupole Moment Calculation                   ... off
Polarizability Calculation                      ... off
GBWName                                         ... 13-71_DFT_B.gbw
Electron density file                           ... 13-71_DFT_B.scfp.tmp
The origin for moment calculation is the CENTER OF MASS  = ( 8.570861, -17.673977  9.897894)

-------------
DIPOLE MOMENT
-------------
                                X             Y             Z
Electronic contribution:     -1.61492       0.43104      -0.83500
Nuclear contribution   :      1.73358      -0.18994       1.46332
                        -----------------------------------------
Total Dipole Moment    :      0.11866       0.24110       0.62832
                        -----------------------------------------
Magnitude (a.u.)       :      0.68337
Magnitude (Debye)      :      1.73700



--------------------
Rotational spectrum 
--------------------
 
Rotational constants in cm-1:     4.407765     0.865325     0.836619 
Rotational constants in MHz : 132141.460899 25941.785730 25081.213075 

 Dipole components along the rotational axes: 
x,y,z [a.u.] :    -0.281832     0.621706     0.032434 
x,y,z [Debye]:    -0.716359     1.580252     0.082441 

 
------------------------------------------------------------------------------
                      ORCA CHELPG CHARGES GENERATION
------------------------------------------------------------------------------

GBW file                           ... 13-71_DFT_B.gbw

Reading the GBW file               ... done

Grid spacing                       ...     0.300000
Point Cut-Off                      ...     2.800000
Van-der-Waals Radii                ...        COSMO
Total charge                       ...            0


Number of points X direction       ...           40
Number of points Y direction       ...           32
Number of points Z direction       ...           29
Maximum number of possible points  ...        37120
Final number of points             ...         5939


CHELPG Charges            
--------------------------------
  0   C   :       0.027655
  1   O   :      -0.001700
  2   H   :      -0.000551
  3   H   :       0.003246
  4   H   :       0.001296
  5   H   :      -0.039814
  6   C   :       0.114815
  7   O   :      -0.583323
  8   H   :       0.387367
  9   H   :       0.006005
 10   H   :       0.057944
 11   H   :       0.027062
--------------------------------
Total charge:     0.000000
--------------------------------

CHELPG charges calculated...

Timings for individual parts in CHELPG calculation:
Grid generation                 ...        0.001 sec (=   0.000 min)
Potential calculation           ...        1.091 sec (=   0.018 min)
Fit to the potential            ...        0.002 sec (=   0.000 min)
------------------------------------------------------------------------------


Timings for individual modules:

Sum of individual times         ...       16.688 sec (=   0.278 min)
GTO integral calculation        ...        0.579 sec (=   0.010 min)   3.5 %
SCF iterations                  ...       14.985 sec (=   0.250 min)  89.8 %
CHELPG charge generation        ...        1.124 sec (=   0.019 min)   6.7 %



                             ****ORCA TERMINATED NORMALLY****
TOTAL RUN TIME: 0 days 0 hours 1 minutes 5 seconds 374 msec
