
                                 *****************
                                 * O   R   C   A *
                                 *****************

           --- An Ab Initio, DFT and Semiempirical electronic structure package ---

                  #######################################################
                  #                        -***-                        #
                  #          Department of theory and spectroscopy      #
                  #               Directorship: Frank Neese             #
                  #        Max Planck Institute fuer Kohlenforschung    #
                  #                Kaiser Wilhelm Platz 1               #
                  #                 D-45470 Muelheim/Ruhr               #
                  #                      Germany                        #
                  #                                                     #
                  #                  All rights reserved                #
                  #                        -***-                        #
                  #######################################################


                         Program Version 4.1.2  - RELEASE  -


 With contributions from (in alphabetic order):
   Daniel Aravena         : Magnetic Properties
   Michael Atanasov       : Ab Initio Ligand Field Theory
   Alexander A. Auer      : GIAO ZORA
   Ute Becker             : Parallelization
   Giovanni Bistoni       : ED, Open-shell LED
   Martin Brehm           : Molecular dynamics
   Dmytro Bykov           : SCF Hessian
   Vijay G. Chilkuri      : MRCI spin determinant printing
   Dipayan Datta          : RHF DLPNO-CCSD density
   Achintya Kumar Dutta   : EOM-CC, STEOM-CC
   Dmitry Ganyushin       : Spin-Orbit,Spin-Spin,Magnetic field MRCI
   Miquel Garcia          : C-PCM Hessian
   Yang Guo               : DLPNO-NEVPT2, CIM, IAO-localization
   Andreas Hansen         : Spin unrestricted coupled pair/coupled cluster methods
   Benjamin Helmich-Paris : CASSCF linear response (MC-RPA)
   Lee Huntington         : MR-EOM, pCC
   Robert Izsak           : Overlap fitted RIJCOSX, COSX-SCS-MP3, EOM
   Christian Kollmar      : KDIIS, OOCD, Brueckner-CCSD(T), CCSD density
   Simone Kossmann        : Meta GGA functionals, TD-DFT gradient, OOMP2, MP2 Hessian
   Martin Krupicka        : AUTO-CI
   Lucas Lang             : DCDCAS
   Dagmar Lenk            : GEPOL surface, SMD
   Dimitrios Liakos       : Extrapolation schemes; parallel MDCI
   Dimitrios Manganas     : ROCIS; embedding schemes
   Dimitrios Pantazis     : SARC Basis sets
   Taras Petrenko         : DFT Hessian,TD-DFT gradient, ASA, ECA, R-Raman, ABS, FL, XAS/XES, NRVS
   Peter Pinski           : DLPNO-MP2, DLPNO-MP2 Gradient
   Christoph Reimann      : Effective Core Potentials
   Marius Retegan         : Local ZFS, SOC
   Christoph Riplinger    : Optimizer, TS searches, QM/MM, DLPNO-CCSD(T), (RO)-DLPNO pert. Triples
   Tobias Risthaus        : Range-separated hybrids, TD-DFT gradient, RPA, STAB
   Michael Roemelt        : Restricted open shell CIS
   Masaaki Saitow         : Open-shell DLPNO
   Barbara Sandhoefer     : DKH picture change effects
   Avijit Sen             : IP-ROCIS
   Kantharuban Sivalingam : CASSCF convergence, NEVPT2, FIC-MRCI
   Bernardo de Souza      : ESD, SOC TD-DFT
   Georgi Stoychev        : AutoAux, RI-MP2 NMR
   Willem Van den Heuvel  : Paramagnetic NMR
   Boris Wezisla          : Elementary symmetry handling
   Frank Wennmohs         : Technical directorship


 We gratefully acknowledge several colleagues who have allowed us to
 interface, adapt or use parts of their codes:
   Stefan Grimme, W. Hujo, H. Kruse,             : VdW corrections, initial TS optimization,
                  C. Bannwarth                     DFT functionals, gCP, sTDA/sTD-DF
   Ed Valeev                                     : LibInt (2-el integral package), F12 methods
   Garnet Chan, S. Sharma, J. Yang, R. Olivares  : DMRG
   Ulf Ekstrom                                   : XCFun DFT Library
   Mihaly Kallay                                 : mrcc  (arbitrary order and MRCC methods)
   Andreas Klamt, Michael Diedenhofen            : otool_cosmo (COSMO solvation model)
   Jiri Pittner, Ondrej Demel                    : Mk-CCSD
   Frank Weinhold                                : gennbo (NPA and NBO analysis)
   Christopher J. Cramer and Donald G. Truhlar   : smd solvation model
   Lars Goerigk                                  : TD-DFT with DH, B97 family of functionals
   V. Asgeirsson, H. Jonsson                     : NEB implementation
   FAccTs GmbH                                   : IRC, NEB, NEB-TS, Multilevel


 Your calculation uses the libint2 library for the computation of 2-el integrals
 For citations please refer to: http://libint.valeyev.net

 This ORCA versions uses:
   CBLAS   interface :  Fast vector & matrix operations
   LAPACKE interface :  Fast linear algebra routines
   SCALAPACK package :  Parallel linear algebra routines


Your calculation utilizes the atom-pairwise dispersion correction
with the zero-damping scheme (D30)
Cite in your paper:
S.Grimme, J.Antony, S.Ehrlich and H.Krieg, J.Chem.Phys., 132, (2010), 154104 
   

XCFun DFT library Copyright 2009-2010 Ulf Ekstrom and contributors.
See http://admol.org/xcfun for more information. This is free soft-
ware; see the source code for copying conditions. There is ABSOLUTELY
NO WARRANTY; not even for MERCHANTABILITY or FITNESS FOR A PARTICULAR
PURPOSE. For details see the documentation. Scientific users of this 
library should cite U. Ekstrom, L. Visscher, R. Bast, A. J. Thorvald-
sen and K. Ruud; J.Chem.Theor.Comp. 2010, DOI: 10.1021/ct100117s
XCFun Version 0.99 
----- Orbital basis set information -----
Your calculation utilizes the basis: def2-TZVP
   F. Weigend and R. Ahlrichs, Phys. Chem. Chem. Phys. 7, 3297 (2005).

================================================================================
                                        WARNINGS
                       Please study these warnings very carefully!
================================================================================


INFO   : the flag for use of LIBINT has been found!

Your calculation utilizes the atom-pairwise dispersion correction
with the zero-damping scheme (D30)
Cite in your paper:
S.Grimme, J.Antony, S.Ehrlich and H.Krieg, J.Chem.Phys., 132, (2010), 154104 
   

XCFun DFT library Copyright 2009-2010 Ulf Ekstrom and contributors.
See http://admol.org/xcfun for more information. This is free soft-
ware; see the source code for copying conditions. There is ABSOLUTELY
NO WARRANTY; not even for MERCHANTABILITY or FITNESS FOR A PARTICULAR
PURPOSE. For details see the documentation. Scientific users of this 
library should cite U. Ekstrom, L. Visscher, R. Bast, A. J. Thorvald-
sen and K. Ruud; J.Chem.Theor.Comp. 2010, DOI: 10.1021/ct100117s
XCFun Version 0.99 
----- Orbital basis set information -----
Your calculation utilizes the basis: def2-TZVP
   F. Weigend and R. Ahlrichs, Phys. Chem. Chem. Phys. 7, 3297 (2005).

================================================================================
                                        WARNINGS
                       Please study these warnings very carefully!
================================================================================


WARNING: MOInp is set but Guess=PModel. MOInp will be ignored!
         To read the initial guess from a file you must also specify
         'MORead' in the simple input or 'Guess MORead' in the %scf block


INFO   : the flag for use of LIBINT has been found!

Your calculation utilizes the atom-pairwise dispersion correction
with the zero-damping scheme (D30)
Cite in your paper:
S.Grimme, J.Antony, S.Ehrlich and H.Krieg, J.Chem.Phys., 132, (2010), 154104 
   

XCFun DFT library Copyright 2009-2010 Ulf Ekstrom and contributors.
See http://admol.org/xcfun for more information. This is free soft-
ware; see the source code for copying conditions. There is ABSOLUTELY
NO WARRANTY; not even for MERCHANTABILITY or FITNESS FOR A PARTICULAR
PURPOSE. For details see the documentation. Scientific users of this 
library should cite U. Ekstrom, L. Visscher, R. Bast, A. J. Thorvald-
sen and K. Ruud; J.Chem.Theor.Comp. 2010, DOI: 10.1021/ct100117s
XCFun Version 0.99 
----- Orbital basis set information -----
Your calculation utilizes the basis: def2-TZVP
   F. Weigend and R. Ahlrichs, Phys. Chem. Chem. Phys. 7, 3297 (2005).

================================================================================
                                        WARNINGS
                       Please study these warnings very carefully!
================================================================================


WARNING: MOInp is set but Guess=PModel. MOInp will be ignored!
         To read the initial guess from a file you must also specify
         'MORead' in the simple input or 'Guess MORead' in the %scf block


INFO   : the flag for use of LIBINT has been found!

================================================================================
                                       INPUT FILE
================================================================================
NAME = 3-198.in
|  1> #Run DFT-D3 single point of the dimer
|  2> ! wB97X-D3 def2-TZVP TIGHTSCF CHELPG PMODEL PAL8
|  3> 
|  4> %base "3-198_DFT_AB"
|  5> 
|  6> %scf
|  7> MaxIter 1000
|  8> end
|  9> 
| 10> * xyz 0 1
| 11>   C                      1.126425             -7.979691            8.688435            
| 12>   O                      0.167515             -7.011438            8.689688            
| 13>   H                      -0.711181            -7.413790            8.442444            
| 14>   H                      1.685178             -7.866956            9.647331            
| 15>   H                      0.695395             -8.997913            8.613979            
| 16>   H                      1.773083             -7.918611            7.867989            
| 17>   C                      -2.337670            -11.185197           7.249614            
| 18>   O                      -1.000617            -10.717847           7.363358            
| 19>   H                      -0.325757            -11.363005           7.607050            
| 20>   H                      -2.390018            -12.137646           6.768897            
| 21>   H                      -2.777101            -11.323087           8.235019            
| 22>   H                      -2.969135            -10.471276           6.641373            
| 23> *
| 24> 
| 25> #Run DFT-D3 single point of the molecule with dimer basis set
| 26> $new_job
| 27> %base "3-198_DFT_A"
| 28> ! wB97X-D3 def2-TZVP TIGHTSCF CHELPG PMODEL
| 29> 
| 30> %scf
| 31> MaxIter 1000
| 32> end
| 33> 
| 34> * xyz 0 1
| 35>   C                      1.126425             -7.979691            8.688435            
| 36>   O                      0.167515             -7.011438            8.689688            
| 37>   H                      -0.711181            -7.413790            8.442444            
| 38>   H                      1.685178             -7.866956            9.647331            
| 39>   H                      0.695395             -8.997913            8.613979            
| 40>   H                      1.773083             -7.918611            7.867989            
| 41>   C                    : -2.337670            -11.185197           7.249614            
| 42>   O                    : -1.000617            -10.717847           7.363358            
| 43>   H                    : -0.325757            -11.363005           7.607050            
| 44>   H                    : -2.390018            -12.137646           6.768897            
| 45>   H                    : -2.777101            -11.323087           8.235019            
| 46>   H                    : -2.969135            -10.471276           6.641373            
| 47> *
| 48> 
| 49> #Run DFT-D3 single point of the particle with dimer basis set
| 50> $new_job
| 51> %base "3-198_DFT_B"
| 52> ! wB97X-D3 def2-TZVP TIGHTSCF CHELPG PMODEL
| 53> 
| 54> %scf
| 55> MaxIter 1000
| 56> end
| 57> 
| 58> * xyz 0 1
| 59>   C                    : 1.126425             -7.979691            8.688435            
| 60>   O                    : 0.167515             -7.011438            8.689688            
| 61>   H                    : -0.711181            -7.413790            8.442444            
| 62>   H                    : 1.685178             -7.866956            9.647331            
| 63>   H                    : 0.695395             -8.997913            8.613979            
| 64>   H                    : 1.773083             -7.918611            7.867989            
| 65>   C                      -2.337670            -11.185197           7.249614            
| 66>   O                      -1.000617            -10.717847           7.363358            
| 67>   H                      -0.325757            -11.363005           7.607050            
| 68>   H                      -2.390018            -12.137646           6.768897            
| 69>   H                      -2.777101            -11.323087           8.235019            
| 70>   H                      -2.969135            -10.471276           6.641373            
| 71> *
| 72> 
| 73>                          ****END OF INPUT****
================================================================================


                 $$$$$$$$$$$$$$$$$$$$$$$$$$$$$$$$$$$$$$$$$$$$$$ 
                 $ THERE ARE  3 JOBS TO BE PROCESSED THIS RUN $
                 $$$$$$$$$$$$$$$$$$$$$$$$$$$$$$$$$$$$$$$$$$$$$$ 




                 $$$$$$$$$$$$$$$$  JOB NUMBER  1 $$$$$$$$$$$$$$


                       ****************************
                       * Single Point Calculation *
                       ****************************

---------------------------------
CARTESIAN COORDINATES (ANGSTROEM)
---------------------------------
  C      1.126425   -7.979691    8.688435
  O      0.167515   -7.011438    8.689688
  H     -0.711181   -7.413790    8.442444
  H      1.685178   -7.866956    9.647331
  H      0.695395   -8.997913    8.613979
  H      1.773083   -7.918611    7.867989
  C     -2.337670  -11.185197    7.249614
  O     -1.000617  -10.717847    7.363358
  H     -0.325757  -11.363005    7.607050
  H     -2.390018  -12.137646    6.768897
  H     -2.777101  -11.323087    8.235019
  H     -2.969135  -10.471276    6.641373

----------------------------
CARTESIAN COORDINATES (A.U.)
----------------------------
  NO LB      ZA    FRAG     MASS         X           Y           Z
   0 C     6.0000    0    12.011    2.128635  -15.079431   16.418763
   1 O     8.0000    0    15.999    0.316557  -13.249698   16.421131
   2 H     1.0000    0     1.008   -1.343937  -14.010033   15.953907
   3 H     1.0000    0     1.008    3.184525  -14.866392   18.230814
   4 H     1.0000    0     1.008    1.314106  -17.003591   16.278061
   5 H     1.0000    0     1.008    3.350641  -14.964006   14.868344
   6 C     6.0000    0    12.011   -4.417556  -21.136959   13.699785
   7 O     8.0000    0    15.999   -1.890892  -20.253796   13.914730
   8 H     1.0000    0     1.008   -0.615592  -21.472968   14.375241
   9 H     1.0000    0     1.008   -4.516479  -22.936827   12.791362
  10 H     1.0000    0     1.008   -5.247960  -21.397533   15.561931
  11 H     1.0000    0     1.008   -5.610852  -19.787844   12.550376

--------------------------------
INTERNAL COORDINATES (ANGSTROEM)
--------------------------------
 C      0   0   0     0.000000000000     0.00000000     0.00000000
 O      1   0   0     1.362726616060     0.00000000     0.00000000
 H      2   1   0     0.997558713989   109.45194444     0.00000000
 H      1   2   3     1.115524824488   106.25207142   228.33201676
 H      1   2   3     1.108199710395   112.28467595   348.88356899
 H      1   2   3     1.046436321178   113.20918792   106.23675890
 C      5   1   2     3.980601266656   145.51373904    29.05237872
 O      7   5   1     1.420937875083    22.31001164   114.46023446
 H      8   7   5     0.964909661796   117.28513056   120.65498699
 H      7   5   1     1.068170512977   132.96490014   137.76860451
 H      7   5   1     1.087720676408    93.84010186   253.80776810
 H      7   5   1     1.130658372165   105.24689280     5.72892171

---------------------------
INTERNAL COORDINATES (A.U.)
---------------------------
 C      0   0   0     0.000000000000     0.00000000     0.00000000
 O      1   0   0     2.575180099758     0.00000000     0.00000000
 H      2   1   0     1.885112771946   109.45194444     0.00000000
 H      1   2   3     2.108036413874   106.25207142   228.33201676
 H      1   2   3     2.094193954338   112.28467595   348.88356899
 H      1   2   3     1.977478063614   113.20918792   106.23675890
 C      5   1   2     7.522246242321   145.51373904    29.05237872
 O      7   5   1     2.685183437223    22.31001164   114.46023446
 H      8   7   5     1.823415004770   117.28513056   120.65498699
 H      7   5   1     2.018549733857   132.96490014   137.76860451
 H      7   5   1     2.055494188615    93.84010186   253.80776810
 H      7   5   1     2.136634674417   105.24689280     5.72892171

---------------------
BASIS SET INFORMATION
---------------------
There are 3 groups of distinct atoms

 Group   1 Type C   : 11s6p2d1f contracted to 5s3p2d1f pattern {62111/411/11/1}
 Group   2 Type O   : 11s6p2d1f contracted to 5s3p2d1f pattern {62111/411/11/1}
 Group   3 Type H   : 5s1p contracted to 3s1p pattern {311/1}

Atom   0C    basis set group =>   1
Atom   1O    basis set group =>   2
Atom   2H    basis set group =>   3
Atom   3H    basis set group =>   3
Atom   4H    basis set group =>   3
Atom   5H    basis set group =>   3
Atom   6C    basis set group =>   1
Atom   7O    basis set group =>   2
Atom   8H    basis set group =>   3
Atom   9H    basis set group =>   3
Atom  10H    basis set group =>   3
Atom  11H    basis set group =>   3


           ************************************************************
           *        Program running with 8 parallel MPI-processes     *
           *              working on a common directory               *
           ************************************************************
------------------------------------------------------------------------------
                           ORCA GTO INTEGRAL CALCULATION
------------------------------------------------------------------------------

                         BASIS SET STATISTICS AND STARTUP INFO

 # of primitive gaussian shells          ...  128
 # of primitive gaussian functions       ...  248
 # of contracted shells                  ...   76
 # of contracted basis functions         ...  172
 Highest angular momentum                ...    3
 Maximum contraction depth               ...    6
 Integral package used                   ... LIBINT
 Integral threshhold            Thresh   ...  2.500e-11
 Primitive cut-off              TCut     ...  2.500e-12


------------------------------ INTEGRAL EVALUATION ----------------------------


 * One electron integrals 
 Pre-screening matrix                    ... done
 Shell pair data                         ... done (   0.001 sec)



           ************************************************************
           *        Program running with 8 parallel MPI-processes     *
           *              working on a common directory               *
           ************************************************************
-------------------------------------------------------------------------------
                                 ORCA SCF
-------------------------------------------------------------------------------

------------
SCF SETTINGS
------------
Hamiltonian:
 Density Functional     Method          .... DFT(GTOs)
 Exchange Functional    Exchange        .... WB97X-D3
 Correlation Functional Correlation     .... WB97X-D3
 Gradients option       PostSCFGGA      .... off
 Hybrid DFT is turned on
   Fraction HF Exchange ScalHFX         ....  0.195728
   Scaling of DF-GGA-X  ScalDFX         ....  0.000000
   Scaling of DF-GGA-C  ScalDFC         ....  1.000000
   Scaling of DF-LDA-C  ScalLDAC        ....  1.000000
   Perturbative correction              ....  0.000000
   Density functional embedding theory  .... OFF
 Long-range corrected/Screened/Range-Separated Hybrid DFT is turned on
   Amount of maximum screened exact exchange              ....  0.804272
   Range separation parameter mu (erf(mu*r12)/r12)        ....  0.250000


General Settings:
 Integral files         IntName         .... 3-198_DFT_AB
 Hartree-Fock type      HFTyp           .... RHF
 Total Charge           Charge          ....    0
 Multiplicity           Mult            ....    1
 Number of Electrons    NEL             ....   36
 Basis Dimension        Dim             ....  172
 Nuclear Repulsion      ENuc            ....    120.3150818483 Eh

Convergence Acceleration:
 DIIS                   CNVDIIS         .... on
   Start iteration      DIISMaxIt       ....    12
   Startup error        DIISStart       ....  0.200000
   # of expansion vecs  DIISMaxEq       ....     5
   Bias factor          DIISBfac        ....   1.050
   Max. coefficient     DIISMaxC        ....  10.000
 Newton-Raphson         CNVNR           .... off
 SOSCF                  CNVSOSCF        .... on
   Start iteration      SOSCFMaxIt      ....   150
   Startup grad/error   SOSCFStart      ....  0.003300
 Level Shifting         CNVShift        .... on
   Level shift para.    LevelShift      ....    0.2500
   Turn off err/grad.   ShiftErr        ....    0.0010
 Zerner damping         CNVZerner       .... off
 Static damping         CNVDamp         .... on
   Fraction old density DampFac         ....    0.7000
   Max. Damping (<1)    DampMax         ....    0.9800
   Min. Damping (>=0)   DampMin         ....    0.0000
   Turn off err/grad.   DampErr         ....    0.1000
 Fernandez-Rico         CNVRico         .... off

SCF Procedure:
 Maximum # iterations   MaxIter         ....  1000
 SCF integral mode      SCFMode         .... Direct
   Integral package                     .... LIBINT
 Reset frequency        DirectResetFreq ....    20
 Integral Threshold     Thresh          ....  2.500e-11 Eh
 Primitive CutOff       TCut            ....  2.500e-12 Eh

Convergence Tolerance:
 Convergence Check Mode ConvCheckMode   .... Total+1el-Energy
 Convergence forced     ConvForced      .... 0
 Energy Change          TolE            ....  1.000e-08 Eh
 1-El. energy change                    ....  1.000e-05 Eh
 Orbital Gradient       TolG            ....  1.000e-05
 Orbital Rotation angle TolX            ....  1.000e-05
 DIIS Error             TolErr          ....  5.000e-07


Diagonalization of the overlap matrix:
Smallest eigenvalue                        ... 1.295e-03
Time for diagonalization                   ...    0.004 sec
Threshold for overlap eigenvalues          ... 1.000e-08
Number of eigenvalues below threshold      ... 0
Time for construction of square roots      ...    0.307 sec
Total time needed                          ...    0.310 sec

-------------------
DFT GRID GENERATION
-------------------

General Integration Accuracy     IntAcc      ...  4.340
Radial Grid Type                 RadialGrid  ... Gauss-Chebyshev
Angular Grid (max. acc.)         AngularGrid ... Lebedev-110
Angular grid pruning method      GridPruning ... 3 (G Style)
Weight generation scheme         WeightScheme... Becke
Basis function cutoff            BFCut       ...    1.0000e-11
Integration weight cutoff        WCut        ...    1.0000e-14
Grids for H and He will be reduced by one unit

# of grid points (after initial pruning)     ...  13096 (   0.0 sec)
# of grid points (after weights+screening)   ...  12530 (   0.0 sec)
nearest neighbour list constructed           ...    0.0 sec
Grid point re-assignment to atoms done       ...    0.0 sec
Grid point division into batches done        ...    0.0 sec
Reduced shell lists constructed in    0.3 sec

Total number of grid points                  ...    12530
Total number of batches                      ...      201
Average number of points per batch           ...       62
Average number of grid points per atom       ...     1044
Average number of shells per batch           ...    47.00 (61.84%)
Average number of basis functions per batch  ...   102.70 (59.71%)
Average number of large shells per batch     ...    38.41 (81.72%)
Average number of large basis fcns per batch ...    85.15 (82.91%)
Maximum spatial batch extension              ...  13.97, 14.31, 16.34 au
Average spatial batch extension              ...   0.33,  0.39,  0.43 au

Time for grid setup =    1.689 sec

------------------------------
INITIAL GUESS: MODEL POTENTIAL
------------------------------
Loading Hartree-Fock densities                     ... done
Calculating cut-offs                               ... done
Setting up the integral package                    ... done
Initializing the effective Hamiltonian             ... done
Starting the Coulomb interaction                   ... done (   0.0 sec)
Reading the grid                                   ... done
Mapping shells                                     ... done
Starting the XC term evaluation                    ... done (   0.0 sec)
  promolecular density results
     # of electrons  =     35.993680658
     EX              =    -28.865128560
     EC              =     -1.152043004
     EX+EC           =    -30.017171564
Transforming the Hamiltonian                       ... done (   0.3 sec)
Diagonalizing the Hamiltonian                      ... done (   0.0 sec)
Back transforming the eigenvectors                 ... done (   0.0 sec)
Now organizing SCF variables                       ... done
                      ------------------
                      INITIAL GUESS DONE (   2.7 sec)
                      ------------------
--------------
SCF ITERATIONS
--------------
ITER       Energy         Delta-E        Max-DP      RMS-DP      [F,P]     Damp
               ***  Starting incremental Fock matrix formation  ***
  0   -231.2877123086   0.000000000000 0.03769975  0.00108972  0.2481083 0.7000
  1   -231.3635175428  -0.075805234159 0.02298115  0.00078264  0.1240669 0.7000
                               ***Turning on DIIS***
  2   -231.3983158108  -0.034798267989 0.03540587  0.00141424  0.0492929 0.0000
  3   -231.4547357804  -0.056419969639 0.01838578  0.00051180  0.0623249 0.0000
  4   -231.4640935048  -0.009357724401 0.00412124  0.00009987  0.0064059 0.0000
                      *** Initiating the SOSCF procedure ***
                           *** Shutting down DIIS ***
                      *** Re-Reading the Fockian *** 
                      *** Removing any level shift *** 
ITER      Energy       Delta-E        Grad      Rot      Max-DP    RMS-DP
  5   -231.46427849  -0.0001849893  0.000431  0.000431  0.000808  0.000035
               *** Restarting incremental Fock matrix formation ***
  6   -231.46429540  -0.0000169013  0.000142  0.000158  0.000543  0.000020
  7   -231.46429685  -0.0000014578  0.000046  0.000093  0.000257  0.000009
  8   -231.46429696  -0.0000001091  0.000027  0.000019  0.000049  0.000001
  9   -231.46429699  -0.0000000246  0.000011  0.000008  0.000020  0.000001
                  ***Gradient check signals convergence***
              ***Rediagonalizing the Fockian in SOSCF/NRSCF***

               *****************************************************
               *                     SUCCESS                       *
               *           SCF CONVERGED AFTER  10 CYCLES          *
               *****************************************************

Setting up the final grid:

General Integration Accuracy     IntAcc      ...  4.670
Radial Grid Type                 RadialGrid  ... Gauss-Chebyshev
Angular Grid (max. acc.)         AngularGrid ... Lebedev-302
Angular grid pruning method      GridPruning ... 3 (G Style)
Weight generation scheme         WeightScheme... Becke
Basis function cutoff            BFCut       ...    1.0000e-11
Integration weight cutoff        WCut        ...    1.0000e-14
Grids for H and He will be reduced by one unit

# of grid points (after initial pruning)     ...  52000 (   0.0 sec)
# of grid points (after weights+screening)   ...  49360 (   0.0 sec)
nearest neighbour list constructed           ...    0.0 sec
Grid point re-assignment to atoms done       ...    0.0 sec
Grid point division into batches done        ...    0.2 sec
Reduced shell lists constructed in    0.2 sec

Total number of grid points                  ...    49360
Total number of batches                      ...      777
Average number of points per batch           ...       63
Average number of grid points per atom       ...     4113
Average number of shells per batch           ...    45.24 (59.53%)
Average number of basis functions per batch  ...    98.70 (57.38%)
Average number of large shells per batch     ...    36.62 (80.93%)
Average number of large basis fcns per batch ...    81.71 (82.79%)
Maximum spatial batch extension              ...  16.40, 14.94, 16.05 au
Average spatial batch extension              ...   0.25,  0.24,  0.27 au

Final grid set up in    0.4 sec
Final integration                            ... done (   0.3 sec)
Change in XC energy                          ...     0.000160439
Integrated number of electrons               ...    36.000058181
Previous integrated no of electrons          ...    36.000507363

----------------
TOTAL SCF ENERGY
----------------

Total Energy       :         -231.46413655 Eh           -6298.45936 eV

Components:
Nuclear Repulsion  :          120.31508185 Eh            3273.93982 eV
Electronic Energy  :         -351.77921840 Eh           -9572.39918 eV
One Electron Energy:         -553.51104659 Eh          -15061.80131 eV
Two Electron Energy:          201.73182820 Eh            5489.40212 eV

Virial components:
Potential Energy   :         -461.96942030 Eh          -12570.82701 eV
Kinetic Energy     :          230.50528375 Eh            6272.36765 eV
Virial Ratio       :            2.00415979


DFT components:
N(Alpha)           :       18.000029090551 electrons
N(Beta)            :       18.000029090551 electrons
N(Total)           :       36.000058181102 electrons
E(XC)              :      -21.312056574073 Eh       
DFET-embed. en.    :        0.000000000000 Eh       

---------------
SCF CONVERGENCE
---------------

  Last Energy change         ...   -3.0135e-09  Tolerance :   1.0000e-08
  Last MAX-Density change    ...    4.7245e-06  Tolerance :   1.0000e-07
  Last RMS-Density change    ...    1.6620e-07  Tolerance :   5.0000e-09
  Last Orbital Gradient      ...    2.3688e-06  Tolerance :   1.0000e-05
  Last Orbital Rotation      ...    2.8272e-06  Tolerance :   1.0000e-05

             **** THE GBW FILE WAS UPDATED (3-198_DFT_AB.gbw) ****
             **** DENSITY FILE WAS UPDATED (3-198_DFT_AB.scfp.tmp) ****
             **** ENERGY FILE WAS UPDATED (3-198_DFT_AB.en.tmp) ****
----------------
ORBITAL ENERGIES
----------------

  NO   OCC          E(Eh)            E(eV) 
   0   2.0000     -19.238729      -523.5124 
   1   2.0000     -19.218608      -522.9649 
   2   2.0000     -10.324920      -280.9553 
   3   2.0000     -10.292730      -280.0794 
   4   2.0000      -1.138646       -30.9841 
   5   2.0000      -1.132662       -30.8213 
   6   2.0000      -0.809010       -22.0143 
   7   2.0000      -0.778283       -21.1782 
   8   2.0000      -0.624262       -16.9870 
   9   2.0000      -0.606234       -16.4965 
  10   2.0000      -0.549393       -14.9498 
  11   2.0000      -0.538325       -14.6486 
  12   2.0000      -0.536070       -14.5872 
  13   2.0000      -0.517361       -14.0781 
  14   2.0000      -0.435358       -11.8467 
  15   2.0000      -0.411940       -11.2095 
  16   2.0000      -0.383301       -10.4302 
  17   2.0000      -0.357373        -9.7246 
  18   0.0000       0.097444         2.6516 
  19   0.0000       0.133716         3.6386 
  20   0.0000       0.140437         3.8215 
  21   0.0000       0.172147         4.6844 
  22   0.0000       0.194398         5.2898 
  23   0.0000       0.197947         5.3864 
  24   0.0000       0.212150         5.7729 
  25   0.0000       0.223553         6.0832 
  26   0.0000       0.231427         6.2975 
  27   0.0000       0.261390         7.1128 
  28   0.0000       0.295142         8.0312 
  29   0.0000       0.306309         8.3351 
  30   0.0000       0.313442         8.5292 
  31   0.0000       0.325249         8.8505 
  32   0.0000       0.394040        10.7224 
  33   0.0000       0.439248        11.9526 
  34   0.0000       0.448211        12.1964 
  35   0.0000       0.464850        12.6492 
  36   0.0000       0.490564        13.3489 
  37   0.0000       0.505435        13.7536 
  38   0.0000       0.531623        14.4662 
  39   0.0000       0.545939        14.8558 
  40   0.0000       0.551900        15.0180 
  41   0.0000       0.567308        15.4372 
  42   0.0000       0.567730        15.4487 
  43   0.0000       0.598238        16.2789 
  44   0.0000       0.610443        16.6110 
  45   0.0000       0.623476        16.9657 
  46   0.0000       0.634066        17.2538 
  47   0.0000       0.665338        18.1048 
  48   0.0000       0.699185        19.0258 
  49   0.0000       0.725407        19.7393 
  50   0.0000       0.773554        21.0495 
  51   0.0000       0.809160        22.0184 
  52   0.0000       0.816788        22.2259 
  53   0.0000       0.833921        22.6921 
  54   0.0000       0.864097        23.5133 
  55   0.0000       0.907356        24.6904 
  56   0.0000       0.983323        26.7576 
  57   0.0000       1.007219        27.4078 
  58   0.0000       1.016461        27.6593 
  59   0.0000       1.085944        29.5500 
  60   0.0000       1.109680        30.1959 
  61   0.0000       1.148541        31.2534 
  62   0.0000       1.381153        37.5831 
  63   0.0000       1.394588        37.9487 
  64   0.0000       1.468365        39.9563 
  65   0.0000       1.505569        40.9686 
  66   0.0000       1.536731        41.8166 
  67   0.0000       1.555688        42.3324 
  68   0.0000       1.584855        43.1261 
  69   0.0000       1.607071        43.7306 
  70   0.0000       1.620630        44.0996 
  71   0.0000       1.628148        44.3042 
  72   0.0000       1.649522        44.8858 
  73   0.0000       1.674085        45.5542 
  74   0.0000       1.689549        45.9750 
  75   0.0000       1.691566        46.0299 
  76   0.0000       1.723067        46.8870 
  77   0.0000       1.739355        47.3303 
  78   0.0000       1.753861        47.7250 
  79   0.0000       1.782415        48.5020 
  80   0.0000       1.960504        53.3480 
  81   0.0000       1.979749        53.8717 
  82   0.0000       1.992334        54.2142 
  83   0.0000       2.026647        55.1479 
  84   0.0000       2.052988        55.8646 
  85   0.0000       2.069727        56.3201 
  86   0.0000       2.088027        56.8181 
  87   0.0000       2.098875        57.1133 
  88   0.0000       2.123509        57.7836 
  89   0.0000       2.190471        59.6058 
  90   0.0000       2.255784        61.3830 
  91   0.0000       2.289680        62.3053 
  92   0.0000       2.312534        62.9272 
  93   0.0000       2.349401        63.9304 
  94   0.0000       2.352839        64.0240 
  95   0.0000       2.390231        65.0415 
  96   0.0000       2.405680        65.4619 
  97   0.0000       2.433376        66.2155 
  98   0.0000       2.453732        66.7694 
  99   0.0000       2.488881        67.7259 
 100   0.0000       2.507966        68.2452 
 101   0.0000       2.513354        68.3918 
 102   0.0000       2.588857        70.4464 
 103   0.0000       2.604732        70.8784 
 104   0.0000       2.627141        71.4882 
 105   0.0000       2.650044        72.1114 
 106   0.0000       2.674868        72.7869 
 107   0.0000       2.688389        73.1548 
 108   0.0000       2.830092        77.0107 
 109   0.0000       2.860233        77.8309 
 110   0.0000       2.884688        78.4964 
 111   0.0000       2.894890        78.7740 
 112   0.0000       2.901494        78.9537 
 113   0.0000       2.945954        80.1635 
 114   0.0000       2.979064        81.0644 
 115   0.0000       2.996585        81.5412 
 116   0.0000       3.118092        84.8476 
 117   0.0000       3.133232        85.2596 
 118   0.0000       3.151083        85.7453 
 119   0.0000       3.198689        87.0408 
 120   0.0000       3.252383        88.5019 
 121   0.0000       3.329046        90.5880 
 122   0.0000       3.381876        92.0255 
 123   0.0000       3.425283        93.2067 
 124   0.0000       3.451226        93.9126 
 125   0.0000       3.508899        95.4820 
 126   0.0000       3.541646        96.3731 
 127   0.0000       3.574880        97.2774 
 128   0.0000       3.582628        97.4883 
 129   0.0000       3.638025        98.9957 
 130   0.0000       3.660401        99.6046 
 131   0.0000       3.675200       100.0073 
 132   0.0000       3.678014       100.0839 
 133   0.0000       3.717819       101.1670 
 134   0.0000       3.951997       107.5393 
 135   0.0000       3.967213       107.9534 
 136   0.0000       4.216236       114.7296 
 137   0.0000       4.217515       114.7644 
 138   0.0000       4.289203       116.7151 
 139   0.0000       4.395625       119.6110 
 140   0.0000       4.418144       120.2238 
 141   0.0000       4.466693       121.5449 
 142   0.0000       4.537822       123.4804 
 143   0.0000       4.584961       124.7631 
 144   0.0000       5.310817       144.5147 
 145   0.0000       5.349344       145.5631 
 146   0.0000       5.370344       146.1345 
 147   0.0000       5.449949       148.3007 
 148   0.0000       5.563874       151.4007 
 149   0.0000       5.579497       151.8258 
 150   0.0000       5.808892       158.0680 
 151   0.0000       5.838308       158.8684 
 152   0.0000       5.888519       160.2347 
 153   0.0000       5.941584       161.6787 
 154   0.0000       5.956388       162.0816 
 155   0.0000       6.025992       163.9756 
 156   0.0000       6.268704       170.5801 
 157   0.0000       6.362775       173.1399 
 158   0.0000       6.507515       177.0785 
 159   0.0000       6.536397       177.8644 
 160   0.0000       6.692938       182.1241 
 161   0.0000       6.789792       184.7596 
 162   0.0000       6.804677       185.1647 
 163   0.0000       6.856954       186.5872 
 164   0.0000       7.054301       191.9573 
 165   0.0000       7.056379       192.0138 
 166   0.0000       7.206421       196.0967 
 167   0.0000       7.209016       196.1673 
 168   0.0000      22.373475       608.8132 
 169   0.0000      22.573988       614.2694 
 170   0.0000      43.675091      1188.4597 
 171   0.0000      43.721540      1189.7236 

                    ********************************
                    * MULLIKEN POPULATION ANALYSIS *
                    ********************************

-----------------------
MULLIKEN ATOMIC CHARGES
-----------------------
   0 C :   -0.137679
   1 O :   -0.478010
   2 H :    0.327386
   3 H :    0.096640
   4 H :    0.082888
   5 H :    0.096111
   6 C :   -0.149574
   7 O :   -0.503363
   8 H :    0.326508
   9 H :    0.111816
  10 H :    0.106304
  11 H :    0.120974
Sum of atomic charges:    0.0000000

--------------------------------
MULLIKEN REDUCED ORBITAL CHARGES
--------------------------------
  0 C s       :     3.203317  s :     3.203317
      pz      :     1.053126  p :     2.816710
      px      :     0.903894
      py      :     0.859690
      dz2     :     0.009196  d :     0.108747
      dxz     :     0.037749
      dyz     :     0.014070
      dx2y2   :     0.035171
      dxy     :     0.012561
      f0      :     0.001470  f :     0.008905
      f+1     :     0.001263
      f-1     :     0.000335
      f+2     :    -0.000054
      f-2     :     0.002119
      f+3     :     0.002323
      f-3     :     0.001450
  1 O s       :     3.790107  s :     3.790107
      pz      :     1.859503  p :     4.654304
      px      :     1.243004
      py      :     1.551796
      dz2     :     0.003776  d :     0.031851
      dxz     :     0.004429
      dyz     :     0.004035
      dx2y2   :     0.007268
      dxy     :     0.012343
      f0      :     0.000277  f :     0.001749
      f+1     :     0.000335
      f-1     :     0.000191
      f+2     :     0.000065
      f-2     :     0.000234
      f+3     :     0.000165
      f-3     :     0.000481
  2 H s       :     0.629724  s :     0.629724
      pz      :     0.015936  p :     0.042890
      px      :     0.016060
      py      :     0.010894
  3 H s       :     0.884167  s :     0.884167
      pz      :     0.010204  p :     0.019193
      px      :     0.005781
      py      :     0.003209
  4 H s       :     0.897750  s :     0.897750
      pz      :     0.004060  p :     0.019361
      px      :     0.004406
      py      :     0.010895
  5 H s       :     0.882297  s :     0.882297
      pz      :     0.009575  p :     0.021592
      px      :     0.007825
      py      :     0.004192
  6 C s       :     3.225736  s :     3.225736
      pz      :     1.060259  p :     2.822009
      px      :     0.726065
      py      :     1.035686
      dz2     :     0.005743  d :     0.094372
      dxz     :     0.036522
      dyz     :     0.007446
      dx2y2   :     0.017281
      dxy     :     0.027380
      f0      :     0.001242  f :     0.007458
      f+1     :     0.000904
      f-1     :     0.000207
      f+2     :     0.001134
      f-2     :     0.000874
      f+3     :     0.001567
      f-3     :     0.001530
  7 O s       :     3.777338  s :     3.777338
      pz      :     1.870400  p :     4.696546
      px      :     1.238230
      py      :     1.587916
      dz2     :     0.003608  d :     0.027725
      dxz     :     0.003968
      dyz     :     0.002995
      dx2y2   :     0.004123
      dxy     :     0.013032
      f0      :     0.000272  f :     0.001753
      f+1     :     0.000374
      f-1     :     0.000138
      f+2     :     0.000117
      f-2     :     0.000198
      f+3     :     0.000334
      f-3     :     0.000321
  8 H s       :     0.625762  s :     0.625762
      pz      :     0.017489  p :     0.047730
      px      :     0.015592
      py      :     0.014649
  9 H s       :     0.868322  s :     0.868322
      pz      :     0.006245  p :     0.019862
      px      :     0.002992
      py      :     0.010626
 10 H s       :     0.873763  s :     0.873763
      pz      :     0.010952  p :     0.019933
      px      :     0.004579
      py      :     0.004402
 11 H s       :     0.859946  s :     0.859946
      pz      :     0.006549  p :     0.019080
      px      :     0.005609
      py      :     0.006923


                     *******************************
                     * LOEWDIN POPULATION ANALYSIS *
                     *******************************

----------------------
LOEWDIN ATOMIC CHARGES
----------------------
   0 C :   -0.428629
   1 O :   -0.059833
   2 H :    0.197062
   3 H :    0.103937
   4 H :    0.095453
   5 H :    0.082876
   6 C :   -0.373580
   7 O :   -0.090603
   8 H :    0.169618
   9 H :    0.091833
  10 H :    0.094647
  11 H :    0.117219

-------------------------------
LOEWDIN REDUCED ORBITAL CHARGES
-------------------------------
  0 C s       :     2.848931  s :     2.848931
      pz      :     1.096266  p :     3.059490
      px      :     0.982799
      py      :     0.980425
      dz2     :     0.054733  d :     0.452899
      dxz     :     0.139226
      dyz     :     0.043923
      dx2y2   :     0.122179
      dxy     :     0.092837
      f0      :     0.009025  f :     0.067309
      f+1     :     0.006141
      f-1     :     0.006162
      f+2     :     0.002654
      f-2     :     0.014000
      f+3     :     0.018123
      f-3     :     0.011204
  1 O s       :     3.354191  s :     3.354191
      pz      :     1.755904  p :     4.621092
      px      :     1.278839
      py      :     1.586349
      dz2     :     0.007206  d :     0.079246
      dxz     :     0.012815
      dyz     :     0.008579
      dx2y2   :     0.025045
      dxy     :     0.025600
      f0      :     0.000630  f :     0.005306
      f+1     :     0.000547
      f-1     :     0.000333
      f+2     :     0.000103
      f-2     :     0.001039
      f+3     :     0.000830
      f-3     :     0.001824
  2 H s       :     0.662321  s :     0.662321
      pz      :     0.043388  p :     0.140616
      px      :     0.057872
      py      :     0.039356
  3 H s       :     0.841107  s :     0.841107
      pz      :     0.029516  p :     0.054956
      px      :     0.015457
      py      :     0.009983
  4 H s       :     0.846135  s :     0.846135
      pz      :     0.012867  p :     0.058412
      px      :     0.013710
      py      :     0.031835
  5 H s       :     0.849553  s :     0.849553
      pz      :     0.030743  p :     0.067571
      px      :     0.023232
      py      :     0.013596
  6 C s       :     2.864009  s :     2.864009
      pz      :     1.106783  p :     3.051461
      px      :     0.859659
      py      :     1.085019
      dz2     :     0.041017  d :     0.402837
      dxz     :     0.128438
      dyz     :     0.042943
      dx2y2   :     0.084855
      dxy     :     0.105583
      f0      :     0.007592  f :     0.055273
      f+1     :     0.008272
      f-1     :     0.002110
      f+2     :     0.007862
      f-2     :     0.005541
      f+3     :     0.010814
      f-3     :     0.013082
  7 O s       :     3.357776  s :     3.357776
      pz      :     1.775599  p :     4.661350
      px      :     1.298391
      py      :     1.587360
      dz2     :     0.006575  d :     0.067322
      dxz     :     0.013701
      dyz     :     0.003642
      dx2y2   :     0.013188
      dxy     :     0.030215
      f0      :     0.000546  f :     0.004155
      f+1     :     0.000638
      f-1     :     0.000152
      f+2     :     0.000387
      f-2     :     0.000494
      f+3     :     0.001199
      f-3     :     0.000740
  8 H s       :     0.671796  s :     0.671796
      pz      :     0.049091  p :     0.158586
      px      :     0.048208
      py      :     0.061287
  9 H s       :     0.843393  s :     0.843393
      pz      :     0.020424  p :     0.064774
      px      :     0.010359
      py      :     0.033991
 10 H s       :     0.844030  s :     0.844030
      pz      :     0.033699  p :     0.061324
      px      :     0.013734
      py      :     0.013891
 11 H s       :     0.828714  s :     0.828714
      pz      :     0.018693  p :     0.054067
      px      :     0.014875
      py      :     0.020499


                      *****************************
                      * MAYER POPULATION ANALYSIS *
                      *****************************

  NA   - Mulliken gross atomic population
  ZA   - Total nuclear charge
  QA   - Mulliken gross atomic charge
  VA   - Mayer's total valence
  BVA  - Mayer's bonded valence
  FA   - Mayer's free valence

  ATOM       NA         ZA         QA         VA         BVA        FA
  0 C      6.1377     6.0000    -0.1377     3.9523     3.9523     0.0000
  1 O      8.4780     8.0000    -0.4780     1.8768     1.8768     0.0000
  2 H      0.6726     1.0000     0.3274     0.9027     0.9027     0.0000
  3 H      0.9034     1.0000     0.0966     0.9575     0.9575     0.0000
  4 H      0.9171     1.0000     0.0829     0.9851     0.9851     0.0000
  5 H      0.9039     1.0000     0.0961     0.9460     0.9460    -0.0000
  6 C      6.1496     6.0000    -0.1496     3.9196     3.9196     0.0000
  7 O      8.5034     8.0000    -0.5034     1.8717     1.8717    -0.0000
  8 H      0.6735     1.0000     0.3265     0.9054     0.9054    -0.0000
  9 H      0.8882     1.0000     0.1118     0.9602     0.9602    -0.0000
 10 H      0.8937     1.0000     0.1063     0.9570     0.9570    -0.0000
 11 H      0.8790     1.0000     0.1210     0.9590     0.9590     0.0000

  Mayer bond orders larger than 0.1
B(  0-C ,  1-O ) :   1.0168 B(  0-C ,  3-H ) :   0.9800 B(  0-C ,  4-H ) :   0.9842 
B(  0-C ,  5-H ) :   0.9734 B(  1-O ,  2-H ) :   0.8865 B(  6-C ,  7-O ) :   0.9794 
B(  6-C ,  9-H ) :   0.9766 B(  6-C , 10-H ) :   0.9767 B(  6-C , 11-H ) :   0.9704 
B(  7-O ,  8-H ) :   0.8843 

-------
TIMINGS
-------

Total SCF time: 0 days 0 hours 2 min 1 sec 

Total time                  ....     121.170 sec
Sum of individual times     ....     116.936 sec  ( 96.5%)

Fock matrix formation       ....     108.371 sec  ( 89.4%)
  XC integration            ....      90.022 sec  ( 83.1% of F)
    Basis function eval.    ....       0.056 sec  (  0.1% of XC)
    Density eval.           ....       0.558 sec  (  0.6% of XC)
    XC-Functional eval.     ....       0.658 sec  (  0.7% of XC)
    XC-Potential eval.      ....       0.061 sec  (  0.1% of XC)
Diagonalization             ....       4.360 sec  (  3.6%)
Density matrix formation    ....       0.008 sec  (  0.0%)
Population analysis         ....       0.565 sec  (  0.5%)
Initial guess               ....       1.038 sec  (  0.9%)
Orbital Transformation      ....       0.000 sec  (  0.0%)
Orbital Orthonormalization  ....       0.000 sec  (  0.0%)
DIIS solution               ....       0.352 sec  (  0.3%)
SOSCF solution              ....       0.163 sec  (  0.1%)
Grid generation             ....       2.079 sec  (  1.7%)


-------------------------------------------------------------------------------
                          DFT DISPERSION CORRECTION                            
                                                                               
                              DFTD3 V3.1  Rev 1                                
                              USING zero damping                               
-------------------------------------------------------------------------------
The omegaB97X-D3 functional is recognized. Fit by Chai et al.
Active option DFTDOPT                   ...         3   

molecular C6(AA) [au] = 835.058682 


            DFT-D V3
 parameters
 s6 scaling factor         :     1.0000 
 rs6 scaling factor        :     1.2810 
 s8 scaling factor         :     1.0000 
 rs8 scaling factor        :     1.0940 
 Damping factor alpha6     :    14.0000 
 Damping factor alpha8     :    16.0000 
 ad hoc parameters k1-k3   :    16.0000     1.3333    -4.0000 

 Edisp/kcal,au: -0.854286848592  -0.001361392605 
 E6   /kcal   :  -0.403533023 
 E8   /kcal   :  -0.450753825 
 % E8         :  52.763755625 

-------------------------   ----------------
Dispersion correction           -0.001361393
-------------------------   ----------------


-------------------------   --------------------
FINAL SINGLE POINT ENERGY      -231.465497943052
-------------------------   --------------------


                            ***************************************
                            *     ORCA property calculations      *
                            ***************************************

                                    ---------------------
                                    Active property flags
                                    ---------------------
   (+) Dipole Moment


------------------------------------------------------------------------------
                       ORCA ELECTRIC PROPERTIES CALCULATION
------------------------------------------------------------------------------

Dipole Moment Calculation                       ... on
Quadrupole Moment Calculation                   ... off
Polarizability Calculation                      ... off
GBWName                                         ... 3-198_DFT_AB.gbw
Electron density file                           ... 3-198_DFT_AB.scfp.tmp
The origin for moment calculation is the CENTER OF MASS  = (-0.971248, -17.455654 15.115664)

-------------
DIPOLE MOMENT
-------------
                                X             Y             Z
Electronic contribution:      0.42370       2.00505       0.02903
Nuclear contribution   :     -0.84883      -3.36192      -0.15571
                        -----------------------------------------
Total Dipole Moment    :     -0.42513      -1.35687      -0.12668
                        -----------------------------------------
Magnitude (a.u.)       :      1.42754
Magnitude (Debye)      :      3.62853



--------------------
Rotational spectrum 
--------------------
 
Rotational constants in cm-1:     0.559987     0.052360     0.048909 
Rotational constants in MHz : 16787.991065  1569.714763  1466.260974 

 Dipole components along the rotational axes: 
x,y,z [a.u.] :    -1.333141    -0.407942     0.306915 
x,y,z [Debye]:    -3.388575    -1.036907     0.780117 

 
------------------------------------------------------------------------------
                      ORCA CHELPG CHARGES GENERATION
------------------------------------------------------------------------------

GBW file                           ... 3-198_DFT_AB.gbw

Reading the GBW file               ... done

Grid spacing                       ...     0.300000
Point Cut-Off                      ...     2.800000
Van-der-Waals Radii                ...        COSMO
Total charge                       ...            0


Number of points X direction       ...           34
Number of points Y direction       ...           35
Number of points Z direction       ...           28
Maximum number of possible points  ...        33320
Final number of points             ...        10463


CHELPG Charges            
--------------------------------
  0   C   :       0.230802
  1   O   :      -0.624523
  2   H   :       0.407602
  3   H   :       0.015992
  4   H   :      -0.066599
  5   H   :       0.003840
  6   C   :      -0.017178
  7   O   :      -0.544500
  8   H   :       0.400416
  9   H   :       0.045837
 10   H   :       0.057330
 11   H   :       0.090982
--------------------------------
Total charge:     0.000000
--------------------------------

CHELPG charges calculated...

Timings for individual parts in CHELPG calculation:
Grid generation                 ...        0.002 sec (=   0.000 min)
Potential calculation           ...        2.157 sec (=   0.036 min)
Fit to the potential            ...        0.004 sec (=   0.000 min)
------------------------------------------------------------------------------


Timings for individual modules:

Sum of individual times         ...      133.800 sec (=   2.230 min)
GTO integral calculation        ...        6.537 sec (=   0.109 min)   4.9 %
SCF iterations                  ...      125.052 sec (=   2.084 min)  93.5 %
CHELPG charge generation        ...        2.211 sec (=   0.037 min)   1.7 %


                 $$$$$$$$$$$$$$$$  JOB NUMBER  2 $$$$$$$$$$$$$$


                       ****************************
                       * Single Point Calculation *
                       ****************************

---------------------------------
CARTESIAN COORDINATES (ANGSTROEM)
---------------------------------
  C      1.126425   -7.979691    8.688435
  O      0.167515   -7.011438    8.689688
  H     -0.711181   -7.413790    8.442444
  H      1.685178   -7.866956    9.647331
  H      0.695395   -8.997913    8.613979
  H      1.773083   -7.918611    7.867989
  C     -2.337670  -11.185197    7.249614
  O     -1.000617  -10.717847    7.363358
  H     -0.325757  -11.363005    7.607050
  H     -2.390018  -12.137646    6.768897
  H     -2.777101  -11.323087    8.235019
  H     -2.969135  -10.471276    6.641373

----------------------------
CARTESIAN COORDINATES (A.U.)
----------------------------
  NO LB      ZA    FRAG     MASS         X           Y           Z
   0 C     6.0000    0    12.011    2.128635  -15.079431   16.418763
   1 O     8.0000    0    15.999    0.316557  -13.249698   16.421131
   2 H     1.0000    0     1.008   -1.343937  -14.010033   15.953907
   3 H     1.0000    0     1.008    3.184525  -14.866392   18.230814
   4 H     1.0000    0     1.008    1.314106  -17.003591   16.278061
   5 H     1.0000    0     1.008    3.350641  -14.964006   14.868344
   6 C     0.0000    0     0.000   -4.417556  -21.136959   13.699785
   7 O     0.0000    0     0.000   -1.890892  -20.253796   13.914730
   8 H     0.0000    0     0.000   -0.615592  -21.472968   14.375241
   9 H     0.0000    0     0.000   -4.516479  -22.936827   12.791362
  10 H     0.0000    0     0.000   -5.247960  -21.397533   15.561931
  11 H     0.0000    0     0.000   -5.610852  -19.787844   12.550376

--------------------------------
INTERNAL COORDINATES (ANGSTROEM)
--------------------------------
 C      0   0   0     0.000000000000     0.00000000     0.00000000
 O      1   0   0     1.362726616060     0.00000000     0.00000000
 H      2   1   0     0.997558713989   109.45194444     0.00000000
 H      1   2   3     1.115524824488   106.25207142   228.33201676
 H      1   2   3     1.108199710395   112.28467595   348.88356899
 H      1   2   3     1.046436321178   113.20918792   106.23675890
 C      5   1   2     3.980601266656   145.51373904    29.05237872
 O      7   5   1     1.420937875083    22.31001164   114.46023446
 H      8   7   5     0.964909661796   117.28513056   120.65498699
 H      7   5   1     1.068170512977   132.96490014   137.76860451
 H      7   5   1     1.087720676408    93.84010186   253.80776810
 H      7   5   1     1.130658372165   105.24689280     5.72892171

---------------------------
INTERNAL COORDINATES (A.U.)
---------------------------
 C      0   0   0     0.000000000000     0.00000000     0.00000000
 O      1   0   0     2.575180099758     0.00000000     0.00000000
 H      2   1   0     1.885112771946   109.45194444     0.00000000
 H      1   2   3     2.108036413874   106.25207142   228.33201676
 H      1   2   3     2.094193954338   112.28467595   348.88356899
 H      1   2   3     1.977478063614   113.20918792   106.23675890
 C      5   1   2     7.522246242321   145.51373904    29.05237872
 O      7   5   1     2.685183437223    22.31001164   114.46023446
 H      8   7   5     1.823415004770   117.28513056   120.65498699
 H      7   5   1     2.018549733857   132.96490014   137.76860451
 H      7   5   1     2.055494188615    93.84010186   253.80776810
 H      7   5   1     2.136634674417   105.24689280     5.72892171

---------------------
BASIS SET INFORMATION
---------------------
There are 3 groups of distinct atoms

 Group   1 Type C   : 11s6p2d1f contracted to 5s3p2d1f pattern {62111/411/11/1}
 Group   2 Type O   : 11s6p2d1f contracted to 5s3p2d1f pattern {62111/411/11/1}
 Group   3 Type H   : 5s1p contracted to 3s1p pattern {311/1}

Atom   0C    basis set group =>   1
Atom   1O    basis set group =>   2
Atom   2H    basis set group =>   3
Atom   3H    basis set group =>   3
Atom   4H    basis set group =>   3
Atom   5H    basis set group =>   3
Atom   6C    basis set group =>   1
Atom   7O    basis set group =>   2
Atom   8H    basis set group =>   3
Atom   9H    basis set group =>   3
Atom  10H    basis set group =>   3
Atom  11H    basis set group =>   3


           ************************************************************
           *        Program running with 8 parallel MPI-processes     *
           *              working on a common directory               *
           ************************************************************
------------------------------------------------------------------------------
                           ORCA GTO INTEGRAL CALCULATION
------------------------------------------------------------------------------

                         BASIS SET STATISTICS AND STARTUP INFO

 # of primitive gaussian shells          ...  128
 # of primitive gaussian functions       ...  248
 # of contracted shells                  ...   76
 # of contracted basis functions         ...  172
 Highest angular momentum                ...    3
 Maximum contraction depth               ...    6
 Integral package used                   ... LIBINT
 Integral threshhold            Thresh   ...  2.500e-11
 Primitive cut-off              TCut     ...  2.500e-12


------------------------------ INTEGRAL EVALUATION ----------------------------


 * One electron integrals 
 Pre-screening matrix                    ... done
 Shell pair data                         ... done (   0.001 sec)



           ************************************************************
           *        Program running with 8 parallel MPI-processes     *
           *              working on a common directory               *
           ************************************************************
-------------------------------------------------------------------------------
                                 ORCA SCF
-------------------------------------------------------------------------------

------------
SCF SETTINGS
------------
Hamiltonian:
 Density Functional     Method          .... DFT(GTOs)
 Exchange Functional    Exchange        .... WB97X-D3
 Correlation Functional Correlation     .... WB97X-D3
 Gradients option       PostSCFGGA      .... off
 Hybrid DFT is turned on
   Fraction HF Exchange ScalHFX         ....  0.195728
   Scaling of DF-GGA-X  ScalDFX         ....  0.000000
   Scaling of DF-GGA-C  ScalDFC         ....  1.000000
   Scaling of DF-LDA-C  ScalLDAC        ....  1.000000
   Perturbative correction              ....  0.000000
   Density functional embedding theory  .... OFF
 Long-range corrected/Screened/Range-Separated Hybrid DFT is turned on
   Amount of maximum screened exact exchange              ....  0.804272
   Range separation parameter mu (erf(mu*r12)/r12)        ....  0.250000


General Settings:
 Integral files         IntName         .... 3-198_DFT_A
 Hartree-Fock type      HFTyp           .... RHF
 Total Charge           Charge          ....    0
 Multiplicity           Mult            ....    1
 Number of Electrons    NEL             ....   18
 Basis Dimension        Dim             ....  172
 Nuclear Repulsion      ENuc            ....     41.0970672642 Eh

Convergence Acceleration:
 DIIS                   CNVDIIS         .... on
   Start iteration      DIISMaxIt       ....    12
   Startup error        DIISStart       ....  0.200000
   # of expansion vecs  DIISMaxEq       ....     5
   Bias factor          DIISBfac        ....   1.050
   Max. coefficient     DIISMaxC        ....  10.000
 Newton-Raphson         CNVNR           .... off
 SOSCF                  CNVSOSCF        .... on
   Start iteration      SOSCFMaxIt      ....   150
   Startup grad/error   SOSCFStart      ....  0.003300
 Level Shifting         CNVShift        .... on
   Level shift para.    LevelShift      ....    0.2500
   Turn off err/grad.   ShiftErr        ....    0.0010
 Zerner damping         CNVZerner       .... off
 Static damping         CNVDamp         .... on
   Fraction old density DampFac         ....    0.7000
   Max. Damping (<1)    DampMax         ....    0.9800
   Min. Damping (>=0)   DampMin         ....    0.0000
   Turn off err/grad.   DampErr         ....    0.1000
 Fernandez-Rico         CNVRico         .... off

SCF Procedure:
 Maximum # iterations   MaxIter         ....  1000
 SCF integral mode      SCFMode         .... Direct
   Integral package                     .... LIBINT
 Reset frequency        DirectResetFreq ....    20
 Integral Threshold     Thresh          ....  2.500e-11 Eh
 Primitive CutOff       TCut            ....  2.500e-12 Eh

Convergence Tolerance:
 Convergence Check Mode ConvCheckMode   .... Total+1el-Energy
 Convergence forced     ConvForced      .... 0
 Energy Change          TolE            ....  1.000e-08 Eh
 1-El. energy change                    ....  1.000e-05 Eh
 Orbital Gradient       TolG            ....  1.000e-05
 Orbital Rotation angle TolX            ....  1.000e-05
 DIIS Error             TolErr          ....  5.000e-07


Diagonalization of the overlap matrix:
Smallest eigenvalue                        ... 1.295e-03
Time for diagonalization                   ...    0.004 sec
Threshold for overlap eigenvalues          ... 1.000e-08
Number of eigenvalues below threshold      ... 0
Time for construction of square roots      ...    0.165 sec
Total time needed                          ...    0.169 sec

-------------------
DFT GRID GENERATION
-------------------

General Integration Accuracy     IntAcc      ...  4.340
Radial Grid Type                 RadialGrid  ... Gauss-Chebyshev
Angular Grid (max. acc.)         AngularGrid ... Lebedev-110
Angular grid pruning method      GridPruning ... 3 (G Style)
Weight generation scheme         WeightScheme... Becke
Basis function cutoff            BFCut       ...    1.0000e-11
Integration weight cutoff        WCut        ...    1.0000e-14
Grids for H and He will be reduced by one unit

# of grid points (after initial pruning)     ...  13096 (   0.0 sec)
# of grid points (after weights+screening)   ...  12530 (   0.0 sec)
nearest neighbour list constructed           ...    0.0 sec
Grid point re-assignment to atoms done       ...    0.0 sec
Grid point division into batches done        ...    0.0 sec
Reduced shell lists constructed in    0.0 sec

Total number of grid points                  ...    12530
Total number of batches                      ...      201
Average number of points per batch           ...       62
Average number of grid points per atom       ...     1044
Average number of shells per batch           ...    47.00 (61.84%)
Average number of basis functions per batch  ...   102.70 (59.71%)
Average number of large shells per batch     ...    38.41 (81.72%)
Average number of large basis fcns per batch ...    85.15 (82.91%)
Maximum spatial batch extension              ...  13.97, 14.31, 16.34 au
Average spatial batch extension              ...   0.33,  0.39,  0.43 au

Time for grid setup =    0.320 sec

------------------------------
INITIAL GUESS: MODEL POTENTIAL
------------------------------
Loading Hartree-Fock densities                     ... done
Calculating cut-offs                               ... done
Setting up the integral package                    ... done
Initializing the effective Hamiltonian             ... done
Starting the Coulomb interaction                   ... done (   0.0 sec)
Reading the grid                                   ... done
Mapping shells                                     ... done
Starting the XC term evaluation                    ... done (   0.0 sec)
  promolecular density results
     # of electrons  =     17.996660292
     EX              =    -14.440656806
     EC              =     -0.577154597
     EX+EC           =    -15.017811403
Transforming the Hamiltonian                       ... done (   0.1 sec)
Diagonalizing the Hamiltonian                      ... done (   0.0 sec)
Back transforming the eigenvectors                 ... done (   0.0 sec)
Now organizing SCF variables                       ... done
                      ------------------
                      INITIAL GUESS DONE (   0.7 sec)
                      ------------------
--------------
SCF ITERATIONS
--------------
ITER       Energy         Delta-E        Max-DP      RMS-DP      [F,P]     Damp
               ***  Starting incremental Fock matrix formation  ***
  0   -115.6373350799   0.000000000000 0.03771465  0.00077568  0.2427445 0.7000
  1   -115.6769593331  -0.039624253153 0.02265542  0.00055330  0.1192777 0.7000
                               ***Turning on DIIS***
  2   -115.6951327154  -0.018173382329 0.03463970  0.00099680  0.0500291 0.0000
  3   -115.7244664811  -0.029333765705 0.01836546  0.00036259  0.0624786 0.0000
  4   -115.7294091377  -0.004942656593 0.00411030  0.00007000  0.0065402 0.0000
                      *** Initiating the SOSCF procedure ***
                           *** Shutting down DIIS ***
                      *** Re-Reading the Fockian *** 
                      *** Removing any level shift *** 
ITER      Energy       Delta-E        Grad      Rot      Max-DP    RMS-DP
  5   -115.72950786  -0.0000987253  0.000423  0.000423  0.000808  0.000024
               *** Restarting incremental Fock matrix formation ***
  6   -115.72951679  -0.0000089231  0.000131  0.000142  0.000405  0.000013
  7   -115.72951755  -0.0000007592  0.000038  0.000080  0.000201  0.000006
  8   -115.72951760  -0.0000000584  0.000028  0.000017  0.000043  0.000001
  9   -115.72951762  -0.0000000177  0.000008  0.000008  0.000019  0.000001
                  ***Gradient check signals convergence***
              ***Rediagonalizing the Fockian in SOSCF/NRSCF***

               *****************************************************
               *                     SUCCESS                       *
               *           SCF CONVERGED AFTER  10 CYCLES          *
               *****************************************************

Setting up the final grid:

General Integration Accuracy     IntAcc      ...  4.670
Radial Grid Type                 RadialGrid  ... Gauss-Chebyshev
Angular Grid (max. acc.)         AngularGrid ... Lebedev-302
Angular grid pruning method      GridPruning ... 3 (G Style)
Weight generation scheme         WeightScheme... Becke
Basis function cutoff            BFCut       ...    1.0000e-11
Integration weight cutoff        WCut        ...    1.0000e-14
Grids for H and He will be reduced by one unit

# of grid points (after initial pruning)     ...  52000 (   0.0 sec)
# of grid points (after weights+screening)   ...  49360 (   0.0 sec)
nearest neighbour list constructed           ...    0.0 sec
Grid point re-assignment to atoms done       ...    0.0 sec
Grid point division into batches done        ...    0.2 sec
Reduced shell lists constructed in    0.3 sec

Total number of grid points                  ...    49360
Total number of batches                      ...      777
Average number of points per batch           ...       63
Average number of grid points per atom       ...     4113
Average number of shells per batch           ...    45.24 (59.53%)
Average number of basis functions per batch  ...    98.70 (57.38%)
Average number of large shells per batch     ...    36.62 (80.93%)
Average number of large basis fcns per batch ...    81.71 (82.79%)
Maximum spatial batch extension              ...  16.40, 14.94, 16.05 au
Average spatial batch extension              ...   0.25,  0.24,  0.27 au

Final grid set up in    1.1 sec
Final integration                            ... done (   3.0 sec)
Change in XC energy                          ...     0.000242089
Integrated number of electrons               ...    18.000033333
Previous integrated no of electrons          ...    18.001474563

----------------
TOTAL SCF ENERGY
----------------

Total Energy       :         -115.72927553 Eh           -3149.15369 eV

Components:
Nuclear Repulsion  :           41.09706726 Eh            1118.30805 eV
Electronic Energy  :         -156.82634280 Eh           -4267.46174 eV
One Electron Energy:         -238.58632741 Eh           -6492.26403 eV
Two Electron Energy:           81.75998461 Eh            2224.80229 eV

Virial components:
Potential Energy   :         -231.04673139 Eh           -6287.10119 eV
Kinetic Energy     :          115.31745586 Eh            3137.94750 eV
Virial Ratio       :            2.00357118


DFT components:
N(Alpha)           :        9.000016666452 electrons
N(Beta)            :        9.000016666452 electrons
N(Total)           :       18.000033332905 electrons
E(XC)              :      -10.666332117937 Eh       
DFET-embed. en.    :        0.000000000000 Eh       

---------------
SCF CONVERGENCE
---------------

  Last Energy change         ...   -1.4270e-09  Tolerance :   1.0000e-08
  Last MAX-Density change    ...    4.6228e-06  Tolerance :   1.0000e-07
  Last RMS-Density change    ...    1.3028e-07  Tolerance :   5.0000e-09
  Last Orbital Gradient      ...    2.1612e-06  Tolerance :   1.0000e-05
  Last Orbital Rotation      ...    3.4788e-06  Tolerance :   1.0000e-05

             **** THE GBW FILE WAS UPDATED (3-198_DFT_A.gbw) ****
             **** DENSITY FILE WAS UPDATED (3-198_DFT_A.scfp.tmp) ****
             **** ENERGY FILE WAS UPDATED (3-198_DFT_A.en.tmp) ****
----------------
ORBITAL ENERGIES
----------------

  NO   OCC          E(Eh)            E(eV) 
   0   2.0000     -19.230798      -523.2966 
   1   2.0000     -10.305509      -280.4272 
   2   2.0000      -1.145211       -31.1628 
   3   2.0000      -0.790501       -21.5106 
   4   2.0000      -0.619058       -16.8454 
   5   2.0000      -0.549730       -14.9589 
   6   2.0000      -0.529506       -14.4086 
   7   2.0000      -0.425327       -11.5737 
   8   2.0000      -0.369034       -10.0419 
   9   0.0000       0.070408         1.9159 
  10   0.0000       0.115968         3.1557 
  11   0.0000       0.143083         3.8935 
  12   0.0000       0.172701         4.6994 
  13   0.0000       0.193412         5.2630 
  14   0.0000       0.196118         5.3366 
  15   0.0000       0.212068         5.7707 
  16   0.0000       0.229393         6.2421 
  17   0.0000       0.249174         6.7804 
  18   0.0000       0.272881         7.4255 
  19   0.0000       0.292753         7.9662 
  20   0.0000       0.306765         8.3475 
  21   0.0000       0.324619         8.8333 
  22   0.0000       0.331395         9.0177 
  23   0.0000       0.355450         9.6723 
  24   0.0000       0.430562        11.7162 
  25   0.0000       0.455541        12.3959 
  26   0.0000       0.468876        12.7588 
  27   0.0000       0.497288        13.5319 
  28   0.0000       0.526926        14.3384 
  29   0.0000       0.536597        14.6016 
  30   0.0000       0.545662        14.8482 
  31   0.0000       0.580865        15.8061 
  32   0.0000       0.601886        16.3781 
  33   0.0000       0.610718        16.6185 
  34   0.0000       0.632805        17.2195 
  35   0.0000       0.653905        17.7937 
  36   0.0000       0.687811        18.7163 
  37   0.0000       0.729982        19.8638 
  38   0.0000       0.768344        20.9077 
  39   0.0000       0.782611        21.2959 
  40   0.0000       0.801742        21.8165 
  41   0.0000       0.813851        22.1460 
  42   0.0000       0.866029        23.5658 
  43   0.0000       0.932340        25.3703 
  44   0.0000       0.995540        27.0900 
  45   0.0000       1.045050        28.4373 
  46   0.0000       1.081081        29.4177 
  47   0.0000       1.128749        30.7148 
  48   0.0000       1.148379        31.2490 
  49   0.0000       1.154782        31.4232 
  50   0.0000       1.164093        31.6766 
  51   0.0000       1.221974        33.2516 
  52   0.0000       1.255176        34.1551 
  53   0.0000       1.352278        36.7974 
  54   0.0000       1.371416        37.3181 
  55   0.0000       1.382320        37.6148 
  56   0.0000       1.431102        38.9423 
  57   0.0000       1.461180        39.7607 
  58   0.0000       1.543559        42.0024 
  59   0.0000       1.556960        42.3670 
  60   0.0000       1.618126        44.0315 
  61   0.0000       1.644220        44.7415 
  62   0.0000       1.674736        45.5719 
  63   0.0000       1.685188        45.8563 
  64   0.0000       1.726162        46.9713 
  65   0.0000       1.769262        48.1441 
  66   0.0000       1.822159        49.5835 
  67   0.0000       1.911420        52.0124 
  68   0.0000       1.944756        52.9195 
  69   0.0000       1.967097        53.5274 
  70   0.0000       2.011931        54.7474 
  71   0.0000       2.057294        55.9818 
  72   0.0000       2.080658        56.6176 
  73   0.0000       2.089227        56.8508 
  74   0.0000       2.154014        58.6137 
  75   0.0000       2.178356        59.2761 
  76   0.0000       2.190361        59.6028 
  77   0.0000       2.217818        60.3499 
  78   0.0000       2.254432        61.3462 
  79   0.0000       2.321769        63.1785 
  80   0.0000       2.339218        63.6534 
  81   0.0000       2.380264        64.7703 
  82   0.0000       2.438170        66.3460 
  83   0.0000       2.466162        67.1077 
  84   0.0000       2.486328        67.6564 
  85   0.0000       2.496569        67.9351 
  86   0.0000       2.573078        70.0170 
  87   0.0000       2.589524        70.4645 
  88   0.0000       2.613217        71.1092 
  89   0.0000       2.635749        71.7224 
  90   0.0000       2.654444        72.2311 
  91   0.0000       2.680809        72.9485 
  92   0.0000       2.817789        76.6759 
  93   0.0000       2.876276        78.2674 
  94   0.0000       2.883327        78.4593 
  95   0.0000       2.928961        79.7011 
  96   0.0000       2.936678        79.9111 
  97   0.0000       2.986200        81.2586 
  98   0.0000       3.062319        83.3299 
  99   0.0000       3.107928        84.5710 
 100   0.0000       3.120616        84.9163 
 101   0.0000       3.141830        85.4935 
 102   0.0000       3.180082        86.5344 
 103   0.0000       3.208657        87.3120 
 104   0.0000       3.282668        89.3259 
 105   0.0000       3.317100        90.2629 
 106   0.0000       3.353622        91.2567 
 107   0.0000       3.412275        92.8527 
 108   0.0000       3.440786        93.6285 
 109   0.0000       3.496500        95.1446 
 110   0.0000       3.569305        97.1257 
 111   0.0000       3.612149        98.2916 
 112   0.0000       3.633987        98.8858 
 113   0.0000       3.647387        99.2505 
 114   0.0000       3.663662        99.6933 
 115   0.0000       3.704240       100.7975 
 116   0.0000       3.706146       100.8494 
 117   0.0000       3.952397       107.5502 
 118   0.0000       4.061372       110.5156 
 119   0.0000       4.142159       112.7139 
 120   0.0000       4.204441       114.4087 
 121   0.0000       4.260268       115.9278 
 122   0.0000       4.265123       116.0599 
 123   0.0000       4.363094       118.7258 
 124   0.0000       4.381464       119.2257 
 125   0.0000       4.454259       121.2066 
 126   0.0000       4.519895       122.9926 
 127   0.0000       4.529277       123.2479 
 128   0.0000       4.543269       123.6286 
 129   0.0000       4.563738       124.1856 
 130   0.0000       4.586964       124.8176 
 131   0.0000       4.990006       135.7850 
 132   0.0000       5.064053       137.7999 
 133   0.0000       5.077340       138.1615 
 134   0.0000       5.358183       145.8036 
 135   0.0000       5.368170       146.0753 
 136   0.0000       5.437727       147.9681 
 137   0.0000       5.485310       149.2629 
 138   0.0000       5.567473       151.4986 
 139   0.0000       5.726938       155.8379 
 140   0.0000       5.876577       159.9098 
 141   0.0000       5.907292       160.7456 
 142   0.0000       5.931601       161.4071 
 143   0.0000       6.013445       163.6342 
 144   0.0000       6.065064       165.0388 
 145   0.0000       6.256309       170.2428 
 146   0.0000       6.524282       177.5347 
 147   0.0000       6.550529       178.2490 
 148   0.0000       6.598253       179.5476 
 149   0.0000       6.778102       184.4415 
 150   0.0000       6.845216       186.2678 
 151   0.0000       6.878191       187.1651 
 152   0.0000       7.043203       191.6553 
 153   0.0000       7.151903       194.6132 
 154   0.0000       7.194068       195.7605 
 155   0.0000       7.220318       196.4748 
 156   0.0000       7.380719       200.8396 
 157   0.0000       8.050046       219.0529 
 158   0.0000       8.884613       241.7626 
 159   0.0000       9.298240       253.0180 
 160   0.0000       9.537771       259.5359 
 161   0.0000       9.584980       260.8206 
 162   0.0000       9.774657       265.9819 
 163   0.0000       9.795751       266.5559 
 164   0.0000       9.933143       270.2946 
 165   0.0000      10.119865       275.3755 
 166   0.0000      11.136285       303.0337 
[...]
  82   0.0000       2.410982        65.6062 
  83   0.0000       2.443699        66.4964 
  84   0.0000       2.463423        67.0331 
  85   0.0000       2.517977        68.5176 
  86   0.0000       2.613243        71.1099 
  87   0.0000       2.635829        71.7246 
  88   0.0000       2.647244        72.0352 
  89   0.0000       2.662656        72.4546 
  90   0.0000       2.686816        73.1120 
  91   0.0000       2.737603        74.4940 
  92   0.0000       2.836643        77.1890 
  93   0.0000       2.842450        77.3470 
  94   0.0000       2.874681        78.2241 
  95   0.0000       2.911281        79.2200 
  96   0.0000       2.954364        80.3923 
  97   0.0000       2.987527        81.2947 
  98   0.0000       3.089329        84.0649 
  99   0.0000       3.115871        84.7872 
 100   0.0000       3.121183        84.9317 
 101   0.0000       3.157304        85.9146 
 102   0.0000       3.202551        87.1458 
 103   0.0000       3.251967        88.4905 
 104   0.0000       3.267235        88.9060 
 105   0.0000       3.326056        90.5066 
 106   0.0000       3.391091        92.2763 
 107   0.0000       3.399468        92.5042 
 108   0.0000       3.445017        93.7437 
 109   0.0000       3.471091        94.4532 
 110   0.0000       3.552604        96.6713 
 111   0.0000       3.584535        97.5401 
 112   0.0000       3.607527        98.1658 
 113   0.0000       3.649038        99.2954 
 114   0.0000       3.685329       100.2829 
 115   0.0000       3.688409       100.3667 
 116   0.0000       3.819713       103.9397 
 117   0.0000       3.965753       107.9136 
 118   0.0000       4.095362       111.4405 
 119   0.0000       4.185082       113.8819 
 120   0.0000       4.226677       115.0137 
 121   0.0000       4.292513       116.8052 
 122   0.0000       4.308183       117.2316 
 123   0.0000       4.322020       117.6081 
 124   0.0000       4.390503       119.4717 
 125   0.0000       4.427651       120.4825 
 126   0.0000       4.512880       122.8017 
 127   0.0000       4.569995       124.3559 
 128   0.0000       4.580025       124.6288 
 129   0.0000       4.600781       125.1936 
 130   0.0000       4.670382       127.0875 
 131   0.0000       4.909660       133.5986 
 132   0.0000       5.073863       138.0668 
 133   0.0000       5.119456       139.3075 
 134   0.0000       5.266918       143.3201 
 135   0.0000       5.323253       144.8531 
 136   0.0000       5.361885       145.9043 
 137   0.0000       5.468257       148.7988 
 138   0.0000       5.576222       151.7367 
 139   0.0000       5.818941       158.3414 
 140   0.0000       5.826888       158.5577 
 141   0.0000       5.850009       159.1868 
 142   0.0000       5.887427       160.2050 
 143   0.0000       5.968005       162.3977 
 144   0.0000       6.173695       167.9948 
 145   0.0000       6.374946       173.4711 
 146   0.0000       6.520088       177.4206 
 147   0.0000       6.627082       180.3321 
 148   0.0000       6.705827       182.4748 
 149   0.0000       6.745158       183.5451 
 150   0.0000       6.816838       185.4956 
 151   0.0000       6.865947       186.8319 
 152   0.0000       7.068265       192.3373 
 153   0.0000       7.200904       195.9466 
 154   0.0000       7.221678       196.5118 
 155   0.0000       7.393707       201.1930 
 156   0.0000       7.546618       205.3539 
 157   0.0000       7.999913       217.6887 
 158   0.0000       8.919959       242.7244 
 159   0.0000       9.310141       253.3418 
 160   0.0000       9.544990       259.7324 
 161   0.0000       9.568962       260.3847 
 162   0.0000       9.845968       267.9224 
 163   0.0000       9.925642       270.0905 
 164   0.0000       9.977948       271.5138 
 165   0.0000      10.212734       277.9026 
 166   0.0000      11.314561       307.8848 
 167   0.0000      19.144179       520.9396 
 168   0.0000      22.382792       609.0667 
 169   0.0000      43.688300      1188.8191 
 170   0.0000      66.081955      1798.1814 
 171   0.0000     126.475715      3441.5792 

                    ********************************
                    * MULLIKEN POPULATION ANALYSIS *
                    ********************************

-----------------------
MULLIKEN ATOMIC CHARGES
-----------------------
   0 C :    0.007346
   1 O :   -0.000237
   2 H :   -0.001646
   3 H :   -0.000218
   4 H :   -0.014023
   5 H :   -0.000613
   6 C :   -0.146740
   7 O :   -0.492029
   8 H :    0.321156
   9 H :    0.106330
  10 H :    0.101963
  11 H :    0.118709
Sum of atomic charges:    0.0000000

--------------------------------
MULLIKEN REDUCED ORBITAL CHARGES
--------------------------------
  0 C s       :    -0.006211  s :    -0.006211
      pz      :     0.000537  p :    -0.001284
      px      :    -0.000460
      py      :    -0.001361
      dz2     :     0.000017  d :     0.000147
      dxz     :    -0.000007
      dyz     :     0.000010
      dx2y2   :     0.000009
      dxy     :     0.000118
      f0      :     0.000000  f :     0.000002
      f+1     :     0.000000
      f-1     :     0.000000
      f+2     :    -0.000000
      f-2     :     0.000000
      f+3     :     0.000001
      f-3     :    -0.000000
  1 O s       :     0.000156  s :     0.000156
      pz      :    -0.000026  p :     0.000082
      px      :    -0.000092
      py      :     0.000201
      dz2     :     0.000000  d :    -0.000002
      dxz     :     0.000000
      dyz     :    -0.000000
      dx2y2   :    -0.000000
      dxy     :    -0.000002
      f0      :     0.000000  f :    -0.000000
      f+1     :    -0.000000
      f-1     :    -0.000000
      f+2     :    -0.000000
      f-2     :    -0.000000
      f+3     :    -0.000000
      f-3     :    -0.000000
  2 H s       :     0.001643  s :     0.001643
      pz      :     0.000000  p :     0.000002
      px      :    -0.000000
      py      :     0.000002
  3 H s       :     0.000218  s :     0.000218
      pz      :    -0.000000  p :     0.000000
      px      :    -0.000000
      py      :     0.000000
  4 H s       :     0.013938  s :     0.013938
      pz      :    -0.000003  p :     0.000084
      px      :     0.000025
      py      :     0.000062
  5 H s       :     0.000615  s :     0.000615
      pz      :     0.000000  p :    -0.000001
      px      :    -0.000001
      py      :    -0.000000
  6 C s       :     3.222243  s :     3.222243
      pz      :     1.058344  p :     2.821067
      px      :     0.731300
      py      :     1.031423
      dz2     :     0.005466  d :     0.095960
      dxz     :     0.037444
      dyz     :     0.007372
      dx2y2   :     0.017557
      dxy     :     0.028121
      f0      :     0.001236  f :     0.007470
      f+1     :     0.000900
      f-1     :     0.000209
      f+2     :     0.001134
      f-2     :     0.000885
      f+3     :     0.001578
      f-3     :     0.001529
  7 O s       :     3.781238  s :     3.781238
      pz      :     1.868238  p :     4.681221
      px      :     1.230464
      py      :     1.582520
      dz2     :     0.003642  d :     0.027818
      dxz     :     0.003927
      dyz     :     0.003040
      dx2y2   :     0.004153
      dxy     :     0.013057
      f0      :     0.000271  f :     0.001752
      f+1     :     0.000372
      f-1     :     0.000138
      f+2     :     0.000117
      f-2     :     0.000198
      f+3     :     0.000335
      f-3     :     0.000322
  8 H s       :     0.630727  s :     0.630727
      pz      :     0.017592  p :     0.048117
      px      :     0.015677
      py      :     0.014848
  9 H s       :     0.873915  s :     0.873915
      pz      :     0.006211  p :     0.019755
      px      :     0.002982
      py      :     0.010563
 10 H s       :     0.878111  s :     0.878111
      pz      :     0.010948  p :     0.019926
      px      :     0.004588
      py      :     0.004390
 11 H s       :     0.862222  s :     0.862222
      pz      :     0.006519  p :     0.019069
      px      :     0.005581
      py      :     0.006968


                     *******************************
                     * LOEWDIN POPULATION ANALYSIS *
                     *******************************

----------------------
LOEWDIN ATOMIC CHARGES
----------------------
   0 C :   -0.003464
   1 O :   -0.000048
   2 H :   -0.001043
   3 H :   -0.000021
   4 H :   -0.008380
   5 H :   -0.000095
   6 C :   -0.374670
   7 O :   -0.081593
   8 H :    0.169348
   9 H :    0.089848
  10 H :    0.093502
  11 H :    0.116616

-------------------------------
LOEWDIN REDUCED ORBITAL CHARGES
-------------------------------
  0 C s       :     0.000219  s :     0.000219
      pz      :     0.000680  p :     0.003138
      px      :     0.001221
      py      :     0.001237
      dz2     :     0.000018  d :     0.000105
      dxz     :     0.000013
      dyz     :     0.000020
      dx2y2   :     0.000001
      dxy     :     0.000054
      f0      :     0.000000  f :     0.000002
      f+1     :     0.000001
      f-1     :     0.000000
      f+2     :     0.000000
      f-2     :     0.000000
      f+3     :     0.000000
      f-3     :     0.000000
  1 O s       :     0.000017  s :     0.000017
      pz      :     0.000003  p :     0.000029
      px      :     0.000002
      py      :     0.000024
      dz2     :     0.000000  d :     0.000001
      dxz     :     0.000000
      dyz     :     0.000000
      dx2y2   :     0.000000
      dxy     :     0.000001
      f0      :     0.000000  f :     0.000000
      f+1     :     0.000000
      f-1     :     0.000000
      f+2     :     0.000000
      f-2     :     0.000000
      f+3     :     0.000000
      f-3     :     0.000000
  2 H s       :     0.001038  s :     0.001038
      pz      :     0.000000  p :     0.000004
      px      :     0.000001
      py      :     0.000003
  3 H s       :     0.000018  s :     0.000018
      pz      :     0.000001  p :     0.000003
      px      :     0.000001
      py      :     0.000001
  4 H s       :     0.008235  s :     0.008235
      pz      :     0.000027  p :     0.000145
      px      :     0.000068
      py      :     0.000050
  5 H s       :     0.000093  s :     0.000093
      pz      :     0.000000  p :     0.000002
      px      :     0.000001
      py      :     0.000001
  6 C s       :     2.863649  s :     2.863649
      pz      :     1.105769  p :     3.050981
      px      :     0.862218
      py      :     1.082994
      dz2     :     0.040899  d :     0.404761
      dxz     :     0.129382
      dyz     :     0.043309
      dx2y2   :     0.085013
      dxy     :     0.106158
      f0      :     0.007595  f :     0.055278
      f+1     :     0.008256
      f-1     :     0.002113
      f+2     :     0.007885
      f-2     :     0.005537
      f+3     :     0.010782
      f-3     :     0.013110
  7 O s       :     3.358277  s :     3.358277
      pz      :     1.773755  p :     4.651735
      px      :     1.294182
      py      :     1.583798
      dz2     :     0.006695  d :     0.067417
      dxz     :     0.013584
      dyz     :     0.003644
      dx2y2   :     0.013163
      dxy     :     0.030331
      f0      :     0.000545  f :     0.004165
      f+1     :     0.000642
      f-1     :     0.000153
      f+2     :     0.000385
      f-2     :     0.000496
      f+3     :     0.001200
      f-3     :     0.000746
  8 H s       :     0.672131  s :     0.672131
      pz      :     0.049152  p :     0.158522
      px      :     0.048069
      py      :     0.061301
  9 H s       :     0.845497  s :     0.845497
      pz      :     0.020391  p :     0.064655
      px      :     0.010453
      py      :     0.033811
 10 H s       :     0.845294  s :     0.845294
      pz      :     0.033622  p :     0.061205
      px      :     0.013751
      py      :     0.013832
 11 H s       :     0.829431  s :     0.829431
      pz      :     0.018602  p :     0.053952
      px      :     0.014816
      py      :     0.020534


                      *****************************
                      * MAYER POPULATION ANALYSIS *
                      *****************************

  NA   - Mulliken gross atomic population
  ZA   - Total nuclear charge
  QA   - Mulliken gross atomic charge
  VA   - Mayer's total valence
  BVA  - Mayer's bonded valence
  FA   - Mayer's free valence

  ATOM       NA         ZA         QA         VA         BVA        FA
  0 C     -0.0073     0.0000     0.0073    -0.0148    -0.0148     0.0000
  1 O      0.0002     0.0000    -0.0002     0.0005     0.0005    -0.0000
  2 H      0.0016     0.0000    -0.0016     0.0033     0.0033    -0.0000
  3 H      0.0002     0.0000    -0.0002     0.0004     0.0004     0.0000
  4 H      0.0140     0.0000    -0.0140     0.0279     0.0279    -0.0000
  5 H      0.0006     0.0000    -0.0006     0.0012     0.0012    -0.0000
  6 C      6.1467     6.0000    -0.1467     3.9276     3.9276     0.0000
  7 O      8.4920     8.0000    -0.4920     1.8806     1.8806    -0.0000
  8 H      0.6788     1.0000     0.3212     0.9088     0.9088    -0.0000
  9 H      0.8937     1.0000     0.1063     0.9583     0.9583     0.0000
 10 H      0.8980     1.0000     0.1020     0.9576     0.9576    -0.0000
 11 H      0.8813     1.0000     0.1187     0.9592     0.9592     0.0000

  Mayer bond orders larger than 0.1
B(  6-C ,  7-O ) :   0.9868 B(  6-C ,  9-H ) :   0.9752 B(  6-C , 10-H ) :   0.9773 
B(  6-C , 11-H ) :   0.9709 B(  7-O ,  8-H ) :   0.8879 

-------
TIMINGS
-------

Total SCF time: 0 days 0 hours 1 min 30 sec 

Total time                  ....      90.515 sec
Sum of individual times     ....      86.389 sec  ( 95.4%)

Fock matrix formation       ....      80.944 sec  ( 89.4%)
  XC integration            ....      65.237 sec  ( 80.6% of F)
    Basis function eval.    ....       0.055 sec  (  0.1% of XC)
    Density eval.           ....       0.654 sec  (  1.0% of XC)
    XC-Functional eval.     ....       0.553 sec  (  0.8% of XC)
    XC-Potential eval.      ....       0.058 sec  (  0.1% of XC)
Diagonalization             ....       1.601 sec  (  1.8%)
Density matrix formation    ....       0.005 sec  (  0.0%)
Population analysis         ....       0.599 sec  (  0.7%)
Initial guess               ....       0.278 sec  (  0.3%)
Orbital Transformation      ....       0.000 sec  (  0.0%)
Orbital Orthonormalization  ....       0.000 sec  (  0.0%)
DIIS solution               ....       0.548 sec  (  0.6%)
SOSCF solution              ....       0.659 sec  (  0.7%)
Grid generation             ....       1.756 sec  (  1.9%)


-------------------------------------------------------------------------------
                          DFT DISPERSION CORRECTION                            
                                                                               
                              DFTD3 V3.1  Rev 1                                
                              USING zero damping                               
-------------------------------------------------------------------------------
The omegaB97X-D3 functional is recognized. Fit by Chai et al.
Active option DFTDOPT                   ...         3   

molecular C6(AA) [au] = 208.802597 


            DFT-D V3
 parameters
 s6 scaling factor         :     1.0000 
 rs6 scaling factor        :     1.2810 
 s8 scaling factor         :     1.0000 
 rs8 scaling factor        :     1.0940 
 Damping factor alpha6     :    14.0000 
 Damping factor alpha8     :    16.0000 
 ad hoc parameters k1-k3   :    16.0000     1.3333    -4.0000 

 Edisp/kcal,au: -0.165527718765  -0.000263785182 
 E6   /kcal   :  -0.036748075 
 E8   /kcal   :  -0.128779644 
 % E8         :  77.799443603 

-------------------------   ----------------
Dispersion correction           -0.000263785
-------------------------   ----------------


-------------------------   --------------------
FINAL SINGLE POINT ENERGY      -115.733033166018
-------------------------   --------------------


                            ***************************************
                            *     ORCA property calculations      *
                            ***************************************

                                    ---------------------
                                    Active property flags
                                    ---------------------
   (+) Dipole Moment


------------------------------------------------------------------------------
                       ORCA ELECTRIC PROPERTIES CALCULATION
------------------------------------------------------------------------------

Dipole Moment Calculation                       ... on
Quadrupole Moment Calculation                   ... off
Polarizability Calculation                      ... off
GBWName                                         ... 3-198_DFT_B.gbw
Electron density file                           ... 3-198_DFT_B.scfp.tmp
The origin for moment calculation is the CENTER OF MASS  = (-3.103129, -20.728932 13.822203)

-------------
DIPOLE MOMENT
-------------
                                X             Y             Z
Electronic contribution:      1.64071       0.66609       0.09889
Nuclear contribution   :     -1.76703      -1.32652      -0.00419
                        -----------------------------------------
Total Dipole Moment    :     -0.12632      -0.66043       0.09470
                        -----------------------------------------
Magnitude (a.u.)       :      0.67904
Magnitude (Debye)      :      1.72599



--------------------
Rotational spectrum 
--------------------
 
Rotational constants in cm-1:     4.419645     0.812055     0.783502 
Rotational constants in MHz : 132497.611707 24344.804831 23488.806053 

 Dipole components along the rotational axes: 
x,y,z [a.u.] :    -0.292512     0.605244    -0.096001 
x,y,z [Debye]:    -0.743507     1.538407    -0.244014 

 
------------------------------------------------------------------------------
                      ORCA CHELPG CHARGES GENERATION
------------------------------------------------------------------------------

GBW file                           ... 3-198_DFT_B.gbw

Reading the GBW file               ... done

Grid spacing                       ...     0.300000
Point Cut-Off                      ...     2.800000
Van-der-Waals Radii                ...        COSMO
Total charge                       ...            0


Number of points X direction       ...           34
Number of points Y direction       ...           35
Number of points Z direction       ...           28
Maximum number of possible points  ...        33320
Final number of points             ...         6080


CHELPG Charges            
--------------------------------
  0   C   :      -0.043724
  1   O   :       0.005410
  2   H   :       0.009635
  3   H   :       0.016085
  4   H   :       0.001756
  5   H   :      -0.004419
  6   C   :       0.028932
  7   O   :      -0.600130
  8   H   :       0.416113
  9   H   :       0.037535
 10   H   :       0.043904
 11   H   :       0.088903
--------------------------------
Total charge:     0.000000
--------------------------------

CHELPG charges calculated...

Timings for individual parts in CHELPG calculation:
Grid generation                 ...        0.001 sec (=   0.000 min)
Potential calculation           ...        1.262 sec (=   0.021 min)
Fit to the potential            ...        0.002 sec (=   0.000 min)
------------------------------------------------------------------------------


Timings for individual modules:

Sum of individual times         ...       93.254 sec (=   1.554 min)
GTO integral calculation        ...        0.725 sec (=   0.012 min)   0.8 %
SCF iterations                  ...       91.075 sec (=   1.518 min)  97.7 %
CHELPG charge generation        ...        1.454 sec (=   0.024 min)   1.6 %



                             ****ORCA TERMINATED NORMALLY****
TOTAL RUN TIME: 0 days 0 hours 6 minutes 11 seconds 263 msec
