LAMMPS data file via vdw_self_gen.py, on 2021-08-05 13:21:24.714290

6500 atoms
5 atom types
6000 bonds
4 bond types
9500 angles
6 angle types
8000 dihedrals
4 dihedral types

-46.7168137876140221  46.7168137876140150 xlo xhi
-46.7168137876140221  46.7168137876140150 ylo yhi
-46.7168137876140221  46.7168137876140150 zlo zhi

Masses

1  1.007940
2  12.011000
3  12.011000
4  15.999400
5  15.999400

Atoms

1         0    3    0.0550780000000000   13.5672965033999056 -36.0003933267706699  37.5017141107419008 0 0 0
2         0    2    0.2875520000000000   14.2843470527528069 -36.4025554254875345  36.2447201394642562 0 0 0
3         0    5   -0.4278410000000000   13.6985195346036441 -36.7866950312269694  35.2447428872322135 0 0 0
4         0    4   -0.0009920000000000   15.6218039183302260 -36.2979311641398112  36.4558531154705321 0 0 0
5         0    2    0.2875520000000000   16.4449121932363447 -36.5680039858933696  35.4099538463097048 0 0 0
6         0    3    0.0550780000000000   17.8675768875662158 -36.4596031130033680  35.8791542941611468 0 0 0
7         0    5   -0.4278410000000000   16.1486820699503077 -36.8290234262180149  34.2546325180505349 0 0 0
8         0    1    0.0285690000000000   12.4949730425389269 -35.9241381809908162  37.2995031905886449 0 0 0
9         0    1    0.0285690000000000   13.9197453877961124 -35.0211870910567313  37.8367782225575482 0 0 0
10        0    1    0.0285690000000000   13.7308068955249993 -36.7533836831811556  38.2765179097258184 0 0 0
11        0    1    0.0285690000000000   18.0982460337823952 -35.4191627956230164  36.1209819039441840 0 0 0
12        0    1    0.0285690000000000   18.5390842677779624 -36.7957754037414873  35.0837497054384997 0 0 0
13        0    1    0.0285690000000000   18.0235326257341910 -37.1010423363199493  36.7505931199679239 0 0 0
14        1    3    0.0550780000000000  -36.8717149914901512  4.9746341233345897  -34.0641417157888640 0 0 0
15        1    2    0.2875520000000000  -36.8870899586476568  5.7852224075464349  -35.3285150513521344 0 0 0
16        1    5   -0.4278410000000000  -37.4033425222075522  6.8894458100145890  -35.3984120524287107 0 0 0
17        1    4   -0.0009920000000000  -36.2894122726185842  5.0651892526939220  -36.3127141554139428 0 0 0
18        1    2    0.2875520000000000  -36.1556204324991484  5.6552025534309482  -37.5285825245110516 0 0 0
19        1    3    0.0550780000000000  -35.5379117877496711  4.6666562072658282  -38.4757291835271573 0 0 0
20        1    5   -0.4278410000000000  -36.4372964478287074  6.7969518098332919  -37.8567868261171441 0 0 0
21        1    1    0.0285690000000000  -37.2013727166077501  5.5988995051191450  -33.2285579524379528 0 0 0
22        1    1    0.0285690000000000  -35.8554598287387307  4.6321614441458419  -33.8513720389305917 0 0 0
23        1    1    0.0285690000000000  -37.5509395268627131  4.1243726924217698  -34.1629373723229861 0 0 0
24        1    1    0.0285690000000000  -34.5062608349630082  4.4645431088362661  -38.1773141890017911 0 0 0
25        1    1    0.0285690000000000  -35.5390760373320163  5.0830867402931732  -39.4872560918125828 0 0 0
26        1    1    0.0285690000000000  -36.1233976061072042  3.7434764827288398  -38.4865758100079844 0 0 0
27        2    3    0.0550780000000000  -15.3518178608730178 -38.0376754646351429  37.9308952827466115 0 0 0
28        2    2    0.2875520000000000  -15.4069785296623500 -36.5747845341888649  37.5949829220977279 0 0 0
29        2    5   -0.4278410000000000  -15.3336791701850874 -35.6995789779671782  38.4431303508852764 0 0 0
30        2    4   -0.0009920000000000  -15.5861804161680517 -36.4437989220357892  36.2551905164685309 0 0 0
31        2    2    0.2875520000000000  -15.6068042469864796 -35.1852834546286388  35.7452245191713160 0 0 0
32        2    3    0.0550780000000000  -15.8833163229813330 -35.2697712032734785  34.2713596901730995 0 0 0
33        2    5   -0.4278410000000000  -15.4106933060107725 -34.1264839449354511  36.3206677420900306 0 0 0
34        2    1    0.0285690000000000  -15.0483521841601036 -38.1593577166107991  38.9747744523880542 0 0 0
35        2    1    0.0285690000000000  -14.6111183766874131 -38.5385525680961436  37.3017534636344905 0 0 0
36        2    1    0.0285690000000000  -16.3390483150141179 -38.4852448580988238  37.7926609868902474 0 0 0
37        2    1    0.0285690000000000  -15.0354673870962365 -35.7353271812607076  33.7628179365492045 0 0 0
38        2    1    0.0285690000000000  -16.0273083468135162 -34.2622578087704426  33.8703790329467225 0 0 0
39        2    1    0.0285690000000000  -16.7987619503556402 -35.8407783291514548  34.0950580676115820 0 0 0
40        3    3    0.0550780000000000  -3.8215660273643275   34.5339060650334488  14.9616110344245961 0 0 0
41        3    2    0.2875520000000000  -4.6867830450390144   35.2172841647877632  15.9815735694729533 0 0 0
42        3    5   -0.4278410000000000  -4.9137407497299055   34.7387333438048600  17.0816603545576768 0 0 0
43        3    4   -0.0009920000000000  -5.1618279299499399   36.3706837470354500  15.4446229219355704 0 0 0
44        3    2    0.2875520000000000  -5.9263045554154479   37.1640040502646372  16.2387074439489609 0 0 0
45        3    3    0.0550780000000000  -6.3972589235589146   38.3393728995667828  15.4308803007947173 0 0 0
46        3    5   -0.4278410000000000  -6.1979178828471291   37.0237539268888369  17.4207425148984427 0 0 0
47        3    1    0.0285690000000000  -3.3045383943622744   33.6913556146549951  15.4299836141934694 0 0 0
48        3    1    0.0285690000000000  -3.0659722014124258   35.2289351810318863  14.5856515614786186 0 0 0
49        3    1    0.0285690000000000  -4.4414983426264518   34.1605515001533107  14.1428672738517900 0 0 0
50        3    1    0.0285690000000000  -5.5472181437689203   38.9778946953053236  15.1780453922855401 0 0 0
51        3    1    0.0285690000000000  -7.1142904617732867   38.9201363711058690  16.0184022100302919 0 0 0
52        3    1    0.0285690000000000  -6.9009254798166886   37.9922834040197444  14.5247782211213909 0 0 0
53        4    3    0.0550780000000000  -34.4364650534084475 -26.3648532870071541 -14.2615236413005206 0 0 0
54        4    2    0.2875520000000000  -35.4483783851010372 -26.8423312866950887 -15.2635095976675608 0 0 0
55        4    5   -0.4278410000000000  -35.4108166906507407 -27.9573540157682814 -15.7595187260716649 0 0 0
56        4    4   -0.0009920000000000  -36.3209451602884954 -25.8322574294061660 -15.5138938275232690 0 0 0
57        4    2    0.2875520000000000  -37.3514498681848011 -26.0890034235574291 -16.3603531496355785 0 0 0
58        4    3    0.0550780000000000  -38.1441820658307051 -24.8270326047367753 -16.5471149156923296 0 0 0
59        4    5   -0.4278410000000000  -37.6584755751876870 -27.1459831206910671 -16.8887279605289855 0 0 0
60        4    1    0.0285690000000000  -33.8273176944489649 -27.2105517090814608 -13.9293860460576688 0 0 0
61        4    1    0.0285690000000000  -34.9433720929806881 -25.9478624957217718 -13.3871684729534053 0 0 0
62        4    1    0.0285690000000000  -33.7863225095733242 -25.6168478949645326 -14.7217992742323087 0 0 0
63        4    1    0.0285690000000000  -38.6442047836549563 -24.5633984478611609 -15.6118720515719307 0 0 0
64        4    1    0.0285690000000000  -38.9007994552809961 -24.9844818967951738 -17.3212869100913451 0 0 0
65        4    1    0.0285690000000000  -37.4861656290620573 -24.0172530760374414 -16.8733718396675414 0 0 0
66        5    3    0.0550780000000000  -17.6164013598260354  35.9966090016615894 -24.8586007033772063 0 0 0
67        5    2    0.2875520000000000  -16.6871981662055404  36.8982565125925674 -25.6198778400346754 0 0 0
68        5    5   -0.4278410000000000  -16.9787366479848707  38.0454690130781756 -25.9192445300176679 0 0 0
69        5    4   -0.0009920000000000  -15.5585726689461783  36.2048617309445575 -25.9194148170832079 0 0 0
70        5    2    0.2875520000000000  -14.5658307851221593  36.8707266776372222 -26.5639606008468725 0 0 0
71        5    3    0.0550780000000000  -13.4519987546733653  35.9060716896513341 -26.8549822565707679 0 0 0
72        5    5   -0.4278410000000000  -14.5083374969129490  38.0541584810777707 -26.8586375326150666 0 0 0
73        5    1    0.0285690000000000  -18.4552372233783402  36.5826447147268468 -24.4719506739829953 0 0 0
74        5    1    0.0285690000000000  -17.0929369689342572  35.5516476036713982 -24.0081141291345936 0 0 0
75        5    1    0.0285690000000000  -18.0015567400279011  35.2187754685636349 -25.5224390722516681 0 0 0
76        5    1    0.0285690000000000  -12.9812770895521581  35.5927462001670065 -25.9198602572974544 0 0 0
77        5    1    0.0285690000000000  -12.7018102304574754  36.3959260120593555 -27.4825667938667166 0 0 0
78        5    1    0.0285690000000000  -13.8396322809728947  35.0410018578214277 -27.3995614812446036 0 0 0
79        6    3    0.0550780000000000  -4.8850578993634999  -14.6849024139397510 -34.1878049514857452 0 0 0
80        6    2    0.2875520000000000  -5.7660454207952156  -14.9146538763053016 -35.3823780720700185 0 0 0
81        6    5   -0.4278410000000000  -6.9270257496636392  -14.5395078368278252 -35.4282228945142421 0 0 0
82        6    4   -0.0009920000000000  -5.0637663067985565  -15.6133002205062255 -36.3113622316113691 0 0 0
83        6    2    0.2875520000000000  -5.6760519327012142  -15.8737473436678744 -37.4952648673250621 0 0 0
84        6    3    0.0550780000000000  -4.7544437285656649  -16.7079417200147589 -38.3382552009240243 0 0 0
85        6    5   -0.4278410000000000  -6.7706677346830695  -15.4995590817622446 -37.8857135789423936 0 0 0
86        6    1    0.0285690000000000  -5.3774885066622762  -13.9895540032131773 -33.5018134115267046 0 0 0
87        6    1    0.0285690000000000  -3.9378492688802083  -14.2380877871370792 -34.5016289894643222 0 0 0
88        6    1    0.0285690000000000  -4.7106667382949956  -15.6316009683108295 -33.6706970109231563 0 0 0
89        6    1    0.0285690000000000  -3.8828221847700970  -16.1161838395671992 -38.6286056740072254 0 0 0
90        6    1    0.0285690000000000  -5.2805211205800653  -17.0305786331949705 -39.2414442344961074 0 0 0
91        6    1    0.0285690000000000  -4.4474355459062158  -17.5999086885468827 -37.7857038463625301 0 0 0
92        7    3    0.0550780000000000  -3.9509172426670194  -38.1127071267142057  37.2276159659222685 0 0 0
93        7    2    0.2875520000000000  -4.5669057421862753  -36.7522916012939191  37.3881072568243766 0 0 0
94        7    5   -0.4278410000000000  -4.5066051940006417  -36.1192081567959633  38.4303552210301689 0 0 0
95        7    4   -0.0009920000000000  -5.1945811748124520  -36.4209695231342607  36.2302802107153710 0 0 0
96        7    2    0.2875520000000000  -5.7708142236349094  -35.1933196826019952  36.1582858707580641 0 0 0
97        7    3    0.0550780000000000  -6.4604554260768090  -35.0646277350029720  34.8302391710830648 0 0 0
98        7    5   -0.4278410000000000  -5.7451249629414267  -34.2900283046131733  36.9792947343131786 0 0 0
99        7    1    0.0285690000000000  -3.3091578103172057  -38.3245029549763601  38.0877723856046302 0 0 0
100       7    1    0.0285690000000000  -3.3311308579695607  -38.1391561534044996  36.3273391676369783 0 0 0
101       7    1    0.0285690000000000  -4.7372331183755909  -38.8696786946627384  37.1751522544047219 0 0 0
102       7    1    0.0285690000000000  -5.7175665179173398  -35.0431707040686007  34.0290771600908357 0 0 0
103       7    1    0.0285690000000000  -7.0334717497085180  -34.1331113480813571  34.8071752545009545 0 0 0
104       7    1    0.0285690000000000  -7.1558781170569770  -35.8961229783028699  34.6882003107682664 0 0 0
105       8    3    0.0550780000000000  -36.5407994683721711 -13.4753367181081707  14.5459944420781966 0 0 0
106       8    2    0.2875520000000000  -36.3633889133218062 -14.9624808271755434  14.4326031654168325 0 0 0
107       8    5   -0.4278410000000000  -36.2857082359636891 -15.5379589035964649  13.3585909128684452 0 0 0
108       8    4   -0.0009920000000000  -36.3528461775673364 -15.4946133647258080  15.6820182486070134 0 0 0
109       8    2    0.2875520000000000  -36.1458185187012973 -16.8322708259495037  15.7923083542241560 0 0 0
110       8    3    0.0550780000000000  -36.2418299681769440 -17.2142960482984115  17.2416920760379639 0 0 0
111       8    5   -0.4278410000000000  -35.8890543775097015 -17.6388294331319528  14.9124298429068105 0 0 0
112       8    1    0.0285690000000000  -36.3904146794421450 -13.0158367276613074  13.5647575276493768 0 0 0
113       8    1    0.0285690000000000  -35.7973165917110663 -13.0608857954588800  15.2321406888994542 0 0 0
114       8    1    0.0285690000000000  -37.5520380191620902 -13.2500338276232412  14.8933937124220481 0 0 0
115       8    1    0.0285690000000000  -35.4036923652946740 -16.7818562662147599  17.7937120896300449 0 0 0
116       8    1    0.0285690000000000  -36.2023898099052630 -18.3036007367615774  17.3336822934943307 0 0 0
117       8    1    0.0285690000000000  -37.1935978385247026 -16.8715269382884827  17.6562030587593810 0 0 0
118       9    3    0.0550780000000000   26.9622479036166673  34.2918997080933821  36.8831399829827760 0 0 0
119       9    2    0.2875520000000000   25.7679670093561768  35.0569906953438917  36.3889147158905644 0 0 0
120       9    5   -0.4278410000000000   24.7321928982485133  34.5116902464611570  36.0417389190564208 0 0 0
121       9    4   -0.0009920000000000   26.0771957175606879  36.3792402204516563  36.3702589855521836 0 0 0
122       9    2    0.2875520000000000   25.0995632847863277  37.2468745400060826  36.0017520569619194 0 0 0
123       9    3    0.0550780000000000   25.6724394630744612  38.6351736409987083  35.9840565057398933 0 0 0
124       9    5   -0.4278410000000000   23.9289188221996625  37.0122763370919685  35.7463973407246343 0 0 0
125       9    1    0.0285690000000000   26.6793325378614838  33.2496030207073332  37.0568012034197523 0 0 0
126       9    1    0.0285690000000000   27.3095750447519521  34.7115316504258757  37.8310882501393024 0 0 0
127       9    1    0.0285690000000000   27.7571580336744077  34.3249574309686167  36.1340898350020794 0 0 0
128       9    1    0.0285690000000000   25.9168623529330731  38.9466446341877699  37.0026085040271582 0 0 0
129       9    1    0.0285690000000000   24.9341161818445087  39.3276130867640461  35.5693170973856567 0 0 0
130       9    1    0.0285690000000000   26.5616414384155206  38.6643997521524199  35.3487315667705744 0 0 0
131       10   3    0.0550780000000000   26.9712496049902342 -17.5773048344106719  35.6740766318710172 0 0 0
132       10   2    0.2875520000000000   26.2399623820714893 -16.7753540340057441  36.7123557846645454 0 0 0
133       10   5   -0.4278410000000000   25.9210000343524563 -17.2350129304432222  37.7975692854852170 0 0 0
134       10   4   -0.0009920000000000   25.9896285779074994 -15.5392034932790573  36.2087894394289833 0 0 0
135       10   2    0.2875520000000000   25.3791975415708322 -14.6413920640567810  37.0246695960297032 0 0 0
136       10   3    0.0550780000000000   25.1388098784173373 -13.3766721553474905  36.2509952679575065 0 0 0
137       10   5   -0.4278410000000000   25.0782060456843610 -14.7628047858965701  38.2016631712370867 0 0 0
138       10   1    0.0285690000000000   27.3206775806590940 -18.5138725191508620  36.1182869085647695 0 0 0
139       10   1    0.0285690000000000   27.8446984369847890 -17.0232890244684718  35.3198356864377629 0 0 0
140       10   1    0.0285690000000000   26.2987432291375249 -17.8062132297980398  34.8437832059915564 0 0 0
141       10   1    0.0285690000000000   26.0938035579402801 -12.8991271652757380  36.0183093069959526 0 0 0
142       10   1    0.0285690000000000   24.5372136039912938 -12.6905308010152638  36.8542318674537910 0 0 0
143       10   1    0.0285690000000000   24.5860202146162408 -13.5987493758462055  35.3343288115349878 0 0 0
144       11   3    0.0550780000000000  -27.4346477059179072 -14.1810513645371437 -35.1673257583720940 0 0 0
145       11   2    0.2875520000000000  -26.1566330980063988 -14.3594885851322864 -35.9359404265062921 0 0 0
146       11   5   -0.4278410000000000  -25.4006088092299720 -13.4333390149036038 -36.1837021488229951 0 0 0
147       11   4   -0.0009920000000000  -26.0512044365853441 -15.6618978351454121 -36.3059798564745151 0 0 0
148       11   2    0.2875520000000000  -24.9265874865827293 -16.0365816319459569 -36.9687019782434874 0 0 0
149       11   3    0.0550780000000000  -25.0490831968719903 -17.4870582029454766 -37.3388197432078428 0 0 0
150       11   5   -0.4278410000000000  -23.9356823541979793 -15.3710302286998068 -37.2252154358838538 0 0 0
151       11   1    0.0285690000000000  -27.4563325435684042 -13.1803283917846095 -34.7261171820486325 0 0 0
152       11   1    0.0285690000000000  -27.4880658999207448 -14.9110365185589959 -34.3551674002564056 0 0 0
153       11   1    0.0285690000000000  -28.2882990514280444 -14.2919441583557347 -35.8404031838499222 0 0 0
154       11   1    0.0285690000000000  -25.0274339580721552 -18.1016242565363967 -36.4354677751837173 0 0 0
155       11   1    0.0285690000000000  -24.2096301292859977 -17.7704536071008228 -37.9803865929780713 0 0 0
156       11   1    0.0285690000000000  -25.9750020186558608 -17.6536926173479003 -37.8956674818250647 0 0 0
157       12   3    0.0550780000000000   26.8032318821121720  5.9362409988887297   34.2821792404998718 0 0 0
158       12   2    0.2875520000000000   26.3311105045169676  4.8113737087740107   35.1583668187315794 0 0 0
159       12   5   -0.4278410000000000   26.2814089152867574  3.6529564627486675   34.7758607941527984 0 0 0
160       12   4   -0.0009920000000000   25.9584510019073882  5.3240946944528869   36.3594314809622432 0 0 0
161       12   2    0.2875520000000000   25.5504184332577147  4.4498488762907566   37.3152324617355404 0 0 0
162       12   3    0.0550780000000000   25.1233814170590044  5.2286795986830796   38.5264040988927050 0 0 0
163       12   5   -0.4278410000000000   25.5369906693001205  3.2296225541254309   37.2762680735078789 0 0 0
164       12   1    0.0285690000000000   27.2556192380646820  5.5247568815806360   33.3752017272298644 0 0 0
165       12   1    0.0285690000000000   27.5635666158551231  6.5234758775045076   34.8040789599873861 0 0 0
166       12   1    0.0285690000000000   25.9556032202592242  6.5667053754940063   34.0027309026319884 0 0 0
167       12   1    0.0285690000000000   25.9923100449498712  5.7121700996853804   38.9796202470739388 0 0 0
168       12   1    0.0285690000000000   24.6755004541976355  4.5483059065683928   39.2565388211766191 0 0 0
169       12   1    0.0285690000000000   24.3716182915567678  5.9716111028681844   38.2469813370704941 0 0 0
170       13   3    0.0550780000000000  -26.7295453162287657 -25.9900423560358931  34.1240803034564593 0 0 0
171       13   2    0.2875520000000000  -26.3619589679284871 -26.7250070590659696  35.3813141121186092 0 0 0
172       13   5   -0.4278410000000000  -26.4717233274573722 -27.9357630586873640  35.4941561143076001 0 0 0
173       13   4   -0.0009920000000000  -25.9546242780796064 -25.8207646056876037  36.3090739263237694 0 0 0
174       13   2    0.2875520000000000  -25.5249450471077957 -26.2994901304415087  37.5051297247381186 0 0 0
175       13   3    0.0550780000000000  -25.1917055919136850 -25.1364759436716376  38.3951994460936774 0 0 0
176       13   5   -0.4278410000000000  -25.3792619678864249 -27.4605759358562729  37.8534212672609129 0 0 0
177       13   1    0.0285690000000000  -26.9042068212257277 -26.7108104907338735  33.3199855560067775 0 0 0
178       13   1    0.0285690000000000  -25.9088443897089640 -25.3348498057494709  33.8199327431198498 0 0 0
179       13   1    0.0285690000000000  -27.6421140054598098 -25.4118696307888463  34.2883536710957557 0 0 0
180       13   1    0.0285690000000000  -24.3172529345356061 -24.6107884991535357  38.0038042971962611 0 0 0
181       13   1    0.0285690000000000  -24.9646371044089719 -25.5020122702325835  39.4008959840446948 0 0 0
182       13   1    0.0285690000000000  -26.0483909363822903 -24.4607609022189330  38.4635478178904009 0 0 0
183       14   3    0.0550780000000000  -4.0392242720648435   24.3199408516398208 -37.5588734070769874 0 0 0
184       14   2    0.2875520000000000  -4.8140454725837705   24.7170295943194063 -36.3349852073367074 0 0 0
185       14   5   -0.4278410000000000  -5.0860557020257531   23.9302105156147000 -35.4418795052133788 0 0 0
186       14   4   -0.0009920000000000  -5.1589034262577735   26.0259033002999871 -36.4456055060184951 0 0 0
187       14   2    0.2875520000000000  -5.8227589754327420   26.5898348154052684 -35.4036703359619906 0 0 0
188       14   3    0.0550780000000000  -6.1629774704523435   28.0078976851713435 -35.7631473380600653 0 0 0
189       14   5   -0.4278410000000000  -6.1001588210531290   26.0983192278520342 -34.3210288632010574 0 0 0
190       14   1    0.0285690000000000  -3.6178610615328672   23.3209717917521751 -37.4136302647350689 0 0 0
191       14   1    0.0285690000000000  -3.2123102473514242   25.0165956575736139 -37.7207940799436869 0 0 0
192       14   1    0.0285690000000000  -4.7033069484260306   24.3035163407549035 -38.4264997589699959 0 0 0
193       14   1    0.0285690000000000  -5.2477707695953022   28.6011531886780048 -35.8313346108124975 0 0 0
194       14   1    0.0285690000000000  -6.8052828360918785   28.4352040824357211 -34.9876117227414554 0 0 0
195       14   1    0.0285690000000000  -6.7091861347968651   28.0326336368264570 -36.7098343635815283 0 0 0
196       15   3    0.0550780000000000  -37.4821766897246249  13.8523508623027922 -27.0579392191346351 0 0 0
197       15   2    0.2875520000000000  -36.2521499792274042  14.3445437051277196 -26.3503304396983893 0 0 0
198       15   5   -0.4278410000000000  -35.2803735496444304  13.6345645482899958 -26.1446807607222986 0 0 0
199       15   4   -0.0009920000000000  -36.4530779767715316  15.6349737128752260 -25.9778622238628820 0 0 0
200       15   2    0.2875520000000000  -35.4249408135260992  16.2789665092812825 -25.3674860331159309 0 0 0
201       15   3    0.0550780000000000  -35.8829619061545628  17.6567761954873284 -24.9831271002104529 0 0 0
202       15   5   -0.4278410000000000  -34.2895458489896825  15.8794469020945375 -25.1627589863471073 0 0 0
203       15   1    0.0285690000000000  -37.2778803747626952  12.8745127601821316 -27.5036716163574724 0 0 0
204       15   1    0.0285690000000000  -37.7525451881068648  14.5418879844467241 -27.8621608673560708 0 0 0
205       15   1    0.0285690000000000  -38.3035963028475095  13.7535965869561991 -26.3440985755888626 0 0 0
206       15   1    0.0285690000000000  -36.0566104036884667  18.2523964313731391 -25.8827312552739670 0 0 0
207       15   1    0.0285690000000000  -35.1094041553745626  18.1419471247438402 -24.3807816792827516 0 0 0
208       15   1    0.0285690000000000  -36.7936317748344806  17.5935630898331326 -24.3815819313727005 0 0 0
209       16   3    0.0550780000000000   17.0882021682310388  24.4610583211845096 -6.1737769406974046  0 0 0
210       16   2    0.2875520000000000   15.6823896917138743  24.9664019042926171 -6.0180565769677763  0 0 0
211       16   5   -0.4278410000000000   14.7413529829230789  24.5028449781722593 -6.6427777240838637  0 0 0
212       16   4   -0.0009920000000000   15.6876682605008142  25.9983958181044308 -5.1352910727329633  0 0 0
213       16   2    0.2875520000000000   14.4918085704706989  26.5582109131321502 -4.8176773078546127  0 0 0
214       16   3    0.0550780000000000   14.7348908823676403  27.7137283544216579 -3.8894720102406657  0 0 0
215       16   5   -0.4278410000000000   13.3729602731601105  26.2136215415651499 -5.1642136815706241  0 0 0
216       16   1    0.0285690000000000   17.0784316559539597  23.5330368746745009 -6.7527954551745211  0 0 0
217       16   1    0.0285690000000000   17.5188520208365581  24.2441095500885702 -5.1925496671410629  0 0 0
218       16   1    0.0285690000000000   17.6907107741304479  25.2039749061990896 -6.7020849754909779  0 0 0
219       16   1    0.0285690000000000   15.1047740367206504  27.3447221583923294 -2.9296669355938278  0 0 0
220       16   1    0.0285690000000000   13.7964011847395298  28.2510191480216122 -3.7246747983144921  0 0 0
221       16   1    0.0285690000000000   15.4510839112456484  28.4080862200745479 -4.3368049918019329  0 0 0
222       17   3    0.0550780000000000  -24.6263129541460657  38.0100974019992819 -6.1527747364768848  0 0 0
223       17   2    0.2875520000000000  -25.4646307688643425  37.5179789190069357 -5.0077977375711278  0 0 0
224       17   5   -0.4278410000000000  -25.6369305128656997  38.1679825818659424 -3.9887198901095378  0 0 0
225       17   4   -0.0009920000000000  -25.9189414073839792  36.2734604462914945 -5.3062769691734504  0 0 0
226       17   2    0.2875520000000000  -26.7471288068320980  35.6765508783306373 -4.4106451019578152  0 0 0
227       17   3    0.0550780000000000  -27.0691639737273064  34.2944947335921455 -4.9026703107361387  0 0 0
228       17   5   -0.4278410000000000  -27.2140546755042934  36.1362167656432760 -3.3804323516456343  0 0 0
229       17   1    0.0285690000000000  -24.3875777419343542  39.0666531522769276 -6.0002062167703478  0 0 0
230       17   1    0.0285690000000000  -25.1824136237825442  37.9198915488419459 -7.0897635178857259  0 0 0
231       17   1    0.0285690000000000  -23.6963416401086988  37.4383918670106297 -6.2013256214427575  0 0 0
232       17   1    0.0285690000000000  -27.6780912386069957  34.3575003146427917 -5.8079011016080564  0 0 0
233       17   1    0.0285690000000000  -27.6318484985331665  33.7570508642624603 -4.1338122982501195  0 0 0
234       17   1    0.0285690000000000  -26.1457748460339694  33.7426254898884395 -5.0975162840371642  0 0 0
235       18   3    0.0550780000000000  -24.3956729934339300  25.9730515814625278  24.2032074719440971 0 0 0
236       18   2    0.2875520000000000  -25.3331154910351231  25.2116525561041911  25.0961815900878200 0 0 0
237       18   5   -0.4278410000000000  -25.5105583075453062  24.0080133659331416  24.9938176831024244 0 0 0
238       18   4   -0.0009920000000000  -25.9284367408372098  26.0868093083347219  25.9470678959239187 0 0 0
239       18   2    0.2875520000000000  -26.7768883456077411  25.5782509804055636  26.8775785857906335 0 0 0
240       18   3    0.0550780000000000  -27.3696311475127487  26.7160503171080386  27.6585672426795881 0 0 0
241       18   5   -0.4278410000000000  -27.0356078839091936  24.4088919090719401  27.1148850721976338 0 0 0
242       18   1    0.0285690000000000  -23.7920339719006897  25.2676872713130507  23.6247069707777477 0 0 0
243       18   1    0.0285690000000000  -23.7185102949683575  26.5844047463324316  24.8057280233034554 0 0 0
244       18   1    0.0285690000000000  -24.9688626908224833  26.5990511514260248  23.5150002638205891 0 0 0
245       18   1    0.0285690000000000  -26.5928654038871173  27.1956889553511729  28.2592224333955038 0 0 0
246       18   1    0.0285690000000000  -28.1472329890443049  26.3326805992762871  28.3256245610536155 0 0 0
247       18   1    0.0285690000000000  -27.8297944278192908  27.4369779462043368  26.9776228942464016 0 0 0
248       19   3    0.0550780000000000  -25.7676059375356346  28.2647514455007531 -15.9148819606934406 0 0 0
249       19   2    0.2875520000000000  -25.3404609036909001  27.0237945026625717 -15.1844692870058573 0 0 0
250       19   5   -0.4278410000000000  -24.4709696249996469  27.0286891046118214 -14.3273388524443455 0 0 0
251       19   4   -0.0009920000000000  -26.0422480812215085  25.9691386442741390 -15.6738668909237671 0 0 0
252       19   2    0.2875520000000000  -25.8353820217730537  24.7566714251415583 -15.0981225739937575 0 0 0
253       19   3    0.0550780000000000  -26.6523054592646957  23.7319370633906601 -15.8319006243085791 0 0 0
254       19   5   -0.4278410000000000  -25.1445052535789131  24.4805832280349627 -14.1300753621863819 0 0 0
255       19   1    0.0285690000000000  -25.3331441451208477  29.1415602233553059 -15.4259739670904459 0 0 0
256       19   1    0.0285690000000000  -26.8560369310049225  28.3625626543646767 -15.8819583054277746 0 0 0
257       19   1    0.0285690000000000  -25.4166476267592110  28.2232648577861269 -16.9488830144824441 0 0 0
258       19   1    0.0285690000000000  -27.7157622241927335  23.9157748736238602 -15.6602373767643517 0 0 0
259       19   1    0.0285690000000000  -26.4009447366278849  22.7338200664799146 -15.4615188238736909 0 0 0
260       19   1    0.0285690000000000  -26.4231977425535760  23.7666625990970815 -16.9002993737992853 0 0 0
261       20   3    0.0550780000000000  -28.2620398506723269 -5.2763336791291353  -4.7942132716568020  0 0 0
262       20   2    0.2875520000000000  -27.1115633210547280 -4.8786145212302907  -5.6740728707061203  0 0 0
263       20   5   -0.4278410000000000  -27.2656801319497823 -4.3394177651881600  -6.7586126300387042  0 0 0
264       20   4   -0.0009920000000000  -25.9543312925132206 -5.2571529320074930  -5.0725440346691490  0 0 0
265       20   2    0.2875520000000000  -24.7901594286047100 -4.9333674415896756  -5.6923977835314936  0 0 0
266       20   3    0.0550780000000000  -23.6496710814564075 -5.5027336474507500  -4.8980533395764150  0 0 0
267       20   5   -0.4278410000000000  -24.6241584128904414 -4.2702279436767236  -6.7040007070096603  0 0 0
268       20   1    0.0285690000000000  -29.1855299476193899 -4.8382148808302530  -5.1838280398802539  0 0 0
269       20   1    0.0285690000000000  -28.1073168343144459 -4.8959656097785604  -3.7809443304434387  0 0 0
270       20   1    0.0285690000000000  -28.3604050029172186 -6.3645870400376037  -4.7852705989424553  0 0 0
271       20   1    0.0285690000000000  -23.5763764445222748 -4.9883832426252139  -3.9366603610538560  0 0 0