LAMMPS data file via vdw_self_gen.py, on 2021-08-05 13:23:18.334551

3000 atoms
4 atom types
2500 bonds
3 bond types
3000 angles
4 angle types
2000 dihedrals
1 dihedral types

-36.0499219935419006  36.0499219935419006 xlo xhi
-36.0499219935419006  36.0499219935419006 ylo yhi
-36.0499219935419006  36.0499219935419006 zlo zhi

Masses

1  35.452700
2  1.007940
3  12.011000
4  12.011000

Atoms

1         0    1   -0.0696421666666667   21.5835697029282869 -20.2792961997801626 -18.6900182310661691 0 0 0
2         0    4    0.1195898333333333   20.5774943139525774 -20.1305486273415148 -20.0805425499441199 0 0 0
3         0    1   -0.0696421666666667   21.2958431784012241 -20.3043064562770716 -21.6367150030896376 0 0 0
4         0    3   -0.2061751666666667   19.2706897395692103 -19.8861531897543387 -19.9550169559113577 0 0 0
5         0    2    0.1129348333333333   18.8094636338222294 -19.7752248193110916 -18.9797546064851730 0 0 0
6         0    2    0.1129348333333333   18.6293460764661454 -19.7908773526754693 -20.8243592986431878 0 0 0
7         1    1   -0.0696421666666667  -27.0946427737886104 -13.4124119085733646 -21.2251181813102576 0 0 0
8         1    4    0.1195898333333333  -27.8514293466468636 -12.0162703329669132 -20.5573351371974233 0 0 0
9         1    1   -0.0696421666666667  -28.0204137001185849 -10.6189648124298994 -21.5507490230770848 0 0 0
10        1    3   -0.2061751666666667  -28.2968844245168043 -12.0171485644050282 -19.2984495178461586 0 0 0
11        1    2    0.1129348333333333  -28.1950381472073595 -12.8918607303199977 -18.6654588095426668 0 0 0
12        1    2    0.1129348333333333  -28.7745609109172911 -11.1431876383885875 -18.8692959761660575 0 0 0
13        2    1   -0.0696421666666667   4.8610956078306184  -3.9155084925222248  -2.1258339274263216  0 0 0
14        2    4    0.1195898333333333   4.1261269794367550  -3.5883265800049333  -3.6492001084210228  0 0 0
15        2    1   -0.0696421666666667   3.7693870112791075  -1.9524490962568546  -4.0548243574310332  0 0 0
16        2    3   -0.2061751666666667   3.8395006336356645  -4.5800775685733104  -4.4962534213041927  0 0 0
17        2    2    0.1129348333333333   4.0602870784740173  -5.6128866946447351  -4.2498189897017342  0 0 0
18        2    2    0.1129348333333333   3.3768840183717783  -4.3840328970258700  -5.4573505247436138  0 0 0
19        3    1   -0.0696421666666667  -19.7507235642151535 -17.9846886744668737  12.1670411626971795 0 0 0
20        3    4    0.1195898333333333  -19.5898786079909435 -19.6997647982418478  12.1443651905185828 0 0 0
21        3    1   -0.0696421666666667  -18.0556145682378784 -20.3861066861484197  12.5223311245992210 0 0 0
22        3    3   -0.2061751666666667  -20.6306808609831869 -20.4793651432897548  11.8407569355790177 0 0 0
23        3    2    0.1129348333333333  -21.6003146246527535 -20.0566067886551238  11.6014725605383173 0 0 0
24        3    2    0.1129348333333333  -20.5391944190597435 -21.5598745543376324  11.8238770131515061 0 0 0
25        4    1   -0.0696421666666667   12.1416761705940512 -28.8614560718401520  5.8979107205731829  0 0 0
26        4    4    0.1195898333333333   11.7849535582371363 -27.9163142187558400  4.5024440368499175  0 0 0
27        4    1   -0.0696421666666667   10.7015045763977437 -26.5868739346271639  4.6655894100207576  0 0 0
28        4    3   -0.2061751666666667   12.3356826322953435 -28.2075351996534316  3.3212955163106797  0 0 0
29        4    2    0.1129348333333333   13.0187809023608629 -29.0423273226628460  3.2087338043703619  0 0 0
30        4    2    0.1129348333333333   12.1172461471986939 -27.6184625556560910  2.4373078409030384  0 0 0
31        5    1   -0.0696421666666667   18.2516228160454439  29.0581397827245631 -11.7341114309974817 0 0 0
32        5    4    0.1195898333333333   19.7620703586856195  28.4482347384575185 -12.2948568883218030 0 0 0
33        5    1   -0.0696421666666667   20.4392206013544531  29.1225176268050099 -13.7282792662116240 0 0 0
34        5    3   -0.2061751666666667   20.3935667614108596  27.4750555706943551 -11.6335259567324218 0 0 0
35        5    2    0.1129348333333333   19.9752547973341876  27.0443633092094586 -10.7303700727304694 0 0 0
36        5    2    0.1129348333333333   21.3446713103091028  27.0846582753046050 -11.9787003720899836 0 0 0
37        6    1   -0.0696421666666667   21.6884682059687854  20.3140813828023248  21.2249646315255234 0 0 0
38        6    4    0.1195898333333333   20.1210823262168752  20.0031396272359352  20.5811570992617199 0 0 0
39        6    1   -0.0696421666666667   18.8464922814248368  19.6150591808492187  21.6732666921823736 0 0 0
40        6    3   -0.2061751666666667   19.8991887687523565  20.0616008819077685  19.2656459700203371 0 0 0
41        6    2    0.1129348333333333   20.6951128857152007  20.3050548635817023  18.5703717557393624 0 0 0
42        6    2    0.1129348333333333   18.9160621770616295  19.8674707087627240  18.8510004964103501 0 0 0
43        7    1   -0.0696421666666667   5.2392749486972852  -2.8031614082016354  -13.1592585225152110 0 0 0
44        7    4    0.1195898333333333   4.3457395348170680  -3.5730228367554742  -11.9035598106551799 0 0 0
45        7    1   -0.0696421666666667   4.5192747163482592  -2.9861847322150732  -10.2931573274447352 0 0 0
46        7    3   -0.2061751666666667   3.5370865137250465  -4.6011535166691715  -12.1723563820599310 0 0 0
47        7    2    0.1129348333333333   3.4213096552705866  -4.9775914664358867  -13.1828322418516688 0 0 0
48        7    2    0.1129348333333333   2.9705959601697005  -5.0921673687506868  -11.3886797025570701 0 0 0
49        8    1   -0.0696421666666667  -18.4960430721715454 -2.9513305268068750   19.1244400515672623 0 0 0
50        8    4    0.1195898333333333  -19.9757619077365831 -3.4828320715567975   19.8285775989274953 0 0 0
51        8    1   -0.0696421666666667  -21.2924673139875225 -2.3747408540245383   19.9080150263620688 0 0 0
52        8    3   -0.2061751666666667  -20.0993041871748801 -4.7253486195119114   20.3019843305535908 0 0 0
53        8    2    0.1129348333333333  -19.2761474753666775 -5.4299831212040433   20.2564374203379387 0 0 0
54        8    2    0.1129348333333333  -21.0266826887024365 -5.0690461359237613   20.7469522173913212 0 0 0
55        9    1   -0.0696421666666667   20.1145822547251036 -29.4548632092498970  26.5352678766379491 0 0 0
56        9    4    0.1195898333333333   20.4260697786585652 -28.3878416954193433  27.8514411256658043 0 0 0
57        9    1   -0.0696421666666667   21.9870184086486944 -28.4155589060124782  28.5798371092275403 0 0 0
58        9    3   -0.2061751666666667   19.4792088826363425 -27.5582208866364518  28.2968709826785840 0 0 0
59        9    2    0.1129348333333333   18.4937016738874895 -27.5335399682586406  27.8448337408808868 0 0 0
60        9    2    0.1129348333333333   19.6658256465834711 -26.8829446376187065  29.1247184681047528 0 0 0
61        10   1   -0.0696421666666667   20.1284721198043606  29.8687250427180473  27.0824178098997024 0 0 0
62        10   4    0.1195898333333333   20.1190995842073086  28.5661047037766309  28.2097881209122896 0 0 0
63        10   1   -0.0696421666666667   20.3963026464754407  28.9173867545974943  29.8734133675168998 0 0 0
64        10   3   -0.2061751666666667   19.9019219347724707  27.3127433706807601  27.8034099256481824 0 0 0
65        10   2    0.1129348333333333   19.7264743299881644  27.0817712904505115  26.7584021216918870 0 0 0
66        10   2    0.1129348333333333   19.8941360298919285  26.4862381409720697  28.5055379575265491 0 0 0
67        11   1   -0.0696421666666667   5.7140685949504553  -2.8565320111776380   3.8208586938920188  0 0 0
68        11   4    0.1195898333333333   4.5498660130844870  -4.1217363724609255   3.9293099851077051  0 0 0
69        11   1   -0.0696421666666667   5.0930239872557070  -5.7513970866451372   3.7986388335905645  0 0 0
70        11   3   -0.2061751666666667   3.2559937217373975  -3.8455502001757633   4.1105272365566634  0 0 0
71        11   2    0.1129348333333333   2.9045507514728151  -2.8229538843097988   4.1939292007359459  0 0 0
72        11   2    0.1129348333333333   2.5157782605270764  -4.6351117742586530   4.1800173791450446  0 0 0
73        12   1   -0.0696421666666667   29.1959117780694051 -18.9104430981238103 -21.3262755560365704 0 0 0
74        12   4    0.1195898333333333   28.5226787699634130 -19.7465023420567896 -19.9788210419876719 0 0 0
75        12   1   -0.0696421666666667   29.3671307826544918 -19.7004174901877960 -18.4779324509222995 0 0 0
76        12   3   -0.2061751666666667   27.3725444150141435 -20.4150056592830715 -20.0950891834662926 0 0 0
77        12   2    0.1129348333333333   26.8337620071751068 -20.4497584553740488 -21.0356618996169509 0 0 0
78        12   2    0.1129348333333333   26.9409415503189500 -20.9442796001141431 -19.2526265131098739 0 0 0
79        13   1   -0.0696421666666667  -26.6023080139509425  3.0949250123403589   5.1805229918057565  0 0 0
80        13   4    0.1195898333333333  -28.0548475957363443  3.6382841543881406   4.4303490012543856  0 0 0
81        13   1   -0.0696421666666667  -29.5576412100952375  3.0296606915652640   5.0126533986648978  0 0 0
82        13   3   -0.2061751666666667  -28.0167704104823372  4.5112835772500235   3.4205737114270107  0 0 0
83        13   2    0.1129348333333333  -27.0756955158826145  4.8999911828583382   3.0471360134151873  0 0 0
84        13   2    0.1129348333333333  -28.9257065570480378  4.8591367106258216   2.9420462124606956  0 0 0
85        14   1   -0.0696421666666667  -20.2525215497898685 -19.1001782339685953  5.8392594005121676  0 0 0
86        14   4    0.1195898333333333  -20.2868506475879684 -19.5606360843954263  4.1795390954533156  0 0 0
87        14   1   -0.0696421666666667  -21.1339410244855515 -18.5559451334700860  3.0655716073297903  0 0 0
88        14   3   -0.2061751666666667  -19.6709211035202500 -20.6709509160145934  3.7659502032777175  0 0 0
89        14   2    0.1129348333333333  -19.1352056193527247 -21.3096881340875015  4.4596323786805723  0 0 0
90        14   2    0.1129348333333333  -19.6869667004032856 -20.9690081432034638  2.7233286437743796  0 0 0
91        15   1   -0.0696421666666667  -13.5406792725182790 -26.6708656994921434  11.7349028242171496 0 0 0
92        15   4    0.1195898333333333  -12.0514093566661682 -27.5362239336817254  11.7680940016309119 0 0 0
93        15   1   -0.0696421666666667  -10.6711903164620612 -26.8250643615100408  11.0216778696598574 0 0 0
94        15   3   -0.2061751666666667  -11.9687612544703637 -28.7309382850410877  12.3588993081062508 0 0 0
95        15   2    0.1129348333333333  -12.8320384708239548 -29.1866725795066060  12.8313715028149051 0 0 0
96        15   2    0.1129348333333333  -11.0357653161429621 -29.2832044439639283  12.3848984806547548 0 0 0
97        16   1   -0.0696421666666667  -13.4511828145258718  26.6512231024581645  3.4670005070879455  0 0 0
98        16   4    0.1195898333333333  -12.5012006866534442  27.8675843556122871  4.2324223963413719  0 0 0
99        16   1   -0.0696421666666667  -13.0711280432981809  28.5468037836734325  5.7094915737302383  0 0 0
100       16   3   -0.2061751666666667  -11.3493795526900598  28.2746410109005204  3.6931293822563882  0 0 0
101       16   2    0.1129348333333333  -10.9824328476657982  27.8530488548967874  2.7637309510827794  0 0 0
102       16   2    0.1129348333333333  -10.7445200422504232  29.0396681956543325  4.1675065185292102  0 0 0
103       17   1   -0.0696421666666667  -26.4845571385736314 -2.8723976155511934  -12.7740081310075038 0 0 0
104       17   4    0.1195898333333333  -27.6461710831402812 -4.0911762592240128  -12.4091751945621631 0 0 0
105       17   1   -0.0696421666666667  -27.5761376298520098 -5.5785564247738275  -13.2755960718784465 0 0 0
106       17   3   -0.2061751666666667  -28.5795367449653277 -3.8876323073824590  -11.4761037067893241 0 0 0
107       17   2    0.1129348333333333  -28.6316213760855547 -2.9547450023647013  -10.9254861066912365 0 0 0
108       17   2    0.1129348333333333  -29.3149453305787269 -4.6487737197317225  -11.2394747761551077 0 0 0
109       18   1   -0.0696421666666667  -5.7137363359146320   11.8530725825039962  13.1693442831256231 0 0 0
110       18   4    0.1195898333333333  -4.5210136439217514   12.2380740770992933  11.9873722702739549 0 0 0
111       18   1   -0.0696421666666667  -4.9451462794632919   13.3176536061786663  10.7135947677401191 0 0 0
112       18   3   -0.2061751666666667  -3.2957252882398702   11.7117163652512950  12.0569424140752499 0 0 0
113       18   2    0.1129348333333333  -3.0193964358467866   11.0312585179498193  12.8549341167770805 0 0 0
114       18   2    0.1129348333333333  -2.5382633456415795   11.9480688381007489  11.3176561350917986 0 0 0
115       19   1   -0.0696421666666667   19.5567204355374678  18.0738229921376856 -20.5112292149263382 0 0 0
116       19   4    0.1195898333333333   20.2972891106325761  19.5368738134898656 -19.9831082613479332 0 0 0
117       19   1   -0.0696421666666667   21.8833754145561308  19.4602507366229958 -19.3150149155514299 0 0 0
118       19   3   -0.2061751666666667   19.6565459738735875  20.7036728542008923 -20.0891847978302351 0 0 0
119       19   2    0.1129348333333333   18.6580071259670817  20.7619460692609330 -20.5083454780330925 0 0 0
120       19   2    0.1129348333333333   20.1144685845728191  21.6298401794273119 -19.7595239774506162 0 0 0
121       20   1   -0.0696421666666667   21.8643271733292046 -12.8466754979067410  12.4763804273993433 0 0 0
122       20   4    0.1195898333333333   20.5214804408673608 -12.0480791417680226  11.7505168568308207 0 0 0
123       20   1   -0.0696421666666667   20.7273572079098294 -11.3481006157137383  10.1898969806421924 0 0 0
124       20   3   -0.2061751666666667   19.3478230903529571 -11.9733463660690660  12.3831047448905327 0 0 0
125       20   2    0.1129348333333333   19.2085770726893870 -12.4108695985527699  13.3656296767888811 0 0 0
126       20   2    0.1129348333333333   18.4968416599909240 -11.4727727670734403  11.9343153005320701 0 0 0
127       21   1   -0.0696421666666667   2.5160653123168348  -5.0004936029455571  -27.0068800551560244 0 0 0
128       21   4    0.1195898333333333   3.7003033017971041  -4.4665319631565144  -28.1383997242318671 0 0 0
129       21   1   -0.0696421666666667   3.9270830172139308  -5.3785333370411355  -29.5822536063155148 0 0 0
130       21   3   -0.2061751666666667   4.4258832074626806  -3.3707500986497427  -27.9017144770946572 0 0 0
131       21   2    0.1129348333333333   4.2903290909902090  -2.7901622981114218  -26.9957817193397283 0 0 0
132       21   2    0.1129348333333333   5.1736173992471981  -3.0268100291235438  -28.6079397210577220 0 0 0
133       22   1   -0.0696421666666667   11.8796973984250069 -21.8704447250380376 -28.9656813283443277 0 0 0
134       22   4    0.1195898333333333   12.3399375228108106 -20.4870734575267406 -28.0478935674052821 0 0 0
135       22   1   -0.0696421666666667   13.8142680621124789 -20.5445005437628190 -27.1585448344838944 0 0 0
136       22   3   -0.2061751666666667   11.5714463500457416 -19.3952031005395469 -28.0263426691680380 0 0 0
137       22   2    0.1129348333333333   10.6417375233131430 -19.3496079328714998 -28.5828800465119386 0 0 0
138       22   2    0.1129348333333333   11.8527571303766415 -18.5195768854010012 -27.4516268572820294 0 0 0
139       23   1   -0.0696421666666667  -20.7689135253795989 -12.0285634893748128 -13.9463822923251630 0 0 0
140       23   4    0.1195898333333333  -20.4781728434025325 -11.7908396745890887 -12.2650647572571412 0 0 0
141       23   1   -0.0696421666666667  -21.6003244302947266 -10.8448534044029525 -11.3629697673837633 0 0 0
142       23   3   -0.2061751666666667  -19.4074596534347847 -12.3275772499689538 -11.6745480002515158 0 0 0
143       23   2    0.1129348333333333  -18.6955427177727458 -12.9245012931405139 -12.2340363715348648 0 0 0
144       23   2    0.1129348333333333  -19.2159934748552530 -12.1835088756074637 -10.6168427983313318 0 0 0
145       24   1   -0.0696421666666667  -29.9804110702365634  4.2693649987113851  -27.3800055031577720 0 0 0
146       24   4    0.1195898333333333  -28.2719173037502003  4.2696175520965118  -27.6011850593875430 0 0 0
147       24   1   -0.0696421666666667  -27.2945459882348516  5.0981718697078522  -26.4496067370510204 0 0 0
148       24   3   -0.2061751666666667  -27.7178523157985879  3.6419110055289790  -28.6414833247049714 0 0 0
149       24   2    0.1129348333333333  -28.3247854257669935  3.1176949291898062  -29.3715524854915699 0 0 0
150       24   2    0.1129348333333333  -26.6434571994083171  3.6365209737934090  -28.7891361934026513 0 0 0
151       25   1   -0.0696421666666667   18.4107367845440137  12.3386030367627342  5.2525633874727280  0 0 0
152       25   4    0.1195898333333333   19.9450737324338050  12.3226665339843056  4.4693472179387959  0 0 0
153       25   1   -0.0696421666666667   21.2201376404005444  13.2666330227345224  5.1409340528433916  0 0 0
154       25   3   -0.2061751666666667   20.1415632825403215  11.5952304962268151  3.3668715184466800  0 0 0
155       25   2    0.1129348333333333   19.3451182120770362  10.9978862876088854  2.9367245431401470  0 0 0
156       25   2    0.1129348333333333   21.1037769931439527  11.5788246097665652  2.8668406091861902  0 0 0
157       26   1   -0.0696421666666667   2.7049717504867381  -13.5232902322948192 -12.5751231891616921 0 0 0
158       26   4    0.1195898333333333   3.6925366377626978  -12.1154310995590855 -12.4725577671512475 0 0 0
159       26   1   -0.0696421666666667   3.6982801914037187  -11.0174374848863561 -13.8000616699061460 0 0 0
160       26   3   -0.2061751666666667   4.4365781194595053  -11.8806009286510843 -11.3888229911817085 0 0 0
161       26   2    0.1129348333333333   4.4395541040924975  -12.5658620798324225 -10.5482401146031428 0 0 0
162       26   2    0.1129348333333333   5.0613605258227947  -10.9972221618600194 -11.3150382550798447 0 0 0
163       27   1   -0.0696421666666667   21.0726882534345528 -21.0866775247218534  26.6035225306268046 0 0 0
164       27   4    0.1195898333333333   20.5730591741437685 -20.1064952941992949  27.9292242271237328 0 0 0
165       27   1   -0.0696421666666667   21.7839462595821054 -19.3733507373347784  28.9111310980430574 0 0 0
166       27   3   -0.2061751666666667   19.2767974568997644 -19.9192772399110716  28.1897601380000751 0 0 0
167       27   2    0.1129348333333333   18.5073392271858026 -20.3765653956507364  27.5773935406536204 0 0 0
168       27   2    0.1129348333333333   18.9525762738936692 -19.3040404533219210  29.0219377687482307 0 0 0
169       28   1   -0.0696421666666667  -29.5365777737464583  4.4640394573954616   29.3878731271349132 0 0 0
170       28   4    0.1195898333333333  -28.0489876869330388  4.1260141384565294   28.5874444748674890 0 0 0
171       28   1   -0.0696421666666667  -26.5932600174802189  4.1658477240321572   29.5078573256848031 0 0 0
172       28   3   -0.2061751666666667  -28.0248363207039048  3.8396590941341220   27.2833580128564819 0 0 0
173       28   2    0.1129348333333333  -28.9358988280957163  3.8121920847254329   26.6956659632088034 0 0 0
174       28   2    0.1129348333333333  -27.0934086762361765  3.6255288302842428   26.7707703994430197 0 0 0
175       29   1   -0.0696421666666667   18.4792831800273696 -12.4477916901026227 -2.7056242654107976  0 0 0
176       29   4    0.1195898333333333   19.4749669862200925 -12.0959836420208031 -4.0667694690501452  0 0 0
177       29   1   -0.0696421666666667   18.7367895126015114 -11.9930400271732882 -5.6199552942829847  0 0 0
178       29   3   -0.2061751666666667   20.7889211743259956 -11.9073828167013378 -3.9212424250075166  0 0 0
179       29   2    0.1129348333333333   21.2626223867970765 -11.9701569113577513 -2.9476727826380071  0 0 0
180       29   2    0.1129348333333333   21.4238234051676315 -11.6854888997279875 -4.7720170926384737  0 0 0
181       30   1   -0.0696421666666667  -26.7558525045642064  4.3543073636668437  -13.5995906923781291 0 0 0
182       30   4    0.1195898333333333  -27.6525880112837150  3.6970956734019076  -12.2836083083138181 0 0 0
183       30   1   -0.0696421666666667  -27.3378022556293097  2.0723666191003378  -11.8050113941517925 0 0 0
184       30   3   -0.2061751666666667  -28.5707001661723261  4.4302967275438778  -11.6490137247008612 0 0 0
185       30   2    0.1129348333333333  -28.7758631713788766  5.4538437723943396  -11.9430049872793642 0 0 0
186       30   2    0.1129348333333333  -29.1401631941670871  4.0253711729206358  -10.8196148802598238 0 0 0
187       31   1   -0.0696421666666667   21.6787318163501084  3.7488928516443045   21.2449968245859395 0 0 0
188       31   4    0.1195898333333333   20.1793476155401592  3.6194239302476308   20.4065719759835922 0 0 0
189       31   1   -0.0696421666666667   19.1555179807929328  2.2788089174971109   20.7564488753371847 0 0 0
190       31   3   -0.2061751666666667   19.8189552616648896  4.5372544893461786   19.5060563368339430 0 0 0
191       31   2    0.1129348333333333   20.4566811554166961  5.3845794614966032   19.2790819986176096 0 0 0
192       31   2    0.1129348333333333   18.8771728153748910  4.4643216787961126   18.9732506337813973 0 0 0
193       32   1   -0.0696421666666667   21.0661227133853401  28.7297244637697169 -5.6541230954314150  0 0 0
194       32   4    0.1195898333333333   20.5703356292591550  28.1341798423492584 -4.1154895519549974  0 0 0
195       32   1   -0.0696421666666667   21.7765209219081832  27.8377306939921070 -2.9217037586338095  0 0 0
196       32   3   -0.2061751666666667   19.2805480350373735  27.9075227953073437 -3.8541496485383218  0 0 0
197       32   2    0.1129348333333333   18.5140901127319850  28.0910974241880318 -4.5991421875389609  0 0 0
198       32   2    0.1129348333333333   18.9587892328176331  27.5327140835890525 -2.8886730869304196  0 0 0
199       33   1   -0.0696421666666667  -3.6561624200003640   26.1203638893853594  12.7028013275520948 0 0 0
200       33   4    0.1195898333333333  -3.8670636967795451   27.8198218517625442  12.5150922559394591 0 0 0
201       33   1   -0.0696421666666667  -3.6435771017933600   28.8323307779895259  13.8908716693165353 0 0 0
202       33   3   -0.2061751666666667  -4.1962459975407134   28.3404115402106420  11.3302507520043960 0 0 0
203       33   2    0.1129348333333333  -4.3390532674587101   27.7111868510101367  10.4585549057603675 0 0 0
204       33   2    0.1129348333333333  -4.3311788454552378   29.4088543928373056  11.2022730765109770 0 0 0
205       34   1   -0.0696421666666667   11.4214355591768779 -26.5898427163832984  21.3766463135155433 0 0 0
206       34   4    0.1195898333333333   11.5379036870799041 -27.9304555067995679  20.3009772513244613 0 0 0
207       34   1   -0.0696421666666667   10.1527169354323039 -28.9311358134288206  20.0823767822390522 0 0 0
208       34   3   -0.2061751666666667   12.6758833314941217 -28.1880646080207029  19.6514667585940224 0 0 0
209       34   2    0.1129348333333333   13.5530531499519036 -27.5639201387292303  19.7825700203368413 0 0 0
210       34   2    0.1129348333333333   12.7588513239487220 -29.0295505198339043  18.9723695191297601 0 0 0
211       35   1   -0.0696421666666667  -26.8959352719023528 -29.0676531816132311  26.6572688636484969 0 0 0
212       35   4    0.1195898333333333  -27.9766438653882403 -28.0089238263318911  27.4813031458426842 0 0 0
213       35   1   -0.0696421666666667  -28.8623100340284573 -26.8563955149775708  26.5565526349734462 0 0 0
214       35   3   -0.2061751666666667  -28.1244590427744612 -28.0800057547981652  28.8065661510910047 0 0 0
215       35   2    0.1129348333333333  -27.5713451889861467 -28.8021098387912602  29.3971607928106238 0 0 0
216       35   2    0.1129348333333333  -28.8022759001158519 -27.4178811866833883  29.3341177148292616 0 0 0
217       36   1   -0.0696421666666667  -19.0856225252143048  13.5238271220141613 -2.9499875767504768  0 0 0
218       36   4    0.1195898333333333  -19.5148474364668374  12.2452791061129229 -4.0218795286725149  0 0 0
219       36   1   -0.0696421666666667  -18.3353002289944200  11.6838893414786185 -5.1449999565910245  0 0 0
220       36   3   -0.2061751666666667  -20.7340035998573669  11.7017948282906428 -3.9830582802781516  0 0 0
221       36   2    0.1129348333333333  -21.4831615295804390  12.0484186592873890 -3.2796483071343441  0 0 0
222       36   2    0.1129348333333333  -21.0134713250262877  10.8966349299001006 -4.6537076796014194  0 0 0
223       37   1   -0.0696421666666667  -14.0531229215223838  4.1975375364170135   4.3043293292058120  0 0 0
224       37   4    0.1195898333333333  -12.4711168728725639  3.8853258391743166   3.6979860863637759  0 0 0
225       37   1   -0.0696421666666667  -12.3146583448588327  3.1960244756364151   2.1269119514686206  0 0 0
226       37   3   -0.2061751666666667  -11.3908049336861517  4.1710949836244655   4.4290716562060082  0 0 0
227       37   2    0.1129348333333333  -11.4792034399724265  4.6051191441144796   5.4190110515213412  0 0 0
228       37   2    0.1129348333333333  -10.3909374741714267  3.9781793500612408   4.0559712542623894  0 0 0
229       38   1   -0.0696421666666667   5.2436560864544877   2.3501097873025243   4.0077734074637590  0 0 0
230       38   4    0.1195898333333333   4.0855587528374810   3.5752807870219865   3.6533189007699192  0 0 0
231       38   1   -0.0696421666666667   3.1784233836347555   3.4508375382141514   2.1940352142073718  0 0 0
232       38   3   -0.2061751666666667   3.8953666438352967   4.5980445863481112   4.4905794174320324  0 0 0
233       38   2    0.1129348333333333   4.4615457851769182   4.6849792837545641   5.4114783328926315  0 0 0
234       38   2    0.1129348333333333   3.1687306770890107   5.3740293463866138   4.2760960562622241  0 0 0
235       39   1   -0.0696421666666667   4.7961944541577788  -28.7010792679894813  2.2139857501351785  0 0 0
236       39   4    0.1195898333333333   3.8374547452788512  -28.0147816024502241  3.4700451017957978  0 0 0
237       39   1   -0.0696421666666667   2.3514528943779460  -27.2530624099463843  3.0464038042451755  0 0 0
238       39   3   -0.2061751666666667   4.2370168148564691  -28.0719394726643934  4.7429579545580944  0 0 0
239       39   2    0.1129348333333333   5.1707727280240192  -28.5492770790294728  5.0193995910282307  0 0 0
240       39   2    0.1129348333333333   3.6403896923328825  -27.6428294711155509  5.5404891272654666  0 0 0
241       40   1   -0.0696421666666667   21.8098103639950764 -11.0243898690000943 -19.6915275073071747 0 0 0
242       40   4    0.1195898333333333   20.1699283123053270 -11.5489155675290363 -19.7509502144864690 0 0 0
243       40   1   -0.0696421666666667   18.9760576282525157 -10.6063267127596568 -18.9421927609048524 0 0 0
244       40   3   -0.2061751666666667   19.8319254715395310 -12.6607202784925512 -20.4088775392067632 0 0 0
245       40   2    0.1129348333333333   20.5762942698672795 -13.2605951454999502 -20.9209678732387125 0 0 0
246       40   2    0.1129348333333333   18.8023905991799438 -12.9988964138025036 -20.4518907499956697 0 0 0
247       41   1   -0.0696421666666667  -12.8734365964801487 -11.0603873055511706 -2.3854013442052837  0 0 0
248       41   4    0.1195898333333333  -12.1737229309786859 -11.4875818554998297 -3.9005835156964368  0 0 0
249       41   1   -0.0696421666666667  -11.9667175318948296 -10.2552793645006499 -5.0865299367152588  0 0 0
250       41   3   -0.2061751666666667  -11.8003318638314472 -12.7451789453812125 -4.1500883669449351  0 0 0
251       41   2    0.1129348333333333  -11.9266156295791284 -13.5277011374019427 -3.4098973755760493  0 0 0
252       41   2    0.1129348333333333  -11.3590194343195563 -13.0237153787489834 -5.1007807898899644  0 0 0
253       42   1   -0.0696421666666667   20.7399981903509705 -21.6394846865558499  5.0864413491799372  0 0 0
254       42   4    0.1195898333333333   20.5401518806931165 -20.2087013624630565  4.1479361856277643  0 0 0
255       42   1   -0.0696421666666667   21.9476031146859896 -19.3455558338131759  3.6560516479528573  0 0 0
256       42   3   -0.2061751666666667   19.3221125455663376 -19.7785325400173839  3.8094705853378268  0 0 0
257       42   2    0.1129348333333333   18.4302975855371649 -20.3150567174627170  4.1143954257243935  0 0 0
258       42   2    0.1129348333333333   19.1862433283060980 -18.8790755048274619  3.2189861352051716  0 0 0
259       43   1   -0.0696421666666667  -21.1736648128205829  18.8161205808993834  10.7950733204168596 0 0 0
260       43   4    0.1195898333333333  -20.4658236055405709  20.1162343239744850  11.6762863992710013 0 0 0
261       43   1   -0.0696421666666667  -21.1321381556242152  21.6939487389776673  11.4899219092575056 0 0 0
262       43   3   -0.2061751666666667  -19.4244644879062811  19.9058678989141917  12.4853235774200009 0 0 0
263       43   2    0.1129348333333333  -18.9981579449391802  18.9163706713045698  12.6091348942545682 0 0 0
264       43   2    0.1129348333333333  -18.9721576383088184  20.7178644310693834  13.0441038864638852 0 0 0
265       44   1   -0.0696421666666667  -3.9964963574486259   30.0715546276920058  4.3814893933144727  0 0 0
266       44   4    0.1195898333333333  -3.8286390253436391   28.4894951359109214  3.7205937203645369  0 0 0
267       44   1   -0.0696421666666667  -3.1058664675940220   28.3210340686385393  2.1658878714408507  0 0 0
268       44   3   -0.2061751666666667  -4.2491579489954558   27.4182381247386537  4.3979387219442234  0 0 0
269       44   2    0.1129348333333333  -4.7053218408809743   27.5142300271864073  5.3771584789979281  0 0 0
270       44   2    0.1129348333333333  -4.1477996887652111   26.4184173190289897  3.9902131429659220  0 0 0
271       45   1   -0.0696421666666667  -27.3865256658936680 -26.2101750714314647 -19.3178609357669977 0 0 0