LAMMPS data file via vdw_self_gen.py, on 2021-08-05 13:24:48.718882

4500 atoms
6 atom types
4000 bonds
5 bond types
6500 angles
7 angle types
6000 dihedrals
4 dihedral types

-32.6809277050752911  32.6809277050752982 xlo xhi
-32.6809277050752911  32.6809277050752982 ylo yhi
-32.6809277050752911  32.6809277050752982 zlo zhi

Masses

1  1.007940
2  1.007940
3  1.007940
4  12.011000
5  12.011000
6  15.999400

Atoms

1         0    5   -0.1186820000000000  -18.2290165300456657 -4.1999334510422699  -24.7189863673337271 0 0 0
2         0    4    0.2934040000000000  -18.4131992417479395 -3.4954222998777835  -26.0470163892439572 0 0 0
3         0    6   -0.6441380000000000  -17.2582703375414930 -2.7277516921836198  -26.3533876201240282 0 0 0
4         0    1    0.0285690000000000  -19.1064764147121160 -4.8047513319461634  -24.4736620321362928 0 0 0
5         0    1    0.0285690000000000  -18.0649483221382248 -3.4746732071980482  -23.9151964599244202 0 0 0
6         0    1    0.0285690000000000  -17.3479111042085066 -4.8494068130472003  -24.7464762837819485 0 0 0
7         0    2   -0.0094320000000000  -19.2809291701229029 -2.8293326459629466  -26.0209299722804417 0 0 0
8         0    2   -0.0094320000000000  -18.5614958711367031 -4.2239201883902915  -26.8493950673908479 0 0 0
9         0    3    0.4025730000000000  -17.1423915337229147 -2.0757360754269567  -25.6414437433113953 0 0 0
10        1    5   -0.1186820000000000  -24.5188436304944624  25.3802681623776500  10.8085599997330561 0 0 0
11        1    4    0.2934040000000000  -25.9822560747900333  25.7346973237548156  10.6450761780675940 0 0 0
12        1    6   -0.6441380000000000  -26.7053104475584711  25.3596102902072396  11.8084954309961851 0 0 0
13        1    1    0.0285690000000000  -23.9457915312614560  25.6730573674221638  9.9243596148235920  0 0 0
14        1    1    0.0285690000000000  -24.3963719057431945  24.3038038346069492  10.9673814122492068 0 0 0
15        1    1    0.0285690000000000  -24.0968290236470928  25.8815227679034336  11.6858088851393873 0 0 0
16        1    2   -0.0094320000000000  -26.4161648086332050  25.2218950326090088  9.7813237959057684  0 0 0
17        1    2   -0.0094320000000000  -26.1013138658456540  26.8125949872335241  10.5019871272771947 0 0 0
18        1    3    0.4025730000000000  -26.6036126475534900  24.3990441694122779  11.9197906710339545 0 0 0
19        2    5   -0.1186820000000000  -18.4848034111667552  3.7097914894985289  -26.2574520132883293 0 0 0
20        2    4    0.2934040000000000  -17.5693326426057617  3.6611521275190619  -25.0518523878418975 0 0 0
21        2    6   -0.6441380000000000  -18.1894640063352888  2.9349472913369659  -24.0006122181258199 0 0 0
22        2    1    0.0285690000000000  -18.0166485381755059  4.2569314945002246  -27.0804911238543404 0 0 0
23        2    1    0.0285690000000000  -19.4326060236952856  4.1964338777356920  -26.0047695899682125 0 0 0
24        2    1    0.0285690000000000  -18.7274067105528914  2.6977909769944359  -26.5979174545865824 0 0 0
25        2    2   -0.0094320000000000  -17.3380448946824473  4.6689129700395169  -24.6937529341380078 0 0 0
26        2    2   -0.0094320000000000  -16.6300272672261009  3.1607615823278881  -25.3044930834278503 0 0 0
27        2    3    0.4025730000000000  -19.0163050309364259  3.3942058951229952  -23.7751531302960188 0 0 0
28        3    5   -0.1186820000000000  -17.5190778932659228 -10.2537653028580245  18.2097176655559529 0 0 0
29        3    4    0.2934040000000000  -18.2667340520427750 -11.5443909867658068  17.9466234148004169 0 0 0
30        3    6   -0.6441380000000000  -19.6654168304778700 -11.2990013615027518  17.9239808901546702 0 0 0
31        3    1    0.0285690000000000  -16.4388875093403897 -10.4241186428343635  18.2193624430917325 0 0 0
32        3    1    0.0285690000000000  -17.8165252642330003 -9.8228958737671839   19.1714221991730653 0 0 0
33        3    1    0.0285690000000000  -17.7531816385081669 -9.5095535837351601   17.4414322573359684 0 0 0
34        3    2   -0.0094320000000000  -18.0528937517794041 -12.2868088914199287  18.7214776834421102 0 0 0
35        3    2   -0.0094320000000000  -17.9780321576027049 -11.9633786382224763  16.9783191387210728 0 0 0
36        3    3    0.4025730000000000  -19.9138894281262324 -10.9388698341201795  18.7923028331015054 0 0 0
37        4    5   -0.1186820000000000  -11.4967074427445937  4.2153144461277403  -25.7549821393466836 0 0 0
38        4    4    0.2934040000000000  -10.5806731391905284  3.0271067262630806  -25.5476984167193351 0 0 0
39        4    6   -0.6441380000000000  -10.2444190775732089  2.9075822398089577  -24.1730386879196146 0 0 0
40        4    1    0.0285690000000000  -11.7739382269318753  4.3146445690217936  -26.8081683368847798 0 0 0
41        4    1    0.0285690000000000  -11.0102662743320590  5.1408497889037230  -25.4297770773534957 0 0 0
42        4    1    0.0285690000000000  -12.4080889946759285  4.1078322885582796  -25.1576971424620730 0 0 0
43        4    2   -0.0094320000000000  -9.6586126048068017   3.1366840812735903  -26.1265838380255673 0 0 0
44        4    2   -0.0094320000000000  -11.0759972311104473  2.1030070151864053  -25.8594777857476892 0 0 0
45        4    3    0.4025730000000000  -9.7940801238604305   3.7279065499317388  -23.9090705110678208 0 0 0
46        5    5   -0.1186820000000000   18.2053470888461142  24.6634064139291702 -10.3981755241621787 0 0 0
47        5    4    0.2934040000000000   18.5291894729780857  25.9599038621983986 -11.1110173364677589 0 0 0
48        5    6   -0.6441380000000000   17.3326111865093466  26.6720683270491534 -11.3904174906469642 0 0 0
49        5    1    0.0285690000000000   19.1181873400329252  24.1077739004602982 -10.1659692936483026 0 0 0
50        5    1    0.0285690000000000   17.5567042705271668  24.0333658904341654 -11.0156789220454581 0 0 0
51        5    1    0.0285690000000000   17.6644704508133650  24.8606639512027989 -9.4668001748431525  0 0 0
52        5    2   -0.0094320000000000   19.0528220535422541  25.7697914874456231 -12.0528120924191633 0 0 0
53        5    2   -0.0094320000000000   19.1646054649753061  26.5926825974162107 -10.4846386998825558 0 0 0
54        5    3    0.4025730000000000   16.7807011971519344  26.1068375053912405 -11.9572735811103357 0 0 0
55        6    5   -0.1186820000000000  -25.5035147994092597 -24.5298958386972714  18.3018009973270637 0 0 0
56        6    4    0.2934040000000000  -25.6166336333557787 -25.9283815518519241  17.7313934132181963 0 0 0
57        6    6   -0.6441380000000000  -25.2788537336305126 -26.8861817818297908  18.7241500428087129 0 0 0
58        6    1    0.0285690000000000  -25.7712794953318536 -23.7802907026444430  17.5519218368480558 0 0 0
59        6    1    0.0285690000000000  -24.4831613305576710 -24.3338530994783007  18.6474092385512265 0 0 0
60        6    1    0.0285690000000000  -26.1613569360843279 -24.4134038662054884  19.1693212901500942 0 0 0
61        6    2   -0.0094320000000000  -24.9472891755720916 -26.0585369902266777  16.8756196607019540 0 0 0
62        6    2   -0.0094320000000000  -26.6407521471445250 -26.1254680988425925  17.4014680129980448 0 0 0
63        6    3    0.4025730000000000  -24.3636526844410390 -26.7104820057505634  19.0015540327731571 0 0 0
64        7    5   -0.1186820000000000   25.4988089946984786 -3.9946711889943352   17.3317346064694142 0 0 0
65        7    4    0.2934040000000000   25.6639424300381975 -3.1264185656189318   18.5616904199174613 0 0 0
66        7    6   -0.6441380000000000   25.1751482805014319 -3.8093615395432452   19.7069901363873612 0 0 0
67        7    1    0.0285690000000000   25.8809963188538639 -3.4866848963818309   16.4418990466760633 0 0 0
68        7    1    0.0285690000000000   24.4443060428743593 -4.2419131378140333   17.1708186136717416 0 0 0
69        7    1    0.0285690000000000   26.0328202989494351 -4.9426023239795782   17.4549279713791563 0 0 0
70        7    2   -0.0094320000000000   25.1166723559865126 -2.1850393381909710   18.4539324827870885 0 0 0
71        7    2   -0.0094320000000000   26.7199933271769012 -2.8945081155682821   18.7274814112585091 0 0 0
72        7    3    0.4025730000000000   24.2338058864478789 -3.9997285989840816   19.5551638368296992 0 0 0
73        8    5   -0.1186820000000000  -17.7345489583635008  3.8439656790694614  -11.6650938323206166 0 0 0
74        8    4    0.2934040000000000  -18.7728903529180968  3.4529535727393972  -10.6341332833383788 0 0 0
75        8    6   -0.6441380000000000  -18.3382199240938206  3.8370476686883936  -9.3377631160779497  0 0 0
76        8    1    0.0285690000000000  -18.0596843462607239  3.5644669520104224  -12.6711216593757623 0 0 0
77        8    1    0.0285690000000000  -16.7773687700560501  3.3552010242689421  -11.4555366498394555 0 0 0
78        8    1    0.0285690000000000  -17.5532246600539565  4.9234802116964316  -11.6388643147930484 0 0 0
79        8    2   -0.0094320000000000  -18.9452749008506842  2.3724222390935132  -10.6409715172858039 0 0 0
80        8    2   -0.0094320000000000  -19.7229515404607731  3.9551754115158984  -10.8382645440040424 0 0 0
81        8    3    0.4025730000000000  -17.5004750723188529  3.3762149459928597  -9.1610341981908174  0 0 0
82        9    5   -0.1186820000000000  -25.8374914101390445  18.1010459663560646  2.8315274250401998  0 0 0
83        9    4    0.2934040000000000  -25.1615362602848229  18.6083712966657764  4.0883601971748673  0 0 0
84        9    6   -0.6441380000000000  -24.3750257045313923  17.5767972999293320  4.6665457225433391  0 0 0
85        9    1    0.0285690000000000  -26.4390178872011958  18.8878360090863353  2.3677905667318537  0 0 0
86        9    1    0.0285690000000000  -26.4863065949093013  17.2484940108302141  3.0577861984404420  0 0 0
87        9    1    0.0285690000000000  -25.0933896612461780  17.7516647525491855  2.1082270243535870  0 0 0
88        9    2   -0.0094320000000000  -25.8999197089835178  18.9413055293066215  4.8240611121013535  0 0 0
89        9    2   -0.0094320000000000  -24.5027747026841354  19.4500018956691214  3.8555432045630917  0 0 0
90        9    3    0.4025730000000000  -24.9710320055474675  16.8391217649838438  4.8810862541265712  0 0 0
91        10   5   -0.1186820000000000  -3.3489878451138528   4.2955431403532254  -4.1762796641310906  0 0 0
92        10   4    0.2934040000000000  -3.6231038598871486   2.9433404234944618  -3.5515147519724461  0 0 0
93        10   6   -0.6441380000000000  -4.7305849752534206   3.0330089912512657  -2.6669315767630652  0 0 0
94        10   1    0.0285690000000000  -2.5047691213919627   4.2407614026404943  -4.8692574815470291  0 0 0
95        10   1    0.0285690000000000  -3.1244555154883127   5.0400928086134762  -3.4054164870065944  0 0 0
96        10   1    0.0285690000000000  -4.2295845462052117   4.6547420374011601  -4.7189063472997015  0 0 0
97        10   2   -0.0094320000000000  -2.7537939721110640   2.5865307865214731  -2.9908915641020810  0 0 0
98        10   2   -0.0094320000000000  -3.8618904705013515   2.2062945299650183  -4.3236914884925062  0 0 0
99        10   3    0.4025730000000000  -4.5037573991229616   3.6806135848347421  -1.9780383437607703  0 0 0
100       11   5   -0.1186820000000000  -18.4627424242574669 -26.1692990826053027  25.8189158181683354 0 0 0
101       11   4    0.2934040000000000  -17.7399989447453130 -25.1951323416166133  24.9119626793159696 0 0 0
102       11   6   -0.6441380000000000  -17.6886032714507593 -23.9126857851131192  25.5200182534857340 0 0 0
103       11   1    0.0285690000000000  -18.5012155249394787 -27.1653884546454307  25.3691933135806558 0 0 0
104       11   1    0.0285690000000000  -19.4856996785523577 -25.8309566211878341  26.0140615280556311 0 0 0
105       11   1    0.0285690000000000  -17.9596967177687219 -26.2381393002593519  26.7890313558836048 0 0 0
106       11   2   -0.0094320000000000  -18.2482382972585988 -25.1062134992272910  23.9470288179425523 0 0 0
107       11   2   -0.0094320000000000  -16.7139648085060379 -25.5288689501638224  24.7320003655190774 0 0 0
108       11   3    0.4025730000000000  -18.6044788578977318 -23.6198099007082973  25.6642818035755056 0 0 0
109       12   5   -0.1186820000000000   10.0872705574497843 -3.3397138695052924  -17.8681946203052853 0 0 0
110       12   4    0.2934040000000000   11.4196466981893856 -3.4697028012297171  -18.5765728171161513 0 0 0
111       12   6   -0.6441380000000000   11.8470267175294399 -4.8240178329791386  -18.5617613132610266 0 0 0
112       12   1    0.0285690000000000   9.7387979211550739  -2.3032106203069720  -17.8805390058768019 0 0 0
113       12   1    0.0285690000000000   10.1675131214802352 -3.6721985521084615  -16.8279955623591277 0 0 0
114       12   1    0.0285690000000000   9.3329698008312310  -3.9724505237780843  -18.3473530594507857 0 0 0
115       12   2   -0.0094320000000000   12.1837769323273566 -2.8549399558758664  -18.0913071310753182 0 0 0
116       12   2   -0.0094320000000000   11.3314328198367420 -3.1510560145630304  -19.6192593203437404 0 0 0
117       12   3    0.4025730000000000   11.9343485464266816 -5.0936375347287193  -17.6316556955882255 0 0 0
118       13   5   -0.1186820000000000   18.9300266712246668  11.3609623335109067  25.4446873115081722 0 0 0
119       13   4    0.2934040000000000   17.5989366661329818  10.7724492750546084  25.0254323164616466 0 0 0
120       13   6   -0.6441380000000000   16.8991652798331806  10.2944037723234558  26.1650966403020320 0 0 0
121       13   1    0.0285690000000000   19.4769848787079525  11.7438821508375622  24.5785847307100376 0 0 0
122       13   1    0.0285690000000000   19.5463191496414979  10.6071369954270072  25.9456164024077900 0 0 0
123       13   1    0.0285690000000000   18.7822525202963639  12.1773716080708390  26.1592198941312084 0 0 0
124       13   2   -0.0094320000000000   17.7394749316097489  9.9427664301999918   24.3260136080396272 0 0 0
125       13   2   -0.0094320000000000   16.9805353966756698  11.5325311413298248  24.5392553594869582 0 0 0
126       13   3    0.4025730000000000   17.4509430312544467  9.6112794084717450   26.5825876724795869 0 0 0
127       14   5   -0.1186820000000000  -18.4593472601190598 -10.6312925755502103  11.7043687832202981 0 0 0
128       14   4    0.2934040000000000  -17.6374621648828835 -10.8027024640547644  10.4437949008748383 0 0 0
129       14   6   -0.6441380000000000  -18.4494803678319137 -11.3252952059425596  9.4023701407478235  0 0 0
130       14   1    0.0285690000000000  -17.8503040683488692 -10.2189268229214001  12.5136557683604597 0 0 0
131       14   1    0.0285690000000000  -18.8745805993519582 -11.5908906907016913  12.0295637167404941 0 0 0
132       14   1    0.0285690000000000  -19.3072102195595079 -9.9624947296163118   11.5233827114272849 0 0 0
133       14   2   -0.0094320000000000  -16.7990707433668440 -11.4855049037784696  10.6116990682908572 0 0 0
134       14   2   -0.0094320000000000  -17.2372933627075362 -9.8396089751682183   10.1139032998452159 0 0 0
135       14   3    0.4025730000000000  -18.7898897392079043 -12.1860667474922479  9.7000447257186728  0 0 0
136       15   5   -0.1186820000000000  -17.8120464425572145  25.9196350785944851  10.2238731050858327 0 0 0
137       15   4    0.2934040000000000  -18.7059298094121260  25.0354503754321343  11.0683332341942808 0 0 0
138       15   6   -0.6441380000000000  -18.3586742811068326  25.1627453284415772  12.4395559950175265 0 0 0
139       15   1    0.0285690000000000  -18.0742880980012757  25.8411560998448131  9.1651026333855832  0 0 0
140       15   1    0.0285690000000000  -16.7608758960364348  25.6393623325585054  10.3483186086471921 0 0 0
141       15   1    0.0285690000000000  -17.9013952647111019  26.9659323983514909  10.5340292295603088 0 0 0
142       15   2   -0.0094320000000000  -18.6073609227050696  23.9853234410424818  10.7770794736301916 0 0 0
143       15   2   -0.0094320000000000  -19.7534249542404332  25.3286148536302633  10.9529160895235851 0 0 0
144       15   3    0.4025730000000000  -17.4306428566059708  24.8882740276313186  12.5335747461814329 0 0 0
145       16   5   -0.1186820000000000  -18.3421385290198913  11.7777926151225678  25.4601956804006981 0 0 0
146       16   4    0.2934040000000000  -18.2084817772368872  10.3023925791224755  25.7752410405851720 0 0 0
147       16   6   -0.6441380000000000  -17.2013371170477072  9.7213310526510686   24.9597231666503738 0 0 0
148       16   1    0.0285690000000000  -19.1071251204444295  12.2427082104277805  26.0883465793753579 0 0 0
149       16   1    0.0285690000000000  -18.6108283326622583  11.9266960372435840  24.4091806597186611 0 0 0
150       16   1    0.0285690000000000  -17.3900162430605043  12.2938776638398330  25.6215570449523611 0 0 0
151       16   2   -0.0094320000000000  -19.1512465246810528  9.7761439514559765   25.5975667046340760 0 0 0
152       16   2   -0.0094320000000000  -17.9251100796289009  10.1586807849773280  26.8219310654819161 0 0 0
153       16   3    0.4025730000000000  -17.4683548015948347  9.8431602203853359   24.0327519937284428 0 0 0
154       17   5   -0.1186820000000000   18.5418581738034192 -25.0363681770488427  2.9078712301034462  0 0 0
155       17   4    0.2934040000000000   17.6760928381860758 -25.3136112492254846  4.1192793508759085  0 0 0
156       17   6   -0.6441380000000000   18.2752380044383642 -26.3187100058376409  4.9241668125829516  0 0 0
157       17   1    0.0285690000000000   18.0991019360992524 -24.2558740430952362  2.2827949399291443  0 0 0
158       17   1    0.0285690000000000   18.6664380098061002 -25.9421113582521272  2.3052866571468478  0 0 0
159       17   1    0.0285690000000000   19.5434969748730580 -24.7180970840669048  3.2150215816641499  0 0 0
160       17   2   -0.0094320000000000   16.6791114317971854 -25.6511107791633215  3.8202253433679600  0 0 0
161       17   2   -0.0094320000000000   17.5668259368112381 -24.4103103521576479  4.7264208834862034  0 0 0
162       17   3    0.4025730000000000   18.3564752195618155 -27.1203008866798427  4.3798609059186928  0 0 0
163       18   5   -0.1186820000000000  -11.0965698279469915  2.7605125768873737   11.0306836765028962 0 0 0
164       18   4    0.2934040000000000  -10.3840174459570580  4.0519607005925611   10.6866577774795140 0 0 0
165       18   6   -0.6441380000000000  -11.0313340031836997  5.1466452307873229   11.3188676484025432 0 0 0
166       18   1    0.0285690000000000  -10.6031437988876878  1.9057338665964210   10.5597180111087940 0 0 0
167       18   1    0.0285690000000000  -12.1392683961011709  2.7928607343554042   10.6979190358368044 0 0 0
168       18   1    0.0285690000000000  -11.1129785453242338  2.6066264026182693   12.1146430457888759 0 0 0
169       18   2   -0.0094320000000000  -10.3806674308477476  4.2224822464594638   9.6058144324040491  0 0 0
170       18   2   -0.0094320000000000  -9.3473323866805824   4.0214306164250093   11.0343136545097291 0 0 0
171       18   3    0.4025730000000000  -11.9474712802967016  5.1726753303534725   10.9941658331927385 0 0 0
172       19   5   -0.1186820000000000  -18.7438117847981758  18.8128833787723373 -11.0967168745630929 0 0 0
173       19   4    0.2934040000000000  -17.9611800768389394  17.7296486043599941 -10.3839665636542371 0 0 0
174       19   6   -0.6441380000000000  -16.7132359493728160  17.5270468460800153 -11.0309829846704837 0 0 0
175       19   1    0.0285690000000000  -19.7039083378525994  18.9886614416240889 -10.6035219545435240 0 0 0
176       19   1    0.0285690000000000  -18.9289566463684267  18.5346502691774262 -12.1394568854762941 0 0 0
177       19   1    0.0285690000000000  -18.1774788416685595  19.7498572200660654 -11.1129997845434758 0 0 0
178       19   2   -0.0094320000000000  -18.5126532142015492  16.7845675937461998 -10.3807387246496265 0 0 0
179       19   2   -0.0094320000000000  -17.7652077637948551  18.0182668206562049 -9.3472375803890166  0 0 0
180       19   3    0.4025730000000000  -16.8982059104805487  17.2590563508941841 -11.9471617627361226 0 0 0
181       20   5   -0.1186820000000000   3.7730966214869159  -11.4467265143495975  10.1921808371880420 0 0 0
182       20   4    0.2934040000000000   3.9304907679550891  -10.3978301900306089  11.2733684046284441 0 0 0
183       20   6   -0.6441380000000000   2.9930653592778724  -10.6298631592749384  12.3147312478056001 0 0 0
184       20   1    0.0285690000000000   4.4961109933851429  -11.2881947425236024  9.3871700030681957  0 0 0
185       20   1    0.0285690000000000   2.7633449850725116  -11.4189218662409573  9.7695373139891508  0 0 0
186       20   1    0.0285690000000000   3.9177593714847827  -12.4503914480487179  10.6052758680535817 0 0 0
187       20   2   -0.0094320000000000   3.7679752783665035  -9.3929529367236899   10.8719688801766665 0 0 0
188       20   2   -0.0094320000000000   4.9354363715216483  -10.4392091504926938  11.7033506397304485 0 0 0
189       20   3    0.4025730000000000   2.1036479565248523  -10.5786931075410831  11.9251999205858024 0 0 0
190       21   5   -0.1186820000000000   25.8127845119406842 -18.6325660967594580  18.8160501900577266 0 0 0
191       21   4    0.2934040000000000   25.3176645114050309 -18.1429064830119700  17.4710547922089994 0 0 0
192       21   6   -0.6441380000000000   25.0011131242841671 -16.7603546517372060  17.5444572441479707 0 0 0
193       21   1    0.0285690000000000   26.0714224635138159 -19.6942602268232108  18.7731954132617496 0 0 0
194       21   1    0.0285690000000000   25.0486290475038267 -18.4867980151427460  19.5866454832908587 0 0 0
195       21   1    0.0285690000000000   26.6949945592319082 -18.0658049418931093  19.1313363151774105 0 0 0
196       21   2   -0.0094320000000000   24.4241864690267612 -18.6916666401266127  17.1582122846250797 0 0 0
197       21   2   -0.0094320000000000   26.0894288899204057 -18.2762382634049025  16.7074351307334581 0 0 0
198       21   3    0.4025730000000000   24.3062703587004734 -16.6540432064772510  18.2162516718732519 0 0 0
199       22   5   -0.1186820000000000   25.2572298037795555 -17.2861165651654325  25.6062559514725088 0 0 0
200       22   4    0.2934040000000000   25.2345073833997482 -18.8004595138237995  25.5931373402356250 0 0 0
201       22   6   -0.6441380000000000   26.4325177462170693 -19.2987816795294904  25.0156527460266531 0 0 0
202       22   1    0.0285690000000000   24.3451956366102067 -16.8865520289656850  26.0584355695748755 0 0 0
203       22   1    0.0285690000000000   25.3484995257661438 -16.8912308780134062  24.5890371228368281 0 0 0
204       22   1    0.0285690000000000   26.1216221284596202 -16.9187536651332344  26.1690956476686196 0 0 0
205       22   2   -0.0094320000000000   24.3839249383134771 -19.1752380590583122  25.0157625027661084 0 0 0
206       22   2   -0.0094320000000000   25.1586863710473203 -19.1909300978426032  26.6121056930817090 0 0 0
207       22   3    0.4025730000000000   26.4843104019339215 -18.9565760378444921  24.1070113618641493 0 0 0
208       23   5   -0.1186820000000000   17.6374769804590130 -10.4967436931206581 -4.2570037839316885  0 0 0
209       23   4    0.2934040000000000   18.7553809870001196 -10.8282854356670057 -3.2904151032568638  0 0 0
210       23   6   -0.6441380000000000   18.7182049113692202 -12.2092052622161003 -2.9606869745746023  0 0 0
211       23   1    0.0285690000000000   17.6591417920551912 -9.4378918593346235  -4.5295619937263369  0 0 0
212       23   1    0.0285690000000000   16.6623806701857511 -10.7270888625502874 -3.8152716229881083  0 0 0
213       23   1    0.0285690000000000   17.7245716070142123 -11.0984818943703232 -5.1676320165722265  0 0 0
214       23   2   -0.0094320000000000   18.6638362721533611 -10.2446746427941981 -2.3693672410770614  0 0 0
215       23   2   -0.0094320000000000   19.7280804240530934 -10.6111143805089547 -3.7411979167694933  0 0 0
216       23   3    0.4025730000000000   17.8555648810865470 -12.3892970846637187 -2.5497910521789202  0 0 0
217       24   5   -0.1186820000000000   17.7862056427539201  24.8114788088355276 -17.5967796240838616 0 0 0
218       24   4    0.2934040000000000   18.0422044189125650  25.7673819522660743 -18.7433557355936458 0 0 0
219       24   6   -0.6441380000000000   19.4347284406325045  26.0194154396465684 -18.8633483894177694 0 0 0
220       24   1    0.0285690000000000   16.7181247415836758  24.5984691027499025 -17.4980142386055171 0 0 0
221       24   1    0.0285690000000000   18.1505075539179614  25.2315775690872144 -16.6534874304570906 0 0 0
222       24   1    0.0285690000000000   18.3219438025992432  23.8695253244917964 -17.7537075448572388 0 0 0
223       24   2   -0.0094320000000000   17.5255395266845504  26.7186925484802096 -18.5840550906806108 0 0 0
224       24   2   -0.0094320000000000   17.6907337540349658  25.3374936649447697 -19.6857871862331351 0 0 0
225       24   3    0.4025730000000000   19.7346506442571084  26.4124595250249747 -18.0261032854476078 0 0 0
226       25   5   -0.1186820000000000  -10.8450671605549971 -11.7043627093134166  25.8165625358943274 0 0 0
227       25   4    0.2934040000000000  -11.1351137617728018 -10.2505538361204103  25.5063437391599876 0 0 0
228       25   6   -0.6441380000000000  -11.0436725443818275 -10.0253336496306762  24.1070737015476659 0 0 0
229       25   1    0.0285690000000000  -10.9222932913248076 -11.8966729127373441  26.8903304149470515 0 0 0
230       25   1    0.0285690000000000  -9.8396902405894302  -11.9790177424923332  25.4807338966301593 0 0 0
231       25   1    0.0285690000000000  -11.5468097234048717 -12.3582939097316924  25.2885005362158779 0 0 0
232       25   2   -0.0094320000000000  -10.4252906033032229 -9.5914468255339038   26.0153036482844442 0 0 0
233       25   2   -0.0094320000000000  -12.1457002072065698 -9.9844949847501638   25.8295160320829460 0 0 0
234       25   3    0.4025730000000000  -10.1391455826873660 -10.2526065449159418  23.8321294307645992 0 0 0
235       26   5   -0.1186820000000000   17.3299171322455230  18.4400263987525008  11.1279931852339917 0 0 0
236       26   4    0.2934040000000000   18.6117756988886747  18.1580398032975339  10.3721855724069592 0 0 0
237       26   6   -0.6441380000000000   19.2914129056344272  17.0594429170268533  10.9622876106030649 0 0 0
238       26   1    0.0285690000000000   16.7887633987535132  19.2774413901816111  10.6787568147590974 0 0 0
239       26   1    0.0285690000000000   17.5422586120363135  18.6788324497610354  12.1753144250462810 0 0 0
240       26   1    0.0285690000000000   16.6807792635504093  17.5582451790242082  11.1278419885139908 0 0 0
241       26   2   -0.0094320000000000   19.2744010198012603  19.0287195783014269  10.3846583541594200 0 0 0
242       26   2   -0.0094320000000000   18.3941213511596970  17.9050437705241485  9.3304887838376569  0 0 0
243       26   3    0.4025730000000000   19.4912091433066657  17.2988470385071729  11.8832563806654647 0 0 0
244       27   5   -0.1186820000000000  -2.7985246617423494  -10.7594373206011351 -25.0918525168398254 0 0 0
245       27   4    0.2934040000000000  -4.2833782933960798  -10.6647803386693791 -25.3750003948758724 0 0 0
246       27   6   -0.6441380000000000  -4.7478778350781958  -11.8814284274590580 -25.9416130232398423 0 0 0
247       27   1    0.0285690000000000  -2.4272232243166005  -9.8331403766156562  -24.6446011760606751 0 0 0
248       27   1    0.0285690000000000  -2.2400996713934722  -10.9544431860013862 -26.0133367847540100 0 0 0
249       27   1    0.0285690000000000  -2.5885712352924006  -11.5904483338677267 -24.4104874388885449 0 0 0
250       27   2   -0.0094320000000000  -4.4989662908174424  -9.8483723529703049  -26.0709249403939971 0 0 0
251       27   2   -0.0094320000000000  -4.8387274704069059  -10.4852178325278285 -24.4498748871843148 0 0 0
252       27   3    0.4025730000000000  -4.2575590226318329  -12.0255149465134021 -26.7688027732899627 0 0 0
253       28   5   -0.1186820000000000   11.5596779039703552  3.0387870666765160   25.5718227491844026 0 0 0
254       28   4    0.2934040000000000   10.5206354892311627  3.9217243359234164   24.9124779141793873 0 0 0
255       28   6   -0.6441380000000000   10.1539520816754507  4.9772575974708850   25.7890822030066182 0 0 0
256       28   1    0.0285690000000000   11.8609282219308820  2.2264450127083117   24.9045348195892302 0 0 0
257       28   1    0.0285690000000000   11.1688709019673471  2.6067299526522740   26.4989665086987749 0 0 0
258       28   1    0.0285690000000000   12.4459844575020622  3.6224642585916009   25.8414516491652186 0 0 0
259       28   2   -0.0094320000000000   9.6236671376972556   3.3491542190753871   24.6576791809816704 0 0 0
260       28   2   -0.0094320000000000   10.9202335357771574  4.3633259594195257   23.9949693233083110 0 0 0
261       28   3    0.4025730000000000   9.7888333854742751   4.5750393025574017   26.5955095874134422 0 0 0
262       29   5   -0.1186820000000000  -4.4571772062202486  -10.7231007733110371 -18.4828455289011160 0 0 0
263       29   4    0.2934040000000000  -3.1689716611279790  -10.6781236586910389 -17.6875930499650202 0 0 0
264       29   6   -0.6441380000000000  -2.1381801167126731  -11.3519672606832014 -18.3950150306923206 0 0 0
265       29   1    0.0285690000000000  -5.2590110948879181  -10.1983774275965438 -17.9559182349161794 0 0 0
266       29   1    0.0285690000000000  -4.7686655497965544  -11.7582169733731643 -18.6575122904357897 0 0 0
267       29   1    0.0285690000000000  -4.3189829825779000  -10.2619891732201030 -19.4663070501176101 0 0 0
268       29   2   -0.0094320000000000  -3.2939977408912937  -11.1547759672739417 -16.7106169945257932 0 0 0
269       29   2   -0.0094320000000000  -2.8533243529432313  -9.6429508136631163  -17.5285441117336624 0 0 0
270       29   3    0.4025730000000000  -2.4226169999174800  -12.2732810674137163 -18.5202862340889816 0 0 0
271       30   5   -0.1186820000000000  -25.8794635528128367  10.4895521015639641  4.2962735195360242  0 0 0